INSANE! Membrane UpperLeaflet>loPI:POPI:DPPI:PYPI:ERGO=180.0:5.0:3.0:2.0:10.0 LowerLeaflet>PSPI:POPI:POPS:YOPS:POPE:YOPE:POPC:YOPC:ERGO=6.0:14.0:21.0:9.0:9.0:21.0:12.0:48.0:60.0
49606
    1loPI    C1    1  12.521   0.167  11.109  0.3666 -0.0007  0.1339
    1loPI    C2    2  12.488   0.556  11.199 -0.1102 -0.0325  0.1249
    1loPI    C3    3  12.336   0.280  11.445  0.0343 -0.2049  0.0241
    1loPI   PO4    4  12.456   0.201  10.768  0.0784  0.2183 -0.4260
    1loPI   GL1    5  12.853   0.286  10.478  0.2857 -0.0716 -0.0585
    1loPI   GL2    6  12.612   0.496  10.381 -0.1257  0.1460  0.0197
    1loPI   C1A    7  12.885   0.188  10.018 -0.1073 -0.2049  0.1143
    1loPI   C2A    8  12.885   0.204   9.614 -0.0910 -0.1330 -0.0265
    1loPI   C3A    9  12.901   0.105   9.234 -0.0284  0.2337  0.2606
    1loPI   C4A   10  12.952   0.091   8.875  0.1259 -0.3498  0.2595
    1loPI   C5A   11  12.806  -0.009   8.430  0.1009 -0.1014 -0.1797
    1loPI   C6A   12  12.738   0.187   8.063  0.0701  0.0920 -0.2961
    1loPI   C1B   13  12.704   0.655   9.963  0.0696 -0.1783 -0.0627
    1loPI   C2B   14  12.676   0.612   9.457  0.1532 -0.1203  0.4181
    1loPI   C3B   15  12.730   0.597   9.041 -0.2383  0.1706 -0.1853
    1loPI   C4B   16  12.725   0.530   8.603  0.1986  0.2041  0.0586
    2loPI    C1   17  16.707  17.346  11.120 -0.1831 -0.1168  0.0549
    2loPI    C2   18  16.570  17.616  11.381 -0.2127 -0.0273 -0.0520
    2loPI    C3   19  16.529  17.225  11.457  0.0149 -0.0052  0.2013
    2loPI   PO4   20  16.617  17.373  10.873  0.0480 -0.0606  0.1518
    2loPI   GL1   21  16.812  17.312  10.435  0.0409  0.1266 -0.0190
    2loPI   GL2   22  16.639  17.057  10.473  0.1191  0.4272 -0.1160
    2loPI   C1A   23  16.765  17.287   9.939 -0.0599 -0.0861  0.0833
    2loPI   C2A   24  16.835  17.381   9.518  0.3748 -0.1458  0.1824
    2loPI   C3A   25  16.784  17.237   9.102 -0.1368  0.0136 -0.0799
    2loPI   C4A   26  16.819  17.242   8.676  0.0609  0.1249 -0.1092
    2loPI   C5A   27  17.065  17.332   8.419  0.3270 -0.0252  0.2043
    2loPI   C6A   28  17.407  17.378   8.263 -0.2467  0.0393  0.1790
    2loPI   C1B   29  16.427  16.926  10.075 -0.0888  0.3332 -0.1372
    2loPI   C2B   30  16.465  16.967   9.634  0.1058  0.0357  0.2714
    2loPI   C3B   31  16.482  16.824   9.242 -0.2174  0.2295  0.0465
    2loPI   C4B   32  16.578  16.873   8.864  0.0083  0.2326 -0.0055
    3loPI    C1   33   5.287   9.033  11.187 -0.1759 -0.0951  0.0398
    3loPI    C2   34   4.946   9.126  11.376  0.0829  0.1908  0.3796
    3loPI    C3   35   5.275   9.041  11.587  0.1743 -0.2955  0.0581
    3loPI   PO4   36   5.259   9.191  10.940 -0.2238  0.0175  0.0531
    3loPI   GL1   37   5.341   9.209  10.453  0.0130  0.0343 -0.1021
    3loPI   GL2   38   5.139   9.391  10.343  0.0166 -0.0258  0.1381
    3loPI   C1A   39   5.473   9.201  10.026  0.0090 -0.0593 -0.0609
    3loPI   C2A   40   5.431   9.321   9.632 -0.1195 -0.2735 -0.3147
    3loPI   C3A   41   5.386   9.291   9.151 -0.1975  0.1317 -0.2709
    3loPI   C4A   42   5.501   9.296   8.827 -0.0972 -0.2278 -0.0604
    3loPI   C5A   43   5.494   9.297   8.346 -0.2383  0.1301  0.4261
    3loPI   C6A   44   5.476   9.436   7.960 -0.2210  0.3172  0.0363
    3loPI   C1B   45   5.000   9.286   9.940 -0.2269 -0.2936  0.1582
    3loPI   C2B   46   4.939   9.308   9.563 -0.2319  0.1382  0.0368
    3loPI   C3B   47   4.911   9.232   9.059  0.0228 -0.1234 -0.4274
    3loPI   C4B   48   4.966   9.279   8.604  0.1550 -0.1331  0.2249
    4loPI    C1   49  13.373  17.621  11.011  0.0092  0.1483  0.0345
    4loPI    C2   50  13.650  17.591  11.298 -0.1531  0.0564  0.1837
    4loPI    C3   51  13.399  17.903  11.294 -0.2209  0.0021  0.2056
    4loPI   PO4   52  13.486  17.361  10.913  0.1240  0.0510  0.2028
    4loPI   GL1   53  13.767  17.221  10.560 -0.0172  0.0399 -0.3152
    4loPI   GL2   54  13.709  16.971  10.639 -0.0462 -0.3512  0.0316
    4loPI   C1A   55  13.594  17.395  10.270  0.2036  0.1690 -0.0456
    4loPI   C2A   56  13.724  17.361   9.925  0.0248  0.0856  0.0783
    4loPI   C3A   57  13.655  17.412   9.468 -0.0304  0.2070 -0.2616
    4loPI   C4A   58  13.747  17.427   9.077  0.1164 -0.1255 -0.1547
    4loPI   C5A   59  13.638  17.468   8.733 -0.1323  0.0582  0.1867
    4loPI   C6A   60  13.600  17.192   8.281 -0.0229 -0.2258 -0.0016
    4loPI   C1B   61  13.994  16.943  10.238  0.0795  0.0849 -0.0859
    4loPI   C2B   62  13.967  16.895   9.750  0.0345  0.2039  0.1584
    4loPI   C3B   63  13.836  16.966   9.357 -0.0003 -0.0433  0.1165
    4loPI   C4B   64  13.884  17.002   8.899 -0.2751  0.0238  0.1201
    5loPI    C1   65   6.907   3.300  10.951  0.1900 -0.0839  0.2404
    5loPI    C2   66   7.208   3.360  11.208  0.3050  0.1397  0.0567
    5loPI    C3   67   6.883   3.594  11.222  0.1519 -0.0793  0.2320
    5loPI   PO4   68   7.015   3.301  10.708  0.2031 -0.0482  0.1025
    5loPI   GL1   69   6.927   3.498  10.377  0.0332  0.0569 -0.1313
    5loPI   GL2   70   7.126   3.621  10.137  0.1122  0.1432 -0.1367
    5loPI   C1A   71   6.613   3.514   9.981 -0.2464  0.1802  0.0415
    5loPI   C2A   72   6.541   3.555   9.498  0.1209 -0.0756 -0.0171
    5loPI   C3A   73   6.459   3.553   9.030  0.1275 -0.0534  0.0318
    5loPI   C4A   74   6.544   3.592   8.610 -0.1172 -0.1392  0.2071
    5loPI   C5A   75   6.574   3.631   8.232 -0.2151 -0.4511  0.1881
    5loPI   C6A   76   6.549   3.811   7.811 -0.2523 -0.0328  0.1408
    5loPI   C1B   77   7.058   3.615   9.720 -0.1306  0.1358 -0.1900
    5loPI   C2B   78   6.997   3.565   9.260 -0.0922  0.2009 -0.1109
    5loPI   C3B   79   6.948   3.464   8.887  0.1200  0.4899 -0.1172
    5loPI   C4B   80   7.047   3.293   8.488 -0.0196 -0.0105  0.2087
    6loPI    C1   81  13.248  16.405  10.690 -0.1695  0.0109  0.0482
    6loPI    C2   82  13.259  16.447  11.088  0.0827 -0.1970  0.0654
    6loPI    C3   83  12.925  16.316  10.910 -0.0308 -0.1046  0.2078
    6loPI   PO4   84  13.389  16.591  10.621  0.0221  0.2280 -0.0518
    6loPI   GL1   85  13.232  16.994  10.482  0.0679  0.4153 -0.3477
    6loPI   GL2   86  12.985  17.123  10.301 -0.5548  0.0443  0.1324
    6loPI   C1A   87  13.437  16.924  10.083  0.1096  0.2839  0.0676
    6loPI   C2A   88  13.375  16.973   9.630  0.0816  0.1931 -0.0741
    6loPI   C3A   89  13.382  16.960   9.223  0.1572 -0.2933 -0.0839
    6loPI   C4A   90  13.375  17.024   8.731 -0.1482 -0.1085  0.2838
    6loPI   C5A   91  13.324  16.795   8.332  0.2758  0.0738 -0.2678
    6loPI   C6A   92  13.446  16.850   7.853  0.1592  0.4879  0.0164
    6loPI   C1B   93  13.247  17.396   9.899 -0.1174 -0.2823 -0.3081
    6loPI   C2B   94  13.116  17.549   9.522  0.0897  0.0993  0.2215
    6loPI   C3B   95  13.172  17.465   8.977 -0.1722  0.0840 -0.1228
    6loPI   C4B   96  13.157  17.522   8.511 -0.0578 -0.1511  0.3300
    7loPI    C1   97   8.496   3.447  11.071 -0.0481  0.2045 -0.1565
    7loPI    C2   98   8.178   3.254  11.218  0.2776 -0.1160  0.1500
    7loPI    C3   99   8.212   3.650  11.266 -0.1422 -0.0542 -0.0191
    7loPI   PO4  100   8.467   3.296  10.827 -0.1539  0.1669  0.2217
    7loPI   GL1  101   8.344   3.036  10.476 -0.1894  0.0354  0.1272
    7loPI   GL2  102   8.046   3.034  10.437 -0.2085 -0.0261 -0.0715
    7loPI   C1A  103   8.303   3.046  10.027 -0.0212  0.1007 -0.2583
    7loPI   C2A  104   8.259   3.053   9.551 -0.2080 -0.1480 -0.0510
    7loPI   C3A  105   8.359   3.008   9.145 -0.1461 -0.0622 -0.3708
    7loPI   C4A  106   8.325   2.972   8.785 -0.1118  0.1655 -0.2117
    7loPI   C5A  107   8.009   3.229   8.551 -0.0403 -0.1244  0.0688
    7loPI   C6A  108   8.068   3.600   8.468  0.0946 -0.1319  0.0813
    7loPI   C1B  109   7.787   3.106  10.056  0.1258 -0.2236 -0.2279
    7loPI   C2B  110   7.734   3.038   9.675  0.0627  0.2594 -0.2480
    7loPI   C3B  111   7.850   3.055   9.332  0.1680  0.0598 -0.2166
    7loPI   C4B  112   7.802   2.961   8.897 -0.1237  0.0318 -0.1147
    8loPI    C1  113   5.254   7.884  10.757  0.1516  0.1010  0.2100
    8loPI    C2  114   5.170   7.540  10.943  0.0754  0.0047  0.0002
    8loPI    C3  115   5.188   7.881  11.152 -0.4555 -0.0288  0.1175
    8loPI   PO4  116   5.460   7.827  10.619  0.2428 -0.2994  0.0439
    8loPI   GL1  117   5.619   7.924  10.172  0.0606  0.2998 -0.1965
    8loPI   GL2  118   5.645   8.173  10.194  0.1947 -0.1573 -0.3479
    8loPI   C1A  119   5.764   7.903   9.767 -0.0726 -0.0658 -0.1688
    8loPI   C2A  120   5.619   7.922   9.371  0.1947  0.2148 -0.0823
    8loPI   C3A  121   5.610   7.944   8.937 -0.1508 -0.1990 -0.0482
    8loPI   C4A  122   5.565   7.842   8.443  0.2149  0.1315  0.1312
    8loPI   C5A  123   5.333   7.490   8.196  0.0758 -0.2481  0.0367
    8loPI   C6A  124   4.781   7.481   8.215 -0.1805 -0.1083 -0.0918
    8loPI   C1B  125   5.485   8.347   9.846 -0.1541 -0.1481 -0.1077
    8loPI   C2B  126   5.382   8.408   9.440  0.1084  0.0981  0.1184
    8loPI   C3B  127   5.449   8.464   8.999  0.2509 -0.0508 -0.1806
    8loPI   C4B  128   5.383   8.331   8.656 -0.1076 -0.0620  0.2248
    9loPI    C1  129  17.712   8.277  11.273 -0.0879 -0.0333  0.1781
    9loPI    C2  130  17.519   7.928  11.305 -0.0004 -0.0807  0.1919
    9loPI    C3  131  17.825   8.011  11.550 -0.1028  0.0594  0.2738
    9loPI   PO4  132  17.723   8.373  11.075  0.1353  0.0997 -0.1824
    9loPI   GL1  133  17.674   8.261  10.578 -0.1958  0.2170 -0.0395
    9loPI   GL2  134  17.297   8.211  10.419  0.0316 -0.0961 -0.2296
    9loPI   C1A  135  17.830   8.279  10.168 -0.0575 -0.0378 -0.3576
    9loPI   C2A  136  17.781   8.223   9.779 -0.2810 -0.0120 -0.2326
    9loPI   C3A  137  17.743   8.196   9.244 -0.0523  0.1335  0.0936
    9loPI   C4A  138  17.741   8.321   8.818  0.2104 -0.2406  0.0642
    9loPI   C5A  139  17.719   8.270   8.372  0.1389 -0.1012 -0.0509
    9loPI   C6A  140  17.296   8.201   8.211  0.1685  0.1657  0.4032
    9loPI   C1B  141  17.292   8.286   9.970  0.3049  0.1355 -0.0492
    9loPI   C2B  142  17.263   8.252   9.578 -0.2246  0.2511  0.0419
    9loPI   C3B  143  17.269   8.277   9.149 -0.2010  0.1681 -0.0249
    9loPI   C4B  144  17.235   8.355   8.661 -0.0342 -0.0017 -0.1205
   10loPI    C1  145  15.172   5.297  11.428  0.2763 -0.2084 -0.2603
   10loPI    C2  146  15.535   5.413  11.550  0.1675 -0.2501  0.1158
   10loPI    C3  147  15.214   5.633  11.641  0.0999 -0.1873 -0.2578
   10loPI   PO4  148  15.267   5.243  11.135 -0.3920  0.1242 -0.2025
   10loPI   GL1  149  15.306   5.415  10.744 -0.0953  0.1747 -0.0967
   10loPI   GL2  150  15.535   5.556  10.593 -0.0677  0.2717  0.0876
   10loPI   C1A  151  15.224   5.208  10.380 -0.1579 -0.0918 -0.0943
   10loPI   C2A  152  15.234   5.238   9.916  0.2012 -0.0490  0.1829
   10loPI   C3A  153  15.224   5.280   9.463 -0.1743  0.0415 -0.1876
   10loPI   C4A  154  15.225   5.321   9.054  0.1729  0.0700  0.2867
   10loPI   C5A  155  15.265   5.282   8.636 -0.3071  0.0374  0.0027
   10loPI   C6A  156  15.346   5.213   8.272 -0.0921 -0.2282  0.0505
   10loPI   C1B  157  15.539   5.668  10.163 -0.0053 -0.0293 -0.0352
   10loPI   C2B  158  15.547   5.674   9.694 -0.1587 -0.3206  0.4253
   10loPI   C3B  159  15.506   5.655   9.317 -0.0221 -0.0229  0.1903
   10loPI   C4B  160  15.576   5.662   8.818 -0.0283 -0.2495 -0.1473
   11loPI    C1  161  13.830  10.395  11.061 -0.1610 -0.0249  0.2426
   11loPI    C2  162  13.786  10.051  11.259 -0.2548  0.0555  0.3625
   11loPI    C3  163  14.090  10.295  11.348 -0.2094  0.0209  0.3026
   11loPI   PO4  164  13.812  10.316  10.789  0.0584  0.0167  0.0416
   11loPI   GL1  165  13.969  10.269  10.447 -0.0592  0.4367 -0.2785
   11loPI   GL2  166  14.017   9.931  10.336 -0.0164  0.0266  0.6217
   11loPI   C1A  167  13.794  10.330  10.061 -0.1417  0.0413  0.2823
   11loPI   C2A  168  13.640  10.366   9.609  0.2881 -0.2770  0.0841
   11loPI   C3A  169  13.744  10.301   9.227 -0.2080  0.3931 -0.1423
   11loPI   C4A  170  13.712  10.321   8.829 -0.2493 -0.0880  0.1566
   11loPI   C5A  171  13.524  10.274   8.418  0.1940 -0.1771 -0.0256
   11loPI   C6A  172  13.173  10.416   8.176  0.1898 -0.0663 -0.0596
   11loPI   C1B  173  13.993   9.924   9.921  0.1975  0.2156  0.2716
   11loPI   C2B  174  13.859   9.796   9.530  0.1562 -0.2148 -0.0841
   11loPI   C3B  175  13.925   9.783   9.075 -0.2152 -0.0906 -0.1854
   11loPI   C4B  176  13.894   9.846   8.648  0.0285  0.3218 -0.0407
   12loPI    C1  177   8.067   6.896  11.399  0.0445  0.0280 -0.0582
   12loPI    C2  178   7.952   6.577  11.610 -0.1285  0.1124 -0.0234
   12loPI    C3  179   8.291   6.767  11.704  0.0059 -0.0954 -0.0817
   12loPI   PO4  180   7.887   6.906  11.210 -0.1538 -0.1255  0.2748
   12loPI   GL1  181   7.880   6.916  10.787 -0.1913  0.3258 -0.1574
   12loPI   GL2  182   8.236   7.084  10.828  0.1482  0.0330  0.3200
   12loPI   C1A  183   7.919   7.232  10.466  0.0819  0.0182 -0.2801
   12loPI   C2A  184   7.876   7.296  10.081  0.2245  0.0359 -0.0031
   12loPI   C3A  185   7.900   7.202   9.720  0.2536 -0.2383  0.1083
   12loPI   C4A  186   7.869   7.232   9.279 -0.0691 -0.0456  0.1741
   12loPI   C5A  187   7.797   7.069   8.924  0.0864  0.2054  0.4183
   12loPI   C6A  188   7.596   6.681   8.721  0.0812 -0.0616  0.0665
   12loPI   C1B  189   8.220   6.773  10.436 -0.1127 -0.1462 -0.2195
   12loPI   C2B  190   8.153   6.745  10.025  0.1331 -0.0415  0.1030
   12loPI   C3B  191   8.104   6.732   9.610  0.1711 -0.0212 -0.1246
   12loPI   C4B  192   8.061   6.721   9.140  0.0614 -0.3102 -0.0346
   13loPI    C1  193  13.182   6.067  11.201  0.0494  0.1698 -0.1140
   13loPI    C2  194  13.293   6.414  11.367  0.1676  0.1092 -0.0648
   13loPI    C3  195  13.517   6.087  11.419  0.0400  0.0178 -0.0846
   13loPI   PO4  196  13.112   6.044  10.903 -0.2114  0.1191  0.1415
   13loPI   GL1  197  13.240   6.176  10.612  0.1052  0.3413 -0.1497
   13loPI   GL2  198  13.125   6.452  10.575  0.1612 -0.1325  0.0968
   13loPI   C1A  199  13.020   5.857  10.290 -0.0257 -0.0818 -0.1558
   13loPI   C2A  200  12.928   5.959   9.862 -0.2431  0.0504 -0.3143
   13loPI   C3A  201  12.904   5.854   9.429  0.2939  0.0039  0.3809
   13loPI   C4A  202  12.965   5.848   9.038  0.2761 -0.2457  0.1286
   13loPI   C5A  203  12.819   5.949   8.603 -0.1100  0.0660 -0.2497
   13loPI   C6A  204  12.643   6.155   8.186 -0.2110  0.1787  0.0981
   13loPI   C1B  205  13.120   6.364  10.181 -0.1839 -0.3600  0.0463
   13loPI   C2B  206  13.265   6.292   9.711 -0.3788 -0.0029  0.1426
   13loPI   C3B  207  13.281   6.322   9.304  0.0355  0.0741 -0.1465
   13loPI   C4B  208  13.121   6.289   8.883 -0.3356  0.1016  0.0516
   14loPI    C1  209  14.591   2.911  11.671  0.2367 -0.0863 -0.0747
   14loPI    C2  210  14.855   3.015  11.954 -0.0791  0.1871  0.1269
   14loPI    C3  211  14.539   2.788  12.048  0.0890 -0.1573 -0.1175
   14loPI   PO4  212  14.707   2.853  11.451 -0.1737 -0.0000  0.0103
   14loPI   GL1  213  15.034   2.977  11.076  0.1128  0.2072  0.2268
   14loPI   GL2  214  14.716   2.923  10.969 -0.0681 -0.0158  0.1225
   14loPI   C1A  215  15.060   2.781  10.716 -0.1795 -0.3289  0.2588
   14loPI   C2A  216  15.141   2.637  10.314 -0.1358 -0.0352  0.0530
   14loPI   C3A  217  14.989   2.676   9.972  0.1101 -0.0412  0.1345
   14loPI   C4A  218  15.028   2.703   9.601 -0.3236 -0.1614  0.0371
   14loPI   C5A  219  15.036   2.594   9.227 -0.1977  0.2157  0.2090
   14loPI   C6A  220  14.911   2.618   8.768  0.0339  0.0351  0.0836
   14loPI   C1B  221  14.582   2.719  10.646  0.1290  0.2585  0.2687
   14loPI   C2B  222  14.536   2.742  10.164 -0.2302  0.2002 -0.1015
   14loPI   C3B  223  14.556   2.647   9.742  0.1429  0.2820  0.1003
   14loPI   C4B  224  14.520   2.657   9.322 -0.0425  0.3899 -0.0576
   15loPI    C1  225  11.652  13.283  11.011  0.1333 -0.1497  0.1508
   15loPI    C2  226  11.569  13.193  11.392 -0.3110 -0.0692  0.0788
   15loPI    C3  227  11.644  13.571  11.288 -0.0747 -0.1077  0.1020
   15loPI   PO4  228  11.798  13.082  10.967 -0.0193  0.2288 -0.3035
   15loPI   GL1  229  11.919  12.921  10.625  0.0688 -0.0085  0.1663
   15loPI   GL2  230  11.634  12.973  10.448 -0.2481  0.3436  0.1840
   15loPI   C1A  231  12.227  12.755  10.365  0.2258 -0.1241 -0.2917
   15loPI   C2A  232  12.321  12.700   9.929  0.0696 -0.0663 -0.3376
   15loPI   C3A  233  12.123  12.743   9.528  0.0013 -0.1426  0.2492
   15loPI   C4A  234  12.150  12.667   9.073  0.2888  0.0261 -0.0245
   15loPI   C5A  235  12.127  12.744   8.628  0.1775 -0.0325  0.1226
   15loPI   C6A  236  12.374  12.670   8.261 -0.0903 -0.1040  0.2260
   15loPI   C1B  237  11.737  12.785  10.048  0.0386  0.1653  0.2733
   15loPI   C2B  238  11.590  12.817   9.705  0.2311 -0.3031  0.2649
   15loPI   C3B  239  11.647  12.685   9.311 -0.1046  0.0556 -0.0998
   15loPI   C4B  240  11.574  12.714   8.893  0.0069  0.2654  0.0418
   16loPI    C1  241   8.551   7.245  11.190 -0.0143 -0.1130 -0.0363
   16loPI    C2  242   8.643   6.878  11.318  0.0749 -0.0649  0.0391
   16loPI    C3  243   8.569   7.169  11.582  0.2285  0.0271 -0.0176
   16loPI   PO4  244   8.732   7.300  11.003  0.0191  0.1201 -0.2563
   16loPI   GL1  245   8.899   7.268  10.549  0.0456 -0.1690 -0.0401
   16loPI   GL2  246   8.670   7.011  10.529 -0.0462 -0.0770  0.1136
   16loPI   C1A  247   8.904   7.198  10.081 -0.0778  0.2359  0.3379
   16loPI   C2A  248   8.871   7.194   9.679 -0.0968  0.1790  0.3906
   16loPI   C3A  249   8.825   7.088   9.245  0.0022 -0.3323  0.1100
   16loPI   C4A  250   8.785   7.140   8.820 -0.1650 -0.2068  0.1914
   16loPI   C5A  251   8.611   7.472   8.570 -0.1099  0.1845  0.0672
   16loPI   C6A  252   8.545   7.948   8.594 -0.0816  0.1823  0.0477
   16loPI   C1B  253   8.421   7.229  10.290 -0.1603 -0.1018  0.0517
   16loPI   C2B  254   8.454   7.198   9.871  0.1338 -0.2079 -0.2427
   16loPI   C3B  255   8.350   7.202   9.466 -0.0806  0.1319  0.2744
   16loPI   C4B  256   8.320   7.133   8.996 -0.1646 -0.0388 -0.0250
   17loPI    C1  257   4.423  12.028  10.530  0.1594 -0.0325  0.0260
   17loPI    C2  258   4.796  11.883  10.532  0.2552  0.2098  0.0614
   17loPI    C3  259   4.597  11.928  10.876  0.0639 -0.2375  0.0164
   17loPI   PO4  260   4.348  11.915  10.246 -0.3991 -0.0483 -0.0570
   17loPI   GL1  261   4.722  11.632  10.119 -0.0791 -0.0163  0.0695
   17loPI   GL2  262   4.980  11.878  10.047 -0.0861 -0.2037 -0.4435
   17loPI   C1A  263   4.803  11.382   9.839  0.2243  0.0792  0.1050
   17loPI   C2A  264   4.837  11.450   9.420  0.0159  0.0136 -0.0743
   17loPI   C3A  265   4.899  11.549   9.017  0.0408  0.1334 -0.4742
   17loPI   C4A  266   4.866  11.599   8.634  0.1497 -0.1933 -0.2042
   17loPI   C5A  267   4.692  11.530   8.222 -0.2253 -0.0880 -0.1282
   17loPI   C6A  268   4.392  11.381   7.880 -0.1627  0.1341 -0.2500
   17loPI   C1B  269   5.058  12.031   9.719  0.0158 -0.0618  0.2699
   17loPI   C2B  270   5.192  11.958   9.320  0.2708  0.0468  0.0850
   17loPI   C3B  271   5.145  11.948   8.950  0.0448  0.0580  0.2576
   17loPI   C4B  272   5.067  12.078   8.530  0.2319  0.2826 -0.0158
   18loPI    C1  273  15.005   6.050  11.393  0.0108  0.0352 -0.1754
   18loPI    C2  274  15.035   6.421  11.540 -0.0417 -0.0183 -0.0278
   18loPI    C3  275  15.320   6.151  11.617 -0.0300 -0.0241 -0.0908
   18loPI   PO4  276  14.821   6.124  11.117  0.0257 -0.1336  0.0432
   18loPI   GL1  277  14.713   5.899  10.702 -0.1383 -0.0817  0.0545
   18loPI   GL2  278  14.355   6.019  10.783 -0.0918 -0.0090 -0.0283
   18loPI   C1A  279  14.604   5.834  10.210  0.1608  0.0341  0.1327
   18loPI   C2A  280  14.513   5.726   9.785 -0.2333 -0.0802 -0.1932
   18loPI   C3A  281  14.495   5.762   9.274 -0.2972  0.1419 -0.1012
   18loPI   C4A  282  14.488   5.798   8.918  0.1304 -0.1654  0.1211
   18loPI   C5A  283  14.291   5.662   8.597 -0.1501 -0.1237  0.1175
   18loPI   C6A  284  13.936   5.614   8.312 -0.2773 -0.0568 -0.0030
   18loPI   C1B  285  14.328   6.208  10.383  0.0823 -0.0867 -0.2039
   18loPI   C2B  286  14.300   6.202   9.998  0.0438 -0.4648 -0.2233
   18loPI   C3B  287  14.300   6.165   9.512 -0.0632 -0.2445  0.0570
   18loPI   C4B  288  14.319   6.226   9.083  0.4167  0.2941  0.1196
   19loPI    C1  289  15.346   1.942  11.439  0.2947  0.2016 -0.3018
   19loPI    C2  290  15.482   2.266  11.628 -0.1191  0.1099  0.1743
   19loPI    C3  291  15.632   1.906  11.716 -0.0333  0.1105  0.0331
   19loPI   PO4  292  15.358   2.003  11.183 -0.0535 -0.0196 -0.0683
   19loPI   GL1  293  15.283   1.942  10.821  0.2507  0.0331  0.1754
   19loPI   GL2  294  15.119   1.645  10.746  0.2153  0.0084  0.2650
   19loPI   C1A  295  15.334   2.210  10.505 -0.1226  0.1338 -0.0861
   19loPI   C2A  296  15.356   2.215  10.022  0.1808 -0.1089  0.2418
   19loPI   C3A  297  15.335   2.219   9.586 -0.0164 -0.2342 -0.5449
   19loPI   C4A  298  15.288   2.150   9.164  0.0723 -0.0388 -0.3038
   19loPI   C5A  299  15.591   2.132   8.864  0.0241  0.0548  0.0448
   19loPI   C6A  300  16.018   2.116   8.633  0.1081  0.0043 -0.2102
   19loPI   C1B  301  15.144   1.809  10.301 -0.0120 -0.0084  0.1239
   19loPI   C2B  302  15.125   1.795   9.856 -0.2217 -0.1997 -0.1843
   19loPI   C3B  303  15.075   1.787   9.492 -0.0166  0.0445  0.0905
   19loPI   C4B  304  15.040   1.724   9.077  0.0942 -0.0238 -0.2597
   20loPI    C1  305  16.390   0.825  11.505  0.0864 -0.1117 -0.1993
   20loPI    C2  306  16.715   1.004  11.655 -0.1046 -0.0373  0.1362
   20loPI    C3  307  16.600   0.647  11.794 -0.0179 -0.1883 -0.1700
   20loPI   PO4  308  16.291   1.012  11.292  0.0021 -0.0847  0.2886
   20loPI   GL1  309  16.265   0.909  10.830 -0.3858 -0.0871  0.0676
   20loPI   GL2  310  16.574   0.885  10.702  0.0685  0.6594 -0.3710
   20loPI   C1A  311  16.097   0.864  10.309  0.1297 -0.0027 -0.1121
   20loPI   C2A  312  16.034   0.841   9.839 -0.0880  0.2457  0.4223
   20loPI   C3A  313  16.015   0.896   9.466 -0.2635  0.0605 -0.0339
   20loPI   C4A  314  16.003   0.740   9.035  0.0594  0.0486  0.0176
   20loPI   C5A  315  16.032   0.801   8.608 -0.0061 -0.3722 -0.0438
   20loPI   C6A  316  16.218   0.918   8.201  0.0631 -0.1424 -0.0398
   20loPI   C1B  317  16.667   0.810  10.199  0.2166  0.2169 -0.2848
   20loPI   C2B  318  16.525   0.783   9.829  0.1332  0.0202 -0.0437
   20loPI   C3B  319  16.477   0.794   9.308 -0.2070  0.1916  0.0729
   20loPI   C4B  320  16.539   0.723   8.749  0.0594  0.2206 -0.0503
   21loPI    C1  321  14.623  13.750  10.992  0.0576 -0.0350 -0.0479
   21loPI    C2  322  14.417  13.968  11.257  0.1100 -0.0105 -0.0273
   21loPI    C3  323  14.329  13.582  11.205  0.0104  0.0177 -0.0710
   21loPI   PO4  324  14.557  13.876  10.740 -0.3615  0.0182 -0.3876
   21loPI   GL1  325  14.782  13.996  10.372  0.0802  0.0805  0.1015
   21loPI   GL2  326  15.077  13.828  10.179  0.0616  0.2032  0.2096
   21loPI   C1A  327  14.556  13.830   9.947  0.1693 -0.0537  0.2099
   21loPI   C2A  328  14.610  13.839   9.541 -0.1205  0.0939 -0.1172
   21loPI   C3A  329  14.655  13.817   9.092  0.1050  0.0203 -0.0011
   21loPI   C4A  330  14.705  13.762   8.645  0.1136  0.2024  0.1545
   21loPI   C5A  331  14.770  13.987   8.310  0.0626  0.2078  0.0587
   21loPI   C6A  332  15.002  13.734   8.092  0.0497  0.1436  0.0658
   21loPI   C1B  333  15.087  13.836   9.739  0.0611  0.2447 -0.2305
   21loPI   C2B  334  15.157  13.827   9.329 -0.0932  0.2974  0.0594
   21loPI   C3B  335  15.184  13.724   8.981  0.0483 -0.2049  0.4018
   21loPI   C4B  336  15.193  13.792   8.544  0.2037 -0.0528 -0.1254
   22loPI    C1  337   6.000   0.087  10.919  0.2098 -0.1172 -0.2694
   22loPI    C2  338   6.391   0.167  10.891  0.1150  0.4429 -0.1255
   22loPI    C3  339   6.200   0.225  11.238 -0.0530 -0.0590 -0.1266
   22loPI   PO4  340   5.906   0.260  10.723  0.3497  0.0979  0.3478
   22loPI   GL1  341   6.091   0.549  10.461  0.2549  0.4027 -0.0243
   22loPI   GL2  342   6.099   0.379  10.216 -0.0810 -0.5409  0.0288
   22loPI   C1A  343   5.800   0.766  10.271  0.0306  0.1052  0.1107
   22loPI   C2A  344   5.816   0.943   9.815  0.0661 -0.1507  0.0511
   22loPI   C3A  345   5.800   0.936   9.424  0.3713  0.2565  0.0377
   22loPI   C4A  346   5.864   0.768   8.970 -0.0119  0.0411  0.2916
   22loPI   C5A  347   5.710   0.708   8.532 -0.1827 -0.1272 -0.2488
   22loPI   C6A  348   5.760   0.486   8.203 -0.2767 -0.2970  0.2036
   22loPI   C1B  349   5.978   0.438   9.830 -0.4466  0.3522 -0.0489
   22loPI   C2B  350   6.006   0.423   9.438  0.1001 -0.1820 -0.0617
   22loPI   C3B  351   6.127   0.236   8.985  0.0978  0.3262  0.3385
   22loPI   C4B  352   6.060   0.199   8.548 -0.1521 -0.0069 -0.3913
   23loPI    C1  353   4.534   8.631  10.812  0.0594 -0.0168  0.0269
   23loPI    C2  354   4.832   8.822  10.999  0.0344  0.0796 -0.0313
   23loPI    C3  355   4.460   8.837  11.146  0.0609 -0.0556  0.0513
   23loPI   PO4  356   4.540   8.745  10.591 -0.3773 -0.6906  0.3307
   23loPI   GL1  357   4.530   8.934  10.292  0.0788 -0.1419 -0.0781
   23loPI   GL2  358   4.278   9.026  10.169  0.0699  0.0049  0.0148
   23loPI   C1A  359   4.647   8.919   9.783 -0.1655 -0.3305  0.2173
   23loPI   C2A  360   4.636   8.852   9.364  0.0337  0.0115  0.0511
   23loPI   C3A  361   4.615   8.826   8.898  0.0183  0.0757  0.1359
   23loPI   C4A  362   4.678   8.866   8.472 -0.3523  0.1492  0.2075
   23loPI   C5A  363   4.801   9.180   8.130  0.1613 -0.2507 -0.0636
   23loPI   C6A  364   4.603   9.350   7.679  0.2821 -0.1447 -0.0717
   23loPI   C1B  365   4.046   9.018   9.897  0.0158 -0.1728 -0.1671
   23loPI   C2B  366   4.150   8.894   9.491  0.3772 -0.1393 -0.0258
   23loPI   C3B  367   4.087   8.860   9.112 -0.0176  0.1865 -0.0331
   23loPI   C4B  368   4.101   8.867   8.708  0.0235  0.1037  0.2412
   24loPI    C1  369  11.027   2.321  11.131  0.1143  0.1833 -0.1916
   24loPI    C2  370  11.128   2.616  11.382  0.1686 -0.1366  0.1732
   24loPI    C3  371  10.769   2.441  11.412  0.2539 -0.3150  0.1641
   24loPI   PO4  372  11.362   2.304  11.004  0.0562 -0.1187 -0.0878
   24loPI   GL1  373  11.493   2.538  10.656  0.3711 -0.1983 -0.1453
   24loPI   GL2  374  11.569   2.251  10.522  0.2685 -0.0222  0.0022
   24loPI   C1A  375  11.442   2.869  10.355 -0.0669 -0.0664  0.1963
   24loPI   C2A  376  11.427   2.888   9.955 -0.0846  0.1889  0.0287
   24loPI   C3A  377  11.441   2.895   9.533  0.0013 -0.2072 -0.1437
   24loPI   C4A  378  11.506   2.887   9.097  0.2663 -0.0056 -0.1377
   24loPI   C5A  379  11.503   2.858   8.674  0.3236  0.3072  0.2429
   24loPI   C6A  380  11.384   2.463   8.492 -0.1592  0.0730  0.0087
   24loPI   C1B  381  11.577   2.424  10.119  0.0127 -0.1674 -0.0780
   24loPI   C2B  382  11.665   2.466   9.708  0.1597 -0.1748  0.3358
   24loPI   C3B  383  11.825   2.389   9.251  0.0617  0.0779 -0.3604
   24loPI   C4B  384  11.747   2.404   8.896 -0.2520  0.0541  0.3523
   25loPI    C1  385   1.938  15.579  10.766  0.1071  0.1879  0.0152
   25loPI    C2  386   2.163  15.758  11.043  0.1028  0.1693  0.0309
   25loPI    C3  387   1.764  15.768  11.072  0.1050 -0.3142  0.3357
   25loPI   PO4  388   1.934  15.643  10.483 -0.0176 -0.0464 -0.2182
   25loPI   GL1  389   1.888  15.443  10.186 -0.0378  0.2260 -0.1226
   25loPI   GL2  390   1.799  15.655   9.957  0.0518  0.1222  0.2776
   25loPI   C1A  391   2.012  15.206   9.706 -0.0107  0.0288  0.1720
   25loPI   C2A  392   2.062  15.263   9.252 -0.3987 -0.4512 -0.0940
   25loPI   C3A  393   2.051  15.275   8.856  0.0337 -0.1161 -0.0726
   25loPI   C4A  394   2.117  15.361   8.394  0.0555  0.0158 -0.1588
   25loPI   C5A  395   2.243  15.352   7.976  0.0795 -0.3318  0.0125
   25loPI   C6A  396   2.291  15.246   7.682  0.1808 -0.1551  0.0922
   25loPI   C1B  397   1.852  15.699   9.470  0.1246 -0.2387 -0.1961
   25loPI   C2B  398   1.852  15.729   9.001  0.0966  0.1212 -0.1728
   25loPI   C3B  399   1.867  15.794   8.522  0.2235 -0.0906  0.0989
   25loPI   C4B  400   1.699  16.025   8.282  0.1924 -0.2265  0.0676
   26loPI    C1  401   3.440   1.570  11.434 -0.2369  0.0973  0.1382
   26loPI    C2  402   3.557   1.287  11.691  0.0548  0.0401 -0.0533
   26loPI    C3  403   3.545   1.670  11.807  0.2723  0.0259  0.0203
   26loPI   PO4  404   3.624   1.515  11.240 -0.1838  0.0310 -0.1815
   26loPI   GL1  405   3.761   1.325  10.772  0.2369  0.1025 -0.0526
   26loPI   GL2  406   4.058   1.284  10.697  0.2163 -0.4502 -0.0974
   26loPI   C1A  407   3.483   1.390  10.419 -0.0973  0.1271 -0.1817
   26loPI   C2A  408   3.453   1.374   9.952  0.1567  0.0581 -0.0205
   26loPI   C3A  409   3.414   1.439   9.606  0.1114  0.0835  0.1549
   26loPI   C4A  410   3.527   1.491   9.165 -0.1786  0.0914 -0.0374
   26loPI   C5A  411   3.618   1.438   8.804 -0.3219  0.0922  0.2732
   26loPI   C6A  412   3.996   1.439   8.491  0.0381  0.0750  0.2193
   26loPI   C1B  413   3.942   1.379  10.270  0.1504  0.1369  0.0631
   26loPI   C2B  414   3.911   1.369   9.894 -0.1068 -0.1933 -0.0324
   26loPI   C3B  415   3.903   1.412   9.517 -0.0628 -0.1073  0.1853
   26loPI   C4B  416   4.031   1.518   9.066 -0.0332 -0.2579  0.2162
   27loPI    C1  417  11.845   2.588  11.068  0.1799  0.0469  0.1593
   27loPI    C2  418  11.624   2.617  11.401 -0.4214  0.0827 -0.2288
   27loPI    C3  419  11.780   2.264  11.295 -0.0282  0.1175  0.2025
   27loPI   PO4  420  12.079   2.770  11.038 -0.1892 -0.2815  0.2353
   27loPI   GL1  421  12.273   3.005  10.630 -0.0626 -0.2138 -0.1499
   27loPI   GL2  422  12.429   2.808  10.580  0.2757 -0.0866  0.0423
   27loPI   C1A  423  12.218   3.214  10.248 -0.0302  0.1390  0.0998
   27loPI   C2A  424  12.382   3.231   9.879  0.0724 -0.2206 -0.0614
   27loPI   C3A  425  12.322   3.245   9.436  0.2389 -0.0248  0.0895
   27loPI   C4A  426  12.357   3.171   8.911 -0.0576 -0.1288 -0.1610
   27loPI   C5A  427  12.281   3.148   8.546  0.1889 -0.1154  0.0682
   27loPI   C6A  428  12.364   2.819   8.244 -0.2041  0.1911 -0.3038
   27loPI   C1B  429  12.568   2.787  10.104  0.2322  0.0918 -0.0896
   27loPI   C2B  430  12.618   2.833   9.686 -0.1890  0.3816  0.0393
   27loPI   C3B  431  12.541   2.802   9.273  0.1121 -0.0565 -0.0890
   27loPI   C4B  432  12.458   2.699   8.828 -0.0869  0.3680 -0.1858
   28loPI    C1  433   7.771   6.251  11.223  0.2049  0.2114  0.1028
   28loPI    C2  434   7.947   6.002  10.964 -0.1732  0.2289 -0.1803
   28loPI    C3  435   8.110   6.065  11.324  0.1963 -0.0325 -0.2958
   28loPI   PO4  436   7.657   6.403  10.977  0.1809 -0.1612 -0.0683
   28loPI   GL1  437   7.708   6.308  10.608 -0.1468 -0.1774  0.0170
   28loPI   GL2  438   7.359   6.130  10.587  0.0988  0.4223  0.0380
   28loPI   C1A  439   7.827   6.361  10.134  0.0819 -0.1649  0.1844
   28loPI   C2A  440   7.814   6.325   9.746  0.1546  0.0607  0.1206
   28loPI   C3A  441   7.803   6.298   9.342  0.2095  0.0765 -0.0898
   28loPI   C4A  442   7.766   6.228   8.861  0.0069 -0.0289  0.2220
   28loPI   C5A  443   7.590   6.108   8.500 -0.1280 -0.1267  0.1102
   28loPI   C6A  444   7.242   5.960   8.242 -0.0226 -0.1260 -0.0351
   28loPI   C1B  445   7.347   6.403  10.265 -0.0557 -0.1448 -0.1906
   28loPI   C2B  446   7.295   6.459   9.811  0.0258 -0.0889 -0.2697
   28loPI   C3B  447   7.291   6.353   9.408  0.2461 -0.1681  0.0376
   28loPI   C4B  448   7.275   6.298   8.900  0.0104 -0.1551 -0.1818
   29loPI    C1  449   7.785  11.377  10.955 -0.1627  0.5780  0.1409
   29loPI    C2  450   7.533  11.259  11.241  0.1855 -0.1207  0.1801
   29loPI    C3  451   7.848  11.486  11.334 -0.0147  0.1332  0.2501
   29loPI   PO4  452   7.786  11.102  10.828 -0.1128  0.1284 -0.1612
   29loPI   GL1  453   7.652  11.013  10.325  0.2315 -0.3747  0.0354
   29loPI   GL2  454   7.789  11.263  10.353  0.0603 -0.1690  0.0375
   29loPI   C1A  455   7.612  10.896  10.005  0.1054  0.0284 -0.1310
   29loPI   C2A  456   7.649  10.869   9.554 -0.3654 -0.1857  0.0591
   29loPI   C3A  457   7.612  10.869   9.142  0.2335 -0.2116  0.0059
   29loPI   C4A  458   7.619  10.872   8.715  0.1027  0.4218 -0.0026
   29loPI   C5A  459   7.612  11.011   8.265  0.1385  0.1009  0.1609
   29loPI   C6A  460   7.768  11.327   8.066 -0.1383  0.1118  0.2479
   29loPI   C1B  461   7.938  11.294   9.915  0.2687  0.1357  0.0341
   29loPI   C2B  462   7.973  11.295   9.415 -0.0995  0.0358 -0.0582
   29loPI   C3B  463   7.872  11.336   8.991 -0.0327  0.1645  0.0844
   29loPI   C4B  464   7.965  11.363   8.557 -0.1709  0.0245 -0.0038
   30loPI    C1  465   8.022   9.586  10.945 -0.0550 -0.1318 -0.1984
   30loPI    C2  466   7.667   9.710  11.080  0.1131  0.1070  0.0354
   30loPI    C3  467   7.902   9.486  11.314  0.2182  0.1517 -0.0271
   30loPI   PO4  468   7.998   9.398  10.747 -0.3031  0.1090  0.0054
   30loPI   GL1  469   7.810   9.553  10.281  0.1602 -0.0061  0.0656
   30loPI   GL2  470   8.084   9.759  10.359  0.1194  0.0417  0.0705
   30loPI   C1A  471   7.850   9.503   9.863  0.0479  0.2164  0.0076
   30loPI   C2A  472   7.883   9.601   9.460  0.0148 -0.0947  0.1175
   30loPI   C3A  473   7.846   9.476   9.036  0.0390 -0.0603 -0.0706
   30loPI   C4A  474   7.756   9.401   8.610  0.1738 -0.0396  0.2593
   30loPI   C5A  475   7.834   9.749   8.316  0.1279 -0.3067  0.0157
   30loPI   C6A  476   8.162  10.043   8.177  0.0935  0.4993  0.2305
   30loPI   C1B  477   8.056   9.986   9.921  0.1816 -0.1277  0.0145
   30loPI   C2B  478   8.110  10.018   9.554 -0.1077 -0.1921 -0.2206
   30loPI   C3B  479   8.160   9.926   9.087 -0.0093  0.0450 -0.0751
   30loPI   C4B  480   8.138   9.965   8.709  0.0428  0.3832  0.2018
   31loPI    C1  481   0.637  13.784  10.460  0.1156 -0.0034  0.0048
   31loPI    C2  482   0.737  13.403  10.529  0.1214 -0.0180 -0.0822
   31loPI    C3  483   0.991  13.697  10.626  0.0136 -0.0198  0.2168
   31loPI   PO4  484   0.550  13.813  10.288  0.2496 -0.1549 -0.1083
   31loPI   GL1  485   0.616  13.920   9.924  0.1996  0.1960 -0.1314
   31loPI   GL2  486   0.566  14.251  10.032 -0.0755  0.2629  0.1506
   31loPI   C1A  487   0.641  14.061   9.509  0.0547 -0.1943  0.1633
   31loPI   C2A  488   0.585  14.011   9.130 -0.0023  0.1413  0.2355
   31loPI   C3A  489   0.688  14.101   8.615  0.0773 -0.4321 -0.3005
   31loPI   C4A  490   0.649  14.119   8.146  0.0270  0.2589 -0.3671
   31loPI   C5A  491   0.719  14.320   7.796  0.3266 -0.1106  0.1501
   31loPI   C6A  492   0.922  14.514   7.484 -0.0023  0.0868 -0.2508
   31loPI   C1B  493   0.448  14.470   9.693  0.0085 -0.0492 -0.2228
   31loPI   C2B  494   0.430  14.511   9.228 -0.3434 -0.0042  0.1789
   31loPI   C3B  495   0.431  14.548   8.797 -0.2562 -0.1812 -0.1101
   31loPI   C4B  496   0.404  14.603   8.396 -0.1397  0.0786  0.2422
   32loPI    C1  497  14.121  14.475  11.055  0.0881 -0.0425 -0.0756
   32loPI    C2  498  14.200  14.455  11.447 -0.1196  0.0691 -0.0270
   32loPI    C3  499  14.228  14.804  11.255  0.2004 -0.0270 -0.1605
   32loPI   PO4  500  14.299  14.327  10.935  0.1200 -0.1056 -0.1042
   32loPI   GL1  501  14.266  14.176  10.472 -0.0895  0.0203  0.1970
   32loPI   GL2  502  14.086  13.998  10.269 -0.1204  0.1524  0.0116
   32loPI   C1A  503  14.364  14.325  10.104 -0.3737 -0.4741  0.0452
   32loPI   C2A  504  14.421  14.319   9.691 -0.2597 -0.1839 -0.1765
   32loPI   C3A  505  14.400  14.318   9.254 -0.0324 -0.1666 -0.0704
   32loPI   C4A  506  14.492  14.224   8.825 -0.0882  0.0899 -0.1714
   32loPI   C5A  507  14.595  14.492   8.464 -0.1755  0.1369 -0.3250
   32loPI   C6A  508  14.763  14.883   8.435 -0.1061 -0.0831 -0.4431
   32loPI   C1B  509  14.053  13.990   9.823 -0.0388 -0.1105 -0.2862
   32loPI   C2B  510  14.160  13.936   9.393 -0.0460 -0.0520 -0.0575
   32loPI   C3B  511  14.059  13.873   9.035  0.3244  0.1782  0.0163
   32loPI   C4B  512  14.210  13.838   8.629  0.2697  0.1507  0.2009
   33loPI    C1  513  15.849  16.882  11.033  0.0746  0.1360 -0.3005
   33loPI    C2  514  15.868  16.516  11.193 -0.1040  0.1717 -0.1951
   33loPI    C3  515  16.124  16.800  11.312 -0.3270  0.2389  0.1379
   33loPI   PO4  516  15.884  16.872  10.823  0.2687 -0.0312 -0.0737
   33loPI   GL1  517  15.754  16.523  10.528  0.2235 -0.0550  0.3175
   33loPI   GL2  518  15.647  16.415  10.295 -0.1045 -0.2395 -0.1509
   33loPI   C1A  519  15.983  16.771  10.200 -0.2918  0.0890  0.2680
   33loPI   C2A  520  16.022  16.887   9.826  0.0954 -0.0774  0.2853
   33loPI   C3A  521  16.003  16.859   9.289  0.1535 -0.0491  0.0828
   33loPI   C4A  522  16.101  16.850   8.816  0.3238 -0.0013  0.7061
   33loPI   C5A  523  15.928  16.888   8.461 -0.0341 -0.0577  0.2302
   33loPI   C6A  524  15.669  16.707   8.136 -0.3509 -0.2327  0.2458
   33loPI   C1B  525  15.769  16.431   9.877 -0.0018 -0.1777 -0.0742
   33loPI   C2B  526  15.790  16.452   9.522  0.0483 -0.0805 -0.0306
   33loPI   C3B  527  15.727  16.460   9.088 -0.4769  0.0864  0.1081
   33loPI   C4B  528  15.766  16.445   8.657 -0.3511  0.0901  0.2538
   34loPI    C1  529  13.247   2.840  11.460  0.3719  0.2587  0.0207
   34loPI    C2  530  13.237   2.644  11.808 -0.1332  0.0685 -0.0919
   34loPI    C3  531  13.143   3.033  11.794 -0.0716  0.0866 -0.0108
   34loPI   PO4  532  13.360   2.605  11.304 -0.1122 -0.3022 -0.1449
   34loPI   GL1  533  13.388   2.512  10.834  0.1763  0.0562  0.0275
   34loPI   GL2  534  13.605   2.718  10.756  0.2418  0.1294 -0.1243
   34loPI   C1A  535  13.225   2.356  10.459  0.1775 -0.0564 -0.0180
   34loPI   C2A  536  13.238   2.306   9.977  0.1957  0.1410 -0.0083
   34loPI   C3A  537  13.294   2.357   9.573  0.1798 -0.0756  0.1456
   34loPI   C4A  538  13.227   2.254   9.092 -0.0504  0.0300  0.1075
   34loPI   C5A  539  13.319   2.248   8.680 -0.1924 -0.0616 -0.4649
   34loPI   C6A  540  13.494   2.391   8.167 -0.2066 -0.0494 -0.2623
   34loPI   C1B  541  13.567   2.714  10.340 -0.1700 -0.0208 -0.2222
   34loPI   C2B  542  13.582   2.784   9.965  0.1834 -0.1297  0.1256
   34loPI   C3B  543  13.579   2.745   9.502  0.0998  0.0545 -0.0873
   34loPI   C4B  544  13.494   2.778   9.050 -0.0835  0.0720  0.1130
   35loPI    C1  545  10.106  11.353  10.784 -0.1985 -0.2588 -0.2575
   35loPI    C2  546  10.245  11.296  11.154  0.2129 -0.0407 -0.3722
   35loPI    C3  547   9.946  11.554  11.090 -0.0049 -0.2378 -0.1685
   35loPI   PO4  548  10.014  11.192  10.585 -0.0593  0.2658  0.0148
   35loPI   GL1  549   9.960  11.134  10.118 -0.1010  0.0586  0.0712
   35loPI   GL2  550   9.660  11.243  10.189 -0.1830 -0.0089  0.1391
   35loPI   C1A  551  10.028  11.113   9.714 -0.0905 -0.0603 -0.2375
   35loPI   C2A  552   9.905  11.113   9.337  0.1048 -0.0363  0.0019
   35loPI   C3A  553   9.944  11.019   8.919  0.2588  0.0340 -0.0508
   35loPI   C4A  554   9.864  11.017   8.433  0.1666 -0.0097  0.0166
   35loPI   C5A  555   9.843  11.016   8.040  0.0241 -0.2926 -0.0774
   35loPI   C6A  556   9.737  10.662   7.806  0.3001  0.4072  0.1242
   35loPI   C1B  557   9.423  11.119   9.848 -0.0703 -0.1320 -0.0176
   35loPI   C2B  558   9.432  11.124   9.439 -0.1456 -0.0643  0.1793
   35loPI   C3B  559   9.382  11.038   9.062  0.0482  0.2006  0.3143
   35loPI   C4B  560   9.388  11.078   8.657 -0.0296  0.2122  0.1802
   36loPI    C1  561  10.311  16.106  10.849  0.0561  0.0144 -0.0459
   36loPI    C2  562   9.931  16.041  10.955  0.0872  0.0452  0.0859
   36loPI    C3  563  10.227  15.850  11.145  0.1423  0.0857  0.0410
   36loPI   PO4  564  10.258  16.122  10.547  0.1721  0.1268 -0.2372
   36loPI   GL1  565  10.403  15.864  10.292 -0.0439 -0.0495  0.2883
   36loPI   GL2  566  10.401  15.609  10.214 -0.2854  0.0055  0.0677
   36loPI   C1A  567  10.462  16.076   9.865 -0.2296  0.6349  0.4981
   36loPI   C2A  568  10.374  16.079   9.437 -0.1540  0.0591 -0.0225
   36loPI   C3A  569  10.190  16.202   9.055 -0.0411 -0.0379  0.6051
   36loPI   C4A  570  10.256  16.274   8.591 -0.2940  0.5115 -0.0955
   36loPI   C5A  571  10.336  16.184   8.211 -0.0732  0.3234  0.3225
   36loPI   C6A  572  10.751  16.182   7.931 -0.2310  0.2811 -0.1226
   36loPI   C1B  573  10.379  15.610   9.748 -0.2871 -0.2076  0.0784
   36loPI   C2B  574  10.437  15.628   9.268 -0.2175 -0.1132 -0.2596
   36loPI   C3B  575  10.445  15.705   8.932 -0.4065  0.2870  0.0816
   36loPI   C4B  576  10.502  15.706   8.422  0.2359  0.2121  0.0424
   37loPI    C1  577   3.980  10.002  10.427 -0.0179 -0.2494 -0.0624
   37loPI    C2  578   3.924  10.155  10.792  0.0598  0.4594 -0.3321
   37loPI    C3  579   4.293  10.129  10.641  0.0327  0.1245 -0.3494
   37loPI   PO4  580   3.846  10.121  10.276 -0.0139 -0.0369 -0.0157
   37loPI   GL1  581   3.964  10.282   9.876 -0.2328 -0.1158 -0.1957
   37loPI   GL2  582   4.083  10.622   9.907 -0.2454  0.1206 -0.0076
   37loPI   C1A  583   4.040  10.253   9.497 -0.0999 -0.3417 -0.2895
   37loPI   C2A  584   4.096  10.221   9.057  0.2468 -0.1635  0.0283
   37loPI   C3A  585   4.000  10.248   8.586  0.0742 -0.1373  0.2557
   37loPI   C4A  586   4.049  10.078   8.185  0.0987 -0.0223  0.1304
   37loPI   C5A  587   4.120   9.721   7.924 -0.0458 -0.0474  0.2257
   37loPI   C6A  588   4.100   9.327   7.821  0.1125  0.0549 -0.2078
   37loPI   C1B  589   4.239  10.674   9.551  0.2278  0.0301  0.1227
   37loPI   C2B  590   4.304  10.653   9.129  0.0435  0.0609  0.3309
   37loPI   C3B  591   4.335  10.661   8.665  0.1400 -0.2938 -0.1976
   37loPI   C4B  592   4.136  10.600   8.306 -0.0566  0.0276 -0.0462
   38loPI    C1  593   3.555   6.449  11.291 -0.0999  0.0453  0.0934
   38loPI    C2  594   3.456   6.834  11.334  0.3030  0.1492  0.1286
   38loPI    C3  595   3.683   6.654  11.609  0.2024 -0.0868  0.0599
   38loPI   PO4  596   3.644   6.359  11.009 -0.3081  0.3919 -0.0016
   38loPI   GL1  597   3.555   6.430  10.511  0.1083 -0.1415 -0.1872
   38loPI   GL2  598   3.469   6.255  10.281 -0.0366 -0.3043  0.2601
   38loPI   C1A  599   3.733   6.707  10.214  0.0948 -0.1666  0.0420
   38loPI   C2A  600   3.779   6.638   9.819  0.0522  0.2298 -0.0237
   38loPI   C3A  601   3.791   6.631   9.384  0.0762  0.1785  0.1555
   38loPI   C4A  602   3.679   6.713   8.958  0.0333 -0.2736  0.0013
   38loPI   C5A  603   3.593   6.696   8.491  0.2672  0.2844 -0.0145
   38loPI   C6A  604   3.701   6.661   8.075  0.0298 -0.1475 -0.1292
   38loPI   C1B  605   3.420   6.237   9.797  0.1390 -0.1097  0.1783
   38loPI   C2B  606   3.471   6.272   9.380  0.0334  0.0939  0.0826
   38loPI   C3B  607   3.407   6.222   8.905  0.0373  0.2744  0.0151
   38loPI   C4B  608   3.460   6.220   8.487 -0.1965  0.1746  0.1152
   39loPI    C1  609   9.375   5.000  10.979  0.0875 -0.0431  0.0048
   39loPI    C2  610   9.263   5.350  11.139  0.2533 -0.0227  0.0779
   39loPI    C3  611   9.540   5.126  11.321  0.0612 -0.2507  0.0952
   39loPI   PO4  612   9.341   5.063  10.732  0.0182 -0.1539 -0.0515
   39loPI   GL1  613   9.350   5.175  10.378 -0.0025  0.2396 -0.2984
   39loPI   GL2  614   9.692   5.254  10.263  0.3346  0.1952  0.1311
   39loPI   C1A  615   9.250   5.370   9.991 -0.0666  0.1601 -0.2725
   39loPI   C2A  616   9.268   5.247   9.537  0.2007 -0.2043  0.1544
   39loPI   C3A  617   9.240   5.256   9.074 -0.2877  0.0275  0.0283
   39loPI   C4A  618   9.116   5.341   8.630  0.1189 -0.0596  0.1631
   39loPI   C5A  619   8.772   5.443   8.459 -0.0034  0.0271  0.2079
   39loPI   C6A  620   8.347   5.380   8.335  0.1414 -0.0401 -0.2846
   39loPI   C1B  621   9.805   5.248   9.788  0.1644 -0.1912  0.1031
   39loPI   C2B  622   9.792   5.282   9.368  0.0250  0.0193  0.0881
   39loPI   C3B  623   9.735   5.210   8.945 -0.0378  0.0757  0.0378
   39loPI   C4B  624   9.611   5.301   8.578 -0.1276 -0.0802 -0.1659
   40loPI    C1  625   3.723   3.187  11.373 -0.2501  0.1071 -0.0099
   40loPI    C2  626   3.739   3.587  11.371  0.1043  0.0954 -0.1983
   40loPI    C3  627   4.002   3.377  11.588 -0.1425 -0.0358 -0.0217
   40loPI   PO4  628   3.803   3.112  11.141  0.0843  0.0967  0.2056
   40loPI   GL1  629   3.721   3.155  10.729 -0.1033  0.2475  0.2896
   40loPI   GL2  630   3.878   3.445  10.639  0.0132  0.0062 -0.1451
   40loPI   C1A  631   3.520   3.183  10.354  0.0779  0.0548  0.0493
   40loPI   C2A  632   3.647   3.181   9.948 -0.2666 -0.1126 -0.0221
   40loPI   C3A  633   3.683   3.212   9.493 -0.0823  0.1935  0.0273
   40loPI   C4A  634   3.502   3.096   8.997 -0.0556 -0.0203  0.0405
   40loPI   C5A  635   3.501   3.136   8.573  0.0815 -0.1618 -0.1017
   40loPI   C6A  636   3.308   3.393   8.334 -0.0265 -0.1329 -0.3617
   40loPI   C1B  637   3.821   3.544  10.198 -0.0111 -0.1063 -0.0158
   40loPI   C2B  638   3.879   3.610   9.751 -0.1917 -0.3518 -0.1919
   40loPI   C3B  639   3.884   3.658   9.343 -0.1720 -0.2173  0.0006
   40loPI   C4B  640   3.782   3.495   8.928  0.0279  0.2593  0.1300
   41loPI    C1  641  15.830  15.127  11.102 -0.0976 -0.0990 -0.0823
   41loPI    C2  642  15.849  15.402  11.392 -0.1563 -0.0032 -0.1683
   41loPI    C3  643  15.768  15.020  11.482  0.1791 -0.0430 -0.0195
   41loPI   PO4  644  15.866  15.237  10.810  0.0581 -0.0348 -0.0706
   41loPI   GL1  645  15.780  15.173  10.413  0.2445  0.1244 -0.0539
   41loPI   GL2  646  15.473  15.237  10.316 -0.0996  0.0741 -0.3311
   41loPI   C1A  647  16.011  15.103   9.963  0.1319  0.1618 -0.2335
   41loPI   C2A  648  15.948  15.108   9.412 -0.0588  0.2749 -0.2058
   41loPI   C3A  649  16.002  14.992   9.052 -0.4318 -0.1570 -0.0286
   41loPI   C4A  650  15.969  15.105   8.649  0.0588  0.3775 -0.0112
   41loPI   C5A  651  15.887  15.020   8.149  0.0184  0.0246 -0.3364
   41loPI   C6A  652  15.756  15.207   7.702 -0.1260 -0.0488  0.2953
   41loPI   C1B  653  15.507  15.093   9.859  0.0050  0.0499 -0.0247
   41loPI   C2B  654  15.499  15.146   9.379  0.4907  0.1197  0.2077
   41loPI   C3B  655  15.448  15.153   8.867  0.0616  0.0799  0.1116
   41loPI   C4B  656  15.491  15.196   8.401  0.1832  0.0859  0.0809
   42loPI    C1  657   7.534  12.827  10.957  0.0978 -0.0708 -0.2198
   42loPI    C2  658   7.275  12.572  11.125  0.0541  0.1450  0.0476
   42loPI    C3  659   7.642  12.614  11.278  0.1780 -0.0031 -0.2016
   42loPI   PO4  660   7.512  12.712  10.682  0.0136 -0.0098  0.0866
   42loPI   GL1  661   7.326  12.479  10.427 -0.0395  0.1467  0.2712
   42loPI   GL2  662   7.488  12.201  10.315 -0.2561  0.0839 -0.0195
   42loPI   C1A  663   7.226  12.563  10.028 -0.0483  0.0213  0.0765
   42loPI   C2A  664   7.220  12.694   9.548 -0.3154 -0.1578  0.2044
   42loPI   C3A  665   7.259  12.743   9.090 -0.3349 -0.0996 -0.0167
   42loPI   C4A  666   7.239  12.761   8.691 -0.0845  0.2584  0.1107
   42loPI   C5A  667   7.183  12.849   8.239  0.1575 -0.0241  0.2301
   42loPI   C6A  668   6.915  13.037   7.981 -0.0746  0.2799 -0.1993
   42loPI   C1B  669   7.620  12.262   9.968 -0.1592  0.2114  0.0011
   42loPI   C2B  670   7.519  12.240   9.531 -0.1829 -0.0930 -0.0564
   42loPI   C3B  671   7.460  12.305   9.150  0.4097  0.1472  0.0110
   42loPI   C4B  672   7.505  12.278   8.658  0.0385 -0.2756  0.0243
   43loPI    C1  673   0.132   6.594  11.238 -0.1483  0.1022 -0.0887
   43loPI    C2  674   0.479   6.416  11.323 -0.1700 -0.0620 -0.3336
   43loPI    C3  675   0.437   6.809  11.381  0.0690 -0.0343 -0.3394
   43loPI   PO4  676   0.123   6.477  11.001 -0.1737  0.1359 -0.0466
   43loPI   GL1  677   0.323   6.349  10.638 -0.1431 -0.3785  0.2400
   43loPI   GL2  678   0.556   6.325  10.548 -0.1520 -0.4506 -0.1338
   43loPI   C1A  679  -0.048   6.430  10.327  0.2024  0.1189 -0.1251
   43loPI   C2A  680  -0.087   6.449   9.874 -0.2375  0.0826  0.1151
   43loPI   C3A  681  -0.135   6.458   9.500  0.0877 -0.0507  0.1164
   43loPI   C4A  682  -0.135   6.427   9.182 -0.3002  0.0507  0.0326
   43loPI   C5A  683  -0.221   6.414   8.770  0.0532 -0.0786 -0.0099
   43loPI   C6A  684  -0.177   6.468   8.336  0.0819  0.3835  0.1155
   43loPI   C1B  685   0.413   6.360  10.123 -0.0772 -0.1604  0.2051
   43loPI   C2B  686   0.409   6.421   9.693 -0.0596 -0.0481 -0.1244
   43loPI   C3B  687   0.441   6.466   9.255 -0.2538  0.1483  0.0846
   43loPI   C4B  688   0.369   6.379   8.873  0.4421  0.1943  0.1551
   44loPI    C1  689  17.145   6.976  11.135 -0.0271 -0.0042  0.1919
   44loPI    C2  690  17.510   6.839  11.222  0.0243  0.0919  0.1286
   44loPI    C3  691  17.319   7.077  11.481 -0.0693 -0.1054  0.2432
   44loPI   PO4  692  17.119   6.799  10.885 -0.0786 -0.2871 -0.1616
   44loPI   GL1  693  17.078   6.712  10.492  0.0449 -0.1071 -0.2207
   44loPI   GL2  694  16.819   6.931  10.283 -0.0168  0.2072 -0.0731
   44loPI   C1A  695  17.200   6.563  10.129  0.1959  0.0219  0.1345
   44loPI   C2A  696  17.212   6.432   9.615 -0.1503  0.1574  0.0169
   44loPI   C3A  697  17.195   6.452   9.168  0.1245  0.3997 -0.0373
   44loPI   C4A  698  17.111   6.420   8.787  0.0652  0.2051 -0.0064
   44loPI   C5A  699  17.040   6.461   8.298  0.2048 -0.1419  0.0885
   44loPI   C6A  700  16.959   6.077   8.067 -0.3104 -0.0268 -0.1592
   44loPI   C1B  701  16.959   6.930   9.877  0.1834 -0.2386 -0.0805
   44loPI   C2B  702  16.992   6.922   9.469  0.2992  0.0882 -0.2057
   44loPI   C3B  703  16.931   6.936   9.025 -0.1447  0.0114  0.0551
   44loPI   C4B  704  16.975   6.842   8.638  0.1180  0.0392  0.0639
   45loPI    C1  705   9.635   7.676  11.075  0.0618 -0.0676 -0.0289
   45loPI    C2  706   9.862   7.617  11.399 -0.0283 -0.3546 -0.0157
   45loPI    C3  707   9.497   7.455  11.378 -0.1629 -0.0457 -0.1136
   45loPI   PO4  708   9.695   7.924  10.917  0.1815 -0.0470 -0.0935
   45loPI   GL1  709   9.567   8.046  10.498  0.1111  0.0475  0.1179
   45loPI   GL2  710   9.592   7.676  10.497  0.1771  0.1363  0.3031
   45loPI   C1A  711   9.492   8.036  10.005  0.3740  0.0543  0.2426
   45loPI   C2A  712   9.458   8.015   9.598  0.1240  0.1143  0.0485
   45loPI   C3A  713   9.449   8.044   9.190  0.0144 -0.2828 -0.2811
   45loPI   C4A  714   9.305   7.956   8.749  0.0695  0.1630  0.3799
   45loPI   C5A  715   9.062   7.969   8.462 -0.1362 -0.1836  0.0709
   45loPI   C6A  716   8.879   7.745   8.231 -0.0303  0.0705  0.1390
   45loPI   C1B  717   9.679   7.575  10.043  0.0886 -0.1674  0.0956
   45loPI   C2B  718   9.731   7.516   9.606  0.0660  0.0412  0.0050
   45loPI   C3B  719   9.656   7.580   9.238  0.2018 -0.0151 -0.3741
   45loPI   C4B  720   9.699   7.536   8.818  0.1023 -0.0112  0.3808
   46loPI    C1  721   9.921  17.335  10.736  0.3393  0.0490  0.0777
   46loPI    C2  722   9.526  17.325  10.797  0.2635 -0.0960 -0.4027
   46loPI    C3  723   9.773  17.146  11.056  0.0257  0.0900 -0.0401
   46loPI   PO4  724   9.980  17.322  10.521 -0.2204  0.0881  0.0215
   46loPI   GL1  725   9.924  17.326  10.102 -0.0236 -0.3839  0.1785
   46loPI   GL2  726  10.180  17.378  10.057  0.0017 -0.1590  0.0395
   46loPI   C1A  727   9.767  17.168   9.653 -0.0433  0.1501 -0.2665
   46loPI   C2A  728   9.677  17.073   9.234 -0.3762  0.1155  0.0070
   46loPI   C3A  729   9.846  17.137   8.823  0.4055 -0.0528  0.2491
   46loPI   C4A  730   9.734  17.065   8.406  0.0972  0.1508 -0.0031
   46loPI   C5A  731   9.912  17.238   8.051 -0.2707  0.1853 -0.1518
   46loPI   C6A  732  10.124  17.386   7.614  0.1098 -0.2367  0.0630
   46loPI   C1B  733  10.227  17.073   9.722  0.1273 -0.1076  0.0244
   46loPI   C2B  734  10.326  17.030   9.286  0.2093  0.0272  0.0534
   46loPI   C3B  735  10.330  17.164   8.860  0.0946  0.0299  0.0371
   46loPI   C4B  736  10.234  17.308   8.438  0.1034 -0.1220 -0.0732
   47loPI    C1  737   5.281   8.739  10.744  0.0164  0.2459 -0.0628
   47loPI    C2  738   5.398   8.377  10.622 -0.1539  0.1840 -0.0450
   47loPI    C3  739   5.291   8.435  11.003 -0.1523  0.2471 -0.0540
   47loPI   PO4  740   5.131   8.782  10.567  0.3313 -0.3849 -0.1512
   47loPI   GL1  741   5.007   8.895  10.259 -0.3289  0.2309  0.0808
   47loPI   GL2  742   5.005   8.540  10.157  0.1953 -0.0064 -0.0143
   47loPI   C1A  743   5.207   8.866   9.829  0.3031 -0.0472  0.2694
   47loPI   C2A  744   5.175   8.887   9.292 -0.1250 -0.3366  0.4024
   47loPI   C3A  745   5.116   8.791   8.815 -0.1462 -0.5895 -0.0844
   47loPI   C4A  746   5.143   8.788   8.281 -0.0619  0.0017 -0.2241
   47loPI   C5A  747   5.285   8.519   8.029  0.0161 -0.1998 -0.1406
   47loPI   C6A  748   5.258   8.141   8.135  0.1197 -0.2829 -0.1335
   47loPI   C1B  749   4.929   8.498   9.665 -0.0574  0.2338 -0.1596
   47loPI   C2B  750   4.914   8.489   9.189  0.0701  0.1386 -0.1827
   47loPI   C3B  751   4.844   8.405   8.741  0.1038  0.1092 -0.2481
   47loPI   C4B  752   4.938   8.303   8.427 -0.0086 -0.0116 -0.0464
   48loPI    C1  753   2.550  12.291  10.208  0.2414 -0.0985 -0.1325
   48loPI    C2  754   2.866  12.111  10.375  0.1480 -0.1892 -0.0519
   48loPI    C3  755   2.502  12.063  10.533  0.1618  0.3130  0.1520
   48loPI   PO4  756   2.619  12.318  10.005  0.0046 -0.1541  0.2603
   48loPI   GL1  757   2.422  12.134   9.676 -0.0083 -0.0637  0.0163
   48loPI   GL2  758   2.389  12.421   9.508 -0.1352 -0.2500 -0.2315
   48loPI   C1A  759   2.342  11.936   9.289 -0.2565 -0.1697 -0.0279
   48loPI   C2A  760   2.291  11.975   8.833 -0.2751 -0.0483 -0.0198
   48loPI   C3A  761   2.214  11.735   8.469  0.1597 -0.0058  0.2104
   48loPI   C4A  762   2.182  11.651   8.026  0.1195 -0.1692  0.0912
   48loPI   C5A  763   2.226  11.739   7.649 -0.1997  0.1165 -0.0274
   48loPI   C6A  764   2.369  11.670   7.185  0.1745 -0.0104 -0.0966
   48loPI   C1B  765   2.354  12.400   9.069 -0.2205  0.0130  0.2384
   48loPI   C2B  766   2.328  12.405   8.652  0.0669  0.3439 -0.2203
   48loPI   C3B  767   2.293  12.571   8.269 -0.0482 -0.1141 -0.0058
   48loPI   C4B  768   2.256  12.886   7.938  0.1550 -0.2191  0.0060
   49loPI    C1  769   6.488   6.622  11.211  0.0959 -0.0133  0.1831
   49loPI    C2  770   6.164   6.439  11.358  0.0157  0.1014  0.1503
   49loPI    C3  771   6.154   6.831  11.278  0.1162  0.0762  0.0104
   49loPI   PO4  772   6.598   6.421  11.043  0.0488 -0.0648  0.2453
   49loPI   GL1  773   6.546   6.504  10.580 -0.0747 -0.0884 -0.0983
   49loPI   GL2  774   6.915   6.567  10.612  0.3614 -0.0071  0.4336
   49loPI   C1A  775   6.245   6.587  10.201 -0.1910  0.0895  0.3950
   49loPI   C2A  776   6.329   6.550   9.813 -0.1353 -0.1762 -0.0639
   49loPI   C3A  777   6.379   6.596   9.376  0.4197 -0.1239  0.2611
   49loPI   C4A  778   6.296   6.589   8.910 -0.3598  0.1626  0.0173
   49loPI   C5A  779   6.344   6.634   8.432  0.1105 -0.2941 -0.1621
   49loPI   C6A  780   6.836   6.676   8.249 -0.2533 -0.1333 -0.1101
   49loPI   C1B  781   6.865   6.518  10.125  0.2019  0.0791  0.2886
   49loPI   C2B  782   6.812   6.496   9.643 -0.0576  0.1456 -0.0941
   49loPI   C3B  783   6.852   6.558   9.200  0.2525 -0.2618  0.1055
   49loPI   C4B  784   6.810   6.553   8.768 -0.2491 -0.1028  0.1840
   50loPI    C1  785  13.859  12.719  11.026 -0.2205  0.1298 -0.2619
   50loPI    C2  786  13.531  12.541  11.170  0.0247 -0.0554  0.0833
   50loPI    C3  787  13.741  12.792  11.401  0.2473 -0.1065 -0.0600
   50loPI   PO4  788  13.831  12.754  10.796 -0.1719 -0.0665 -0.1942
   50loPI   GL1  789  14.005  12.930  10.445 -0.0258 -0.3118  0.0801
   50loPI   GL2  790  13.632  12.897  10.318  0.2148 -0.0889  0.1236
   50loPI   C1A  791  14.101  12.940  10.122 -0.0328  0.0176 -0.1202
   50loPI   C2A  792  14.070  13.007   9.653 -0.1202  0.0122 -0.4948
   50loPI   C3A  793  14.008  12.963   9.230  0.0201  0.1292  0.2479
   50loPI   C4A  794  14.060  12.942   8.805  0.3196 -0.0055  0.1725
   50loPI   C5A  795  14.047  12.996   8.358 -0.0710 -0.2524 -0.4306
   50loPI   C6A  796  14.117  13.365   8.098 -0.0297  0.0165 -0.1937
   50loPI   C1B  797  13.580  13.074   9.872  0.1161  0.2520  0.0679
   50loPI   C2B  798  13.550  13.084   9.477  0.0329 -0.1288 -0.2655
   50loPI   C3B  799  13.537  13.030   9.032 -0.0474  0.2188  0.0005
   50loPI   C4B  800  13.428  12.954   8.710 -0.2185 -0.0888  0.3677
   51loPI    C1  801   5.824   8.502  10.977  0.0443 -0.0268  0.0584
   51loPI    C2  802   5.685   8.790  11.217 -0.1065  0.0113 -0.0729
   51loPI    C3  803   5.969   8.540  11.347 -0.3209 -0.0887  0.2124
   51loPI   PO4  804   5.931   8.591  10.611 -0.0387 -0.1692  0.0201
   51loPI   GL1  805   6.138   8.509  10.260 -0.0099  0.2592 -0.5386
   51loPI   GL2  806   6.500   8.476  10.227  0.2305 -0.0514 -0.0693
   51loPI   C1A  807   5.997   8.339   9.856  0.1267 -0.1787 -0.2813
   51loPI   C2A  808   5.882   8.377   9.539  0.0337  0.0542 -0.1998
   51loPI   C3A  809   5.904   8.306   9.048  0.2137 -0.0601  0.0304
   51loPI   C4A  810   5.883   8.351   8.614  0.0492 -0.1877 -0.1121
   51loPI   C5A  811   5.785   8.517   8.242 -0.2262 -0.4561 -0.0288
   51loPI   C6A  812   5.871   8.628   7.845  0.0559  0.0330  0.2775
   51loPI   C1B  813   6.555   8.385   9.814  0.0264  0.1329 -0.0398
   51loPI   C2B  814   6.413   8.402   9.394  0.1659 -0.0192 -0.0856
   51loPI   C3B  815   6.387   8.321   8.943 -0.3419  0.1714  0.2774
   51loPI   C4B  816   6.437   8.235   8.541  0.0629  0.1340  0.0284
   52loPI    C1  817  14.618   8.605  11.215  0.1847  0.0845  0.0053
   52loPI    C2  818  14.923   8.794  11.392  0.0993  0.1448  0.0890
   52loPI    C3  819  14.691   8.547  11.603 -0.0282  0.2488  0.0720
   52loPI   PO4  820  14.726   8.569  11.008 -0.3589 -0.1066  0.1559
   52loPI   GL1  821  14.687   8.607  10.554  0.0906 -0.1632 -0.1409
   52loPI   GL2  822  14.709   8.340  10.363  0.1481  0.0739 -0.1976
   52loPI   C1A  823  14.913   8.918  10.240  0.1115  0.1926  0.2486
   52loPI   C2A  824  14.954   8.838   9.693  0.2933 -0.4808 -0.0330
   52loPI   C3A  825  14.834   8.938   9.276 -0.0159  0.0783  0.1977
   52loPI   C4A  826  14.926   8.817   8.962  0.0827  0.1808 -0.3063
   52loPI   C5A  827  14.897   8.788   8.524  0.1223  0.1143  0.2123
   52loPI   C6A  828  15.319   8.898   8.274 -0.0767 -0.0161  0.0213
   52loPI   C1B  829  14.563   8.515   9.995 -0.0872 -0.0623  0.0719
   52loPI   C2B  830  14.634   8.420   9.585 -0.0615 -0.0900 -0.2246
   52loPI   C3B  831  14.655   8.436   9.134  0.0351  0.0886  0.0853
   52loPI   C4B  832  14.547   8.507   8.767  0.2354 -0.1619  0.2899
   53loPI    C1  833  14.217  11.913  10.967 -0.0337  0.0655 -0.2296
   53loPI    C2  834  14.605  11.980  11.042 -0.0511 -0.0764 -0.0045
   53loPI    C3  835  14.336  12.009  11.337 -0.1574 -0.3843 -0.0673
   53loPI   PO4  836  14.267  11.887  10.671  0.3673 -0.0396 -0.0438
   53loPI   GL1  837  13.902  12.041  10.398 -0.0722  0.1315 -0.2359
   53loPI   GL2  838  13.865  12.357  10.407 -0.0735 -0.2140 -0.0193
   53loPI   C1A  839  13.913  12.152   9.977 -0.0697  0.0365 -0.0983
   53loPI   C2A  840  14.016  12.067   9.470 -0.0980  0.1678 -0.1966
   53loPI   C3A  841  13.947  12.084   8.978 -0.1791 -0.0045  0.0545
   53loPI   C4A  842  13.823  12.060   8.492  0.1026 -0.0125 -0.1992
   53loPI   C5A  843  13.996  12.165   8.258 -0.0124  0.0625  0.0471
   53loPI   C6A  844  13.928  12.408   7.901 -0.0786  0.2461  0.1967
   53loPI   C1B  845  13.745  12.580   9.960 -0.1278 -0.0943 -0.1330
   53loPI   C2B  846  13.798  12.528   9.508 -0.0369 -0.0041  0.1816
   53loPI   C3B  847  13.725  12.564   9.043  0.0398 -0.0661  0.0907
   53loPI   C4B  848  13.640  12.456   8.682 -0.0098  0.0678 -0.3090
   54loPI    C1  849   2.212  10.741  10.263  0.0581 -0.0579 -0.1486
   54loPI    C2  850   2.318  10.841  10.635 -0.2422 -0.2327 -0.0126
   54loPI    C3  851   2.203  10.467  10.554 -0.3733 -0.1455 -0.2377
   54loPI   PO4  852   2.363  10.812  10.109  0.0353  0.0345 -0.0626
   54loPI   GL1  853   2.495  10.793   9.755 -0.0406  0.2315  0.0220
   54loPI   GL2  854   2.644  10.574   9.740 -0.2475  0.0458  0.0667
   54loPI   C1A  855   2.499  10.855   9.404  0.0191 -0.0554 -0.2057
   54loPI   C2A  856   2.417  11.023   9.042  0.0819  0.0422 -0.1686
   54loPI   C3A  857   2.536  11.234   8.726 -0.0389 -0.1890 -0.0460
   54loPI   C4A  858   2.457  11.293   8.310 -0.2493  0.1096 -0.1359
   54loPI   C5A  859   2.425  11.243   7.846 -0.3281  0.0860  0.0448
   54loPI   C6A  860   2.328  10.842   7.568  0.0264 -0.0152  0.0380
   54loPI   C1B  861   2.772  10.486   9.251 -0.0044  0.0268  0.4537
   54loPI   C2B  862   2.831  10.746   8.942  0.0255  0.2519 -0.0622
   54loPI   C3B  863   2.876  10.688   8.516  0.0866  0.0600 -0.2944
   54loPI   C4B  864   3.148  10.742   8.132 -0.2590 -0.0353  0.1457
   55loPI    C1  865   7.006  14.714  10.812  0.1460 -0.1985  0.0957
   55loPI    C2  866   7.401  14.768  10.840  0.1115 -0.0020  0.2254
   55loPI    C3  867   7.177  14.755  11.171 -0.0489  0.3540  0.1353
   55loPI   PO4  868   6.960  14.736  10.546  0.0857  0.1042  0.0828
   55loPI   GL1  869   6.819  14.747  10.224  0.1656  0.0402 -0.2391
   55loPI   GL2  870   6.690  14.996  10.157  0.0226 -0.2043 -0.2448
   55loPI   C1A  871   6.966  14.521   9.813 -0.1809  0.0059  0.2974
   55loPI   C2A  872   6.805  14.543   9.346 -0.1500 -0.0219 -0.2038
   55loPI   C3A  873   6.815  14.547   8.982 -0.0466 -0.1130 -0.2321
   55loPI   C4A  874   6.946  14.456   8.587 -0.1721  0.1671 -0.1109
   55loPI   C5A  875   7.186  14.397   8.198 -0.1856 -0.1595 -0.1680
   55loPI   C6A  876   7.666  14.650   8.219 -0.0197 -0.1122 -0.0117
   55loPI   C1B  877   6.710  14.929   9.685  0.0168  0.3213  0.0094
   55loPI   C2B  878   6.539  14.992   9.306 -0.0237  0.1792  0.1875
   55loPI   C3B  879   6.558  15.095   8.942  0.0116  0.3963  0.1075
   55loPI   C4B  880   6.603  14.912   8.582  0.1084 -0.1513 -0.3623
   56loPI    C1  881  13.189  14.962  11.159 -0.2003 -0.0724  0.0285
   56loPI    C2  882  13.425  14.896  11.475  0.0474  0.1760 -0.0997
   56loPI    C3  883  13.147  14.627  11.373  0.2915 -0.1354  0.0381
   56loPI   PO4  884  13.360  14.998  10.939 -0.2157  0.1545 -0.1068
   56loPI   GL1  885  13.437  14.978  10.530 -0.3777 -0.0634 -0.1486
   56loPI   GL2  886  13.782  15.166  10.358  0.2489  0.1272  0.0376
   56loPI   C1A  887  13.553  14.790  10.136 -0.1683  0.1375 -0.1948
   56loPI   C2A  888  13.652  14.786   9.633 -0.1038  0.0596  0.1994
   56loPI   C3A  889  13.676  14.859   9.221  0.1379 -0.3022  0.3119
   56loPI   C4A  890  13.663  14.788   8.832 -0.0449 -0.0282  0.1875
   56loPI   C5A  891  13.816  14.724   8.421 -0.1460 -0.0323  0.2187
   56loPI   C6A  892  14.264  14.912   8.340  0.0211  0.1549 -0.1599
   56loPI   C1B  893  13.865  15.152   9.937  0.1598  0.0171 -0.1107
   56loPI   C2B  894  13.915  15.219   9.482  0.0875 -0.0474  0.1948
   56loPI   C3B  895  13.936  15.240   8.978  0.0333  0.0673  0.2413
   56loPI   C4B  896  13.923  15.229   8.544  0.0199 -0.1141  0.2796
   57loPI    C1  897  14.778  10.958  10.739 -0.1023 -0.0696  0.0259
   57loPI    C2  898  14.634  10.776  11.064 -0.1323  0.0950  0.1059
   57loPI    C3  899  14.886  11.083  11.103  0.0302 -0.0196 -0.0301
   57loPI   PO4  900  14.738  10.713  10.543  0.1551  0.2324  0.0161
   57loPI   GL1  901  14.561  10.774  10.252  0.0315 -0.0399  0.0066
   57loPI   GL2  902  14.220  10.711  10.372  0.0341 -0.0800  0.2057
   57loPI   C1A  903  14.605  10.642   9.826 -0.1188  0.0109  0.2887
   57loPI   C2A  904  14.556  10.711   9.479  0.2162  0.2780  0.2507
   57loPI   C3A  905  14.539  10.658   9.037  0.0828 -0.2381  0.2373
   57loPI   C4A  906  14.482  10.706   8.582  0.2959 -0.0670  0.0655
   57loPI   C5A  907  14.502  10.450   8.270 -0.0836  0.0703  0.3576
   57loPI   C6A  908  14.387  10.534   7.988 -0.0545 -0.2182  0.1380
   57loPI   C1B  909  14.162  10.735   9.974 -0.1389  0.1032  0.0882
   57loPI   C2B  910  14.019  10.710   9.603  0.0609 -0.1243  0.0254
   57loPI   C3B  911  14.040  10.714   9.158 -0.0626  0.1921 -0.0066
   57loPI   C4B  912  14.027  10.708   8.704  0.0096  0.1099 -0.3010
   58loPI    C1  913   6.987  10.989  10.912  0.1467 -0.2640  0.2283
   58loPI    C2  914   7.039  11.344  11.088  0.0118 -0.0363 -0.1787
   58loPI    C3  915   6.863  11.045  11.288  0.0547  0.1480  0.1408
   58loPI   PO4  916   6.867  10.983  10.649 -0.0592 -0.0410  0.2719
   58loPI   GL1  917   7.046  11.172  10.265  0.2264 -0.0135 -0.0077
   58loPI   GL2  918   7.182  10.898  10.292  0.1937  0.2018 -0.3368
   58loPI   C1A  919   6.915  11.307   9.877 -0.1730  0.0644  0.1744
   58loPI   C2A  920   6.943  11.362   9.469 -0.0792 -0.1005 -0.0725
   58loPI   C3A  921   6.860  11.437   8.958 -0.0848  0.0144 -0.3688
   58loPI   C4A  922   6.933  11.335   8.590  0.0964  0.0023 -0.2855
   58loPI   C5A  923   7.171  11.405   8.228 -0.4750 -0.1061 -0.0024
   58loPI   C6A  924   7.347  11.201   7.846 -0.0804 -0.1536 -0.1199
   58loPI   C1B  925   7.087  10.852   9.868 -0.3326  0.0606  0.2688
   58loPI   C2B  926   7.147  10.895   9.433 -0.0521 -0.2486 -0.0305
   58loPI   C3B  927   7.079  10.963   9.008 -0.1303  0.1298 -0.1166
   58loPI   C4B  928   7.105  10.893   8.562 -0.0810  0.1255 -0.1274
   59loPI    C1  929  14.207   9.955  10.937 -0.0430  0.0170 -0.2972
   59loPI    C2  930  14.438   9.902  11.259 -0.4008  0.4242  0.0390
   59loPI    C3  931  14.113   9.674  11.206 -0.1670  0.1398 -0.2110
   59loPI   PO4  932  14.342   9.986  10.738 -0.1710 -0.3290 -0.1661
   59loPI   GL1  933  14.507  10.266  10.505 -0.1503 -0.0155  0.2845
   59loPI   GL2  934  14.858  10.183  10.340  0.1572  0.4157  0.1789
   59loPI   C1A  935  14.340  10.296  10.088 -0.0167 -0.0763 -0.0446
   59loPI   C2A  936  14.255  10.265   9.588  0.0343  0.1121 -0.1449
   59loPI   C3A  937  14.212  10.254   9.135 -0.0233 -0.1255 -0.0079
   59loPI   C4A  938  14.252  10.260   8.772 -0.0946  0.2464  0.0839
   59loPI   C5A  939  14.046  10.285   8.316 -0.1160 -0.2187 -0.1123
   59loPI   C6A  940  13.852   9.945   8.202  0.1112  0.3038  0.0217
   59loPI   C1B  941  14.887  10.198   9.935 -0.0181 -0.1077  0.0037
   59loPI   C2B  942  14.741  10.196   9.534 -0.3411 -0.1908 -0.5051
   59loPI   C3B  943  14.765  10.237   9.187  0.0199  0.1298 -0.1383
   59loPI   C4B  944  14.787  10.287   8.786 -0.2951 -0.0592  0.3099
   60loPI    C1  945   8.364   5.186  11.300  0.0076 -0.1850  0.0171
   60loPI    C2  946   8.270   5.003  11.643 -0.0739 -0.2385 -0.0337
   60loPI    C3  947   8.452   5.359  11.650 -0.1024 -0.2258  0.0651
   60loPI   PO4  948   8.363   4.992  11.136 -0.0516 -0.3623  0.0958
   60loPI   GL1  949   8.356   5.056  10.758  0.2791 -0.1507 -0.1034
   60loPI   GL2  950   8.544   5.341  10.706  0.3340  0.0968 -0.3099
   60loPI   C1A  951   8.443   4.943  10.294  0.2343 -0.0179 -0.1655
   60loPI   C2A  952   8.522   4.913   9.840  0.0242 -0.0542 -0.0387
   60loPI   C3A  953   8.392   4.888   9.528 -0.0193 -0.0253  0.3747
   60loPI   C4A  954   8.474   4.841   9.085  0.2747  0.0935  0.1497
   60loPI   C5A  955   8.283   4.858   8.674 -0.0107 -0.2582 -0.0890
   60loPI   C6A  956   8.079   4.648   8.312 -0.2030  0.3361  0.1080
   60loPI   C1B  957   8.348   5.407  10.324  0.0747 -0.1262 -0.2467
   60loPI   C2B  958   8.244   5.370   9.899 -0.1656 -0.2365  0.1251
   60loPI   C3B  959   8.208   5.333   9.455 -0.2465 -0.0539  0.0618
   60loPI   C4B  960   8.156   5.288   8.955  0.0141  0.1377  0.1376
   61loPI    C1  961  17.705  14.070  10.934 -0.0331  0.2748  0.0378
   61loPI    C2  962  18.074  14.215  10.885  0.0042  0.1772  0.0279
   61loPI    C3  963  17.892  14.247  11.240  0.0159  0.2395  0.0285
   61loPI   PO4  964  17.624  14.128  10.674  0.0791  0.0814  0.1222
   61loPI   GL1  965  17.503  14.021  10.221 -0.3109 -0.2730 -0.0163
   61loPI   GL2  966  17.235  14.051  10.423  0.0840  0.2311  0.1598
   61loPI   C1A  967  17.461  14.104   9.867 -0.3939  0.2036 -0.0160
   61loPI   C2A  968  17.444  14.120   9.382  0.0765 -0.3126  0.1590
   61loPI   C3A  969  17.425  14.091   8.945 -0.1563 -0.0251 -0.3501
   61loPI   C4A  970  17.548  14.114   8.587  0.0545  0.0603  0.0730
   61loPI   C5A  971  17.583  14.236   8.259 -0.2559 -0.1324  0.3182
   61loPI   C6A  972  17.701  14.331   7.875  0.0224 -0.2293  0.0521
   61loPI   C1B  973  17.008  14.148   9.989  0.2638  0.1267  0.2072
   61loPI   C2B  974  16.997  14.146   9.622  0.1478 -0.2006 -0.2198
   61loPI   C3B  975  16.991  14.097   9.194  0.0045 -0.2564  0.0958
   61loPI   C4B  976  16.963  14.171   8.744  0.0579  0.2389  0.0755
   62loPI    C1  977   6.273  12.529  10.717  0.2127 -0.1301 -0.2050
   62loPI    C2  978   6.552  12.639  10.983 -0.1513  0.0470  0.1127
   62loPI    C3  979   6.315  12.326  11.060 -0.1142 -0.0364 -0.1060
   62loPI   PO4  980   6.400  12.535  10.457  0.1147  0.0009  0.2049
   62loPI   GL1  981   6.393  12.382  10.164  0.2011  0.2793 -0.0154
   62loPI   GL2  982   6.062  12.362  10.062 -0.1172  0.0990  0.1750
   62loPI   C1A  983   6.433  12.390   9.692 -0.1353  0.2080 -0.1951
   62loPI   C2A  984   6.433  12.340   9.221 -0.1159  0.0891 -0.0474
   62loPI   C3A  985   6.335  12.256   8.802 -0.2967  0.5202  0.1238
   62loPI   C4A  986   6.387  12.402   8.367  0.1150 -0.1789  0.1390
   62loPI   C5A  987   6.624  12.627   8.014 -0.1913  0.0995  0.1603
   62loPI   C6A  988   6.830  12.549   7.657 -0.1621  0.2164 -0.2615
   62loPI   C1B  989   5.924  12.388   9.695  0.0248 -0.0413 -0.1221
   62loPI   C2B  990   5.962  12.376   9.288  0.0491 -0.0402 -0.0613
   62loPI   C3B  991   5.859  12.344   8.829  0.0840 -0.2665  0.1853
   62loPI   C4B  992   5.840  12.396   8.401 -0.0535  0.0388  0.1102
   63loPI    C1  993  15.152   9.300  11.044 -0.3000  0.0189  0.1562
   63loPI    C2  994  15.419   9.520  11.245 -0.1333  0.0746 -0.1209
   63loPI    C3  995  15.454   9.122  11.238 -0.0676  0.0808 -0.1426
   63loPI   PO4  996  15.084   9.343  10.790 -0.2596  0.0128 -0.0047
   63loPI   GL1  997  14.784   9.353  10.420  0.0660 -0.5024 -0.1429
   63loPI   GL2  998  14.483   9.681  10.372  0.2853 -0.0899 -0.0836
   63loPI   C1A  999  14.664   9.327  10.016  0.2838 -0.0669 -0.0344
   63loPI   C2A 1000  14.689   9.318   9.594 -0.0426 -0.0893 -0.0813
   63loPI   C3A 1001  14.660   9.385   9.064  0.1136  0.0561 -0.0597
   63loPI   C4A 1002  14.697   9.468   8.589  0.1835 -0.0255 -0.0784
   63loPI   C5A 1003  14.823   9.238   8.196  0.0058  0.0447 -0.1651
   63loPI   C6A 1004  14.899   8.870   7.956  0.0414  0.2584  0.1085
   63loPI   C1B 1005  14.560   9.820  10.017  0.4907  0.2263  0.0607
   63loPI   C2B 1006  14.482   9.795   9.615  0.1199 -0.1312 -0.1214
   63loPI   C3B 1007  14.441   9.794   9.285 -0.1766 -0.1964 -0.1187
   63loPI   C4B 1008  14.430   9.832   8.889  0.1711  0.3747  0.0530
   64loPI    C1 1009   0.160  13.653  10.813  0.2685 -0.0797 -0.1785
   64loPI    C2 1010   0.544  13.654  10.925  0.2149  0.1502  0.0100
   64loPI    C3 1011   0.266  13.818  11.162  0.0205  0.1212 -0.1953
   64loPI   PO4 1012   0.154  13.748  10.611 -0.1114 -0.1796 -0.0301
   64loPI   GL1 1013  -0.026  13.701  10.204 -0.0549  0.1053  0.2707
   64loPI   GL2 1014   0.129  13.818   9.986 -0.0441 -0.3203  0.2892
   64loPI   C1A 1015  -0.212  13.611   9.700 -0.1723  0.0583  0.1134
   64loPI   C2A 1016  -0.253  13.641   9.277 -0.0456  0.0195 -0.2962
   64loPI   C3A 1017  -0.157  13.654   8.890  0.1838 -0.0866  0.3729
   64loPI   C4A 1018  -0.034  13.732   8.415  0.0103 -0.0804 -0.4050
   64loPI   C5A 1019   0.022  13.888   7.970 -0.5219 -0.0730 -0.2802
   64loPI   C6A 1020  -0.237  13.970   7.500  0.0591 -0.2256 -0.1443
   64loPI   C1B 1021   0.130  14.029   9.651  0.1561  0.1271  0.1875
   64loPI   C2B 1022   0.072  14.006   9.254  0.0575  0.0081  0.0614
   64loPI   C3B 1023   0.113  14.145   8.856 -0.1714 -0.0558  0.1711
   64loPI   C4B 1024   0.207  14.185   8.463 -0.0223  0.0623  0.0130
   65loPI    C1 1025   7.842   2.866  11.144  0.1049  0.1362  0.2220
   65loPI    C2 1026   7.486   2.970  11.294 -0.0688 -0.2074  0.0580
   65loPI    C3 1027   7.820   3.049  11.500 -0.2240  0.2468  0.1477
   65loPI   PO4 1028   7.749   2.924  10.884 -0.0422  0.1863  0.2784
   65loPI   GL1 1029   7.502   2.993  10.476 -0.0361  0.0077 -0.0628
   65loPI   GL2 1030   7.559   2.695  10.469 -0.0452 -0.0275  0.1684
   65loPI   C1A 1031   7.241   3.088  10.184 -0.3177  0.0248  0.2007
   65loPI   C2A 1032   7.243   3.144   9.782  0.0641  0.2348  0.0025
   65loPI   C3A 1033   7.316   3.161   9.334  0.0412  0.1579  0.2948
   65loPI   C4A 1034   7.261   3.099   8.902  0.0856  0.1293  0.0629
   65loPI   C5A 1035   7.449   3.017   8.504  0.3055  0.2208  0.0120
   65loPI   C6A 1036   7.788   2.768   8.442  0.2153 -0.2721 -0.0041
   65loPI   C1B 1037   7.468   2.687  10.001  0.0462  0.0964 -0.2244
   65loPI   C2B 1038   7.422   2.638   9.625  0.1759 -0.1717  0.0944
   65loPI   C3B 1039   7.481   2.661   9.211 -0.2424 -0.4423  0.0423
   65loPI   C4B 1040   7.418   2.577   8.803 -0.2030 -0.0611 -0.1714
   66loPI    C1 1041   5.030  12.468  10.460  0.0164  0.0203 -0.0827
   66loPI    C2 1042   4.639  12.452  10.544  0.0547  0.1543  0.1277
   66loPI    C3 1043   4.906  12.321  10.811  0.1620  0.2361  0.0612
   66loPI   PO4 1044   5.072  12.408  10.228  0.0524 -0.2889  0.4358
   66loPI   GL1 1045   5.036  12.506   9.783  0.0944  0.0751  0.2658
   66loPI   GL2 1046   5.213  12.810   9.753 -0.0641  0.0623 -0.0450
   66loPI   C1A 1047   4.909  12.421   9.348 -0.3067 -0.1481  0.1837
   66loPI   C2A 1048   4.875  12.462   8.852 -0.0419 -0.1522  0.1996
   66loPI   C3A 1049   4.828  12.579   8.398  0.0730  0.0358  0.1316
   66loPI   C4A 1050   4.720  12.475   7.907  0.1202 -0.1427 -0.2343
   66loPI   C5A 1051   4.616  12.634   7.530 -0.3027 -0.1967 -0.0668
   66loPI   C6A 1052   4.436  12.938   7.318  0.0910  0.2784 -0.1535
   66loPI   C1B 1053   5.206  12.824   9.355  0.4080 -0.1902 -0.2129
   66loPI   C2B 1054   5.146  12.856   8.898  0.0011 -0.2668 -0.2321
   66loPI   C3B 1055   5.160  12.954   8.458  0.1303 -0.0903 -0.1118
   66loPI   C4B 1056   5.125  12.765   7.980 -0.1168 -0.2547 -0.0051
   67loPI    C1 1057  11.826   1.549  11.085 -0.1842  0.0784 -0.2353
   67loPI    C2 1058  11.649   1.887  10.965 -0.1885  0.2090  0.1271
   67loPI    C3 1059  11.562   1.732  11.324  0.0699  0.0100  0.1063
   67loPI   PO4 1060  11.899   1.375  10.895 -0.0551 -0.4372 -0.1991
   67loPI   GL1 1061  12.144   1.319  10.489  0.0822  0.2499 -0.4080
   67loPI   GL2 1062  12.053   1.079  10.540 -0.1089 -0.0837 -0.1489
   67loPI   C1A 1063  12.259   1.487  10.160 -0.1939  0.0321  0.1421
   67loPI   C2A 1064  12.218   1.469   9.703  0.0042  0.0735 -0.0113
   67loPI   C3A 1065  12.254   1.444   9.317  0.3584 -0.0524  0.4181
   67loPI   C4A 1066  12.174   1.431   8.951 -0.0542 -0.0157 -0.1993
   67loPI   C5A 1067  12.230   1.357   8.446 -0.1869  0.1044 -0.1995
   67loPI   C6A 1068  12.295   1.067   8.031  0.3427  0.2511  0.2267
   67loPI   C1B 1069  11.933   1.053  10.130  0.3348 -0.0818 -0.0756
   67loPI   C2B 1070  12.018   0.986   9.591  0.1740  0.1209 -0.1756
   67loPI   C3B 1071  11.932   1.000   9.181  0.1714 -0.1999  0.1080
   67loPI   C4B 1072  11.898   1.013   8.803  0.1565 -0.1141  0.2681
   68loPI    C1 1073  13.212   7.706  11.315  0.1072  0.2763 -0.0401
   68loPI    C2 1074  12.935   7.915  11.514 -0.1025 -0.0022 -0.0331
   68loPI    C3 1075  13.200   7.691  11.714 -0.1751 -0.1103 -0.0572
   68loPI   PO4 1076  13.159   7.539  11.026  0.2754 -0.0610  0.1711
   68loPI   GL1 1077  12.950   7.585  10.630 -0.0035  0.0941 -0.3537
   68loPI   GL2 1078  12.938   7.822  10.516 -0.1847  0.0729  0.3832
   68loPI   C1A 1079  13.175   7.319  10.309 -0.0146 -0.0605 -0.3040
   68loPI   C2A 1080  13.305   7.319   9.898  0.0072  0.1343 -0.0989
   68loPI   C3A 1081  13.386   7.212   9.517  0.2929 -0.1421  0.2039
   68loPI   C4A 1082  13.276   7.136   9.000 -0.2521 -0.1798  0.0291
   68loPI   C5A 1083  13.325   7.255   8.636 -0.1450 -0.2046 -0.1015
   68loPI   C6A 1084  13.322   7.623   8.376 -0.1172 -0.0910 -0.0863
   68loPI   C1B 1085  12.944   7.682  10.112 -0.0700 -0.0714  0.1170
   68loPI   C2B 1086  13.051   7.654   9.676 -0.2704  0.3931  0.0706
   68loPI   C3B 1087  13.071   7.683   9.223  0.1958 -0.1847 -0.1286
   68loPI   C4B 1088  13.018   7.619   8.807  0.2427  0.2680  0.0037
   69loPI    C1 1089  10.664   4.555  11.323  0.2328 -0.1427  0.0755
   69loPI    C2 1090  10.741   4.732  11.673  0.2175 -0.1366  0.0757
   69loPI    C3 1091  10.835   4.347  11.618 -0.2645 -0.2893  0.2702
   69loPI   PO4 1092  10.690   4.684  11.149 -0.0020  0.2966  0.1012
   69loPI   GL1 1093  10.683   4.542  10.705  0.3214  0.0014 -0.2282
   69loPI   GL2 1094  10.623   4.852  10.528 -0.0452  0.1583 -0.0559
   69loPI   C1A 1095  10.852   4.341  10.344 -0.1281 -0.2318 -0.3591
   69loPI   C2A 1096  10.824   4.310   9.954  0.1155  0.1453  0.0589
   69loPI   C3A 1097  10.805   4.278   9.504 -0.0133 -0.1186 -0.1335
   69loPI   C4A 1098  10.816   4.209   9.071  0.2277 -0.2736 -0.0502
   69loPI   C5A 1099  10.564   4.350   8.768 -0.0299 -0.1578 -0.0268
   69loPI   C6A 1100  10.218   4.365   8.747 -0.1794 -0.1405  0.1075
   69loPI   C1B 1101  10.556   4.702  10.042 -0.2761  0.1326 -0.2492
   69loPI   C2B 1102  10.530   4.755   9.598 -0.1347 -0.0226 -0.1482
   69loPI   C3B 1103  10.469   4.818   9.083  0.1753 -0.0983  0.0496
   69loPI   C4B 1104  10.566   4.848   8.612  0.0605 -0.0020  0.0182
   70loPI    C1 1105   5.753   6.603  11.132 -0.0190 -0.1039  0.0741
   70loPI    C2 1106   5.706   6.811  11.471 -0.1397  0.0715 -0.0485
   70loPI    C3 1107   5.668   6.413  11.474 -0.2032  0.0780  0.1317
   70loPI   PO4 1108   5.714   6.855  10.977 -0.1215  0.2405  0.0246
   70loPI   GL1 1109   5.853   6.947  10.568 -0.1157  0.2954 -0.0715
   70loPI   GL2 1110   5.823   6.704  10.458 -0.3731 -0.0291  0.1707
   70loPI   C1A 1111   5.628   7.074  10.194 -0.2760  0.3312 -0.1058
   70loPI   C2A 1112   5.599   7.075   9.780 -0.0273 -0.2445  0.1853
   70loPI   C3A 1113   5.637   7.162   9.372 -0.3350 -0.0020 -0.1443
   70loPI   C4A 1114   5.557   7.033   8.985  0.1131  0.1615 -0.4798
   70loPI   C5A 1115   5.566   7.052   8.529 -0.3042 -0.2994 -0.0140
   70loPI   C6A 1116   5.855   7.050   8.288  0.1264 -0.0638  0.0733
   70loPI   C1B 1117   5.780   6.625  10.066  0.2025  0.2942  0.0849
   70loPI   C2B 1118   5.827   6.621   9.779 -0.0163 -0.2929 -0.0462
   70loPI   C3B 1119   5.835   6.587   9.339 -0.1227 -0.0365 -0.1480
   70loPI   C4B 1120   5.816   6.644   8.858  0.3074  0.2361 -0.1842
   71loPI    C1 1121  17.327   1.481  11.535 -0.0905  0.0342 -0.1085
   71loPI    C2 1122  17.340   1.624  11.909  0.1251  0.0546 -0.1226
   71loPI    C3 1123  17.086   1.329  11.816  0.0496  0.0702  0.0326
   71loPI   PO4 1124  17.317   1.681  11.359  0.1583 -0.2959  0.1362
   71loPI   GL1 1125  17.156   1.836  10.930 -0.2248  0.0615  0.0716
   71loPI   GL2 1126  17.483   1.755  10.874 -0.0858 -0.1976 -0.0684
   71loPI   C1A 1127  17.371   2.094  10.543  0.2077 -0.0184 -0.2261
   71loPI   C2A 1128  17.497   2.191  10.124 -0.0035  0.0839  0.5668
   71loPI   C3A 1129  17.415   2.100   9.786 -0.1776  0.1910  0.1988
   71loPI   C4A 1130  17.333   2.021   9.399 -0.0463  0.2664 -0.3414
   71loPI   C5A 1131  17.313   2.092   8.949  0.1785 -0.0749  0.2224
   71loPI   C6A 1132  17.412   2.453   8.672 -0.0201  0.0692  0.0590
   71loPI   C1B 1133  17.653   1.720  10.399 -0.0522  0.0816 -0.0338
   71loPI   C2B 1134  17.678   1.669   9.975 -0.0965 -0.1730 -0.1253
   71loPI   C3B 1135  17.678   1.649   9.560  0.0917 -0.0911  0.1050
   71loPI   C4B 1136  17.535   1.657   9.097  0.4419 -0.2193  0.1921
   72loPI    C1 1137   4.038   8.763  10.577  0.2105  0.0976  0.1507
   72loPI    C2 1138   4.054   8.516  10.891 -0.0491 -0.0903  0.0206
   72loPI    C3 1139   3.888   8.878  10.930  0.1614 -0.0071  0.1646
   72loPI   PO4 1140   4.110   8.558  10.392  0.0956  0.0860 -0.1747
   72loPI   GL1 1141   4.304   8.522   9.999 -0.1485 -0.0874 -0.1637
   72loPI   GL2 1142   4.493   8.378  10.193 -0.0198 -0.1552 -0.0607
   72loPI   C1A 1143   4.355   8.460   9.599 -0.1225 -0.0419 -0.0205
   72loPI   C2A 1144   4.343   8.382   9.164 -0.2223 -0.0589 -0.0265
   72loPI   C3A 1145   4.344   8.404   8.730  0.3186 -0.1472 -0.1050
   72loPI   C4A 1146   4.407   8.387   8.307 -0.2914 -0.1649  0.1416
   72loPI   C5A 1147   4.103   8.605   7.925 -0.0052  0.1304 -0.1971
   72loPI   C6A 1148   4.012   8.504   7.527 -0.4220 -0.0880  0.2539
   72loPI   C1B 1149   4.621   8.065   9.804 -0.1252  0.0032 -0.1678
   72loPI   C2B 1150   4.549   8.025   9.406  0.0378  0.2809 -0.0331
   72loPI   C3B 1151   4.586   7.987   8.950 -0.0394 -0.0196  0.1550
   72loPI   C4B 1152   4.511   7.975   8.533 -0.0075  0.2450 -0.3023
   73loPI    C1 1153  15.044  16.491  11.171  0.0864 -0.1565  0.0139
   73loPI    C2 1154  15.015  16.176  11.416  0.2812 -0.0043  0.2373
   73loPI    C3 1155  15.365  16.364  11.373  0.2461 -0.0211 -0.1519
   73loPI   PO4 1156  14.942  16.457  10.987 -0.1951 -0.2524 -0.0177
   73loPI   GL1 1157  14.823  16.452  10.598 -0.1371 -0.2360  0.0263
   73loPI   GL2 1158  15.173  16.449  10.435 -0.0496 -0.1078 -0.0377
   73loPI   C1A 1159  14.701  16.501  10.239  0.2656 -0.1083  0.0158
   73loPI   C2A 1160  14.729  16.499   9.871  0.0184 -0.0727 -0.0818
   73loPI   C3A 1161  14.706  16.571   9.373 -0.1698  0.1231 -0.2145
   73loPI   C4A 1162  14.655  16.469   8.945  0.0121  0.0240 -0.2550
   73loPI   C5A 1163  14.580  16.619   8.463  0.1244 -0.1302 -0.0594
   73loPI   C6A 1164  14.254  16.396   8.153 -0.1665  0.3584  0.1144
   73loPI   C1B 1165  15.259  16.452   9.969  0.0332 -0.2797  0.0220
   73loPI   C2B 1166  15.316  16.405   9.472  0.2233 -0.3086  0.0461
   73loPI   C3B 1167  15.159  16.438   9.086  0.0203  0.0129  0.1063
   73loPI   C4B 1168  15.172  16.416   8.598  0.0158  0.1811 -0.1819
   74loPI    C1 1169   8.665  16.990  10.623  0.1929 -0.0853 -0.1167
   74loPI    C2 1170   9.021  17.099  10.768  0.0422 -0.0879  0.2646
   74loPI    C3 1171   8.686  17.195  10.965 -0.1865  0.1078 -0.2036
   74loPI   PO4 1172   8.635  17.038  10.350 -0.1530 -0.0473  0.4428
   74loPI   GL1 1173   8.641  16.895   9.998 -0.0821 -0.0317  0.1201
   74loPI   GL2 1174   8.960  16.728   9.954 -0.1424  0.1816 -0.0666
   74loPI   C1A 1175   8.671  17.113   9.579 -0.3332  0.0661 -0.1208
   74loPI   C2A 1176   8.580  17.169   9.132 -0.0582 -0.0204 -0.0351
   74loPI   C3A 1177   8.660  17.157   8.698 -0.0447 -0.1303  0.0186
   74loPI   C4A 1178   8.630  17.272   8.326 -0.2623  0.2096 -0.2622
   74loPI   C5A 1179   8.888  17.502   8.104  0.0685 -0.0766  0.2594
   74loPI   C6A 1180   9.215  17.654   7.812 -0.0529  0.0491 -0.1131
   74loPI   C1B 1181   8.926  16.671   9.572  0.0486  0.1806  0.2635
   74loPI   C2B 1182   8.925  16.565   9.066 -0.1572 -0.1838  0.1281
   74loPI   C3B 1183   8.972  16.739   8.574 -0.0119 -0.0431 -0.1128
   74loPI   C4B 1184   9.410  16.703   8.391 -0.3036  0.0985 -0.3178
   75loPI    C1 1185  13.304   9.197  11.095  0.1866  0.0004  0.1723
   75loPI    C2 1186  13.098   9.521  11.208  0.1112 -0.0514  0.1846
   75loPI    C3 1187  13.287   9.298  11.481  0.0675 -0.0825  0.1896
   75loPI   PO4 1188  13.217   9.057  10.960 -0.1165 -0.0689 -0.0021
   75loPI   GL1 1189  13.053   9.091  10.573  0.1955 -0.0418 -0.1129
   75loPI   GL2 1190  13.398   9.024  10.545  0.2390  0.0845 -0.0086
   75loPI   C1A 1191  12.842   9.120  10.230  0.0688 -0.2058  0.1077
   75loPI   C2A 1192  12.873   9.084   9.823  0.2494 -0.1096 -0.1140
   75loPI   C3A 1193  12.896   9.092   9.460  0.0386  0.1074 -0.0911
   75loPI   C4A 1194  12.796   9.056   8.980  0.1238  0.0023 -0.2265
   75loPI   C5A 1195  12.756   8.990   8.529 -0.0489  0.0873  0.4272
   75loPI   C6A 1196  12.567   8.728   8.240  0.3250 -0.2195  0.1291
   75loPI   C1B 1197  13.321   9.053  10.137 -0.0391  0.1885 -0.2402
   75loPI   C2B 1198  13.370   9.112   9.682  0.0342  0.0638 -0.2790
   75loPI   C3B 1199  13.344   9.038   9.278 -0.3014  0.0829 -0.0159
   75loPI   C4B 1200  13.346   8.939   8.775 -0.0167  0.0469  0.1146
   76loPI    C1 1201   9.818  17.811  10.954 -0.0848 -0.1300 -0.1090
   76loPI    C2 1202   9.438  17.847  10.836 -0.1074  0.0047  0.0013
   76loPI    C3 1203   9.554  18.004  11.185  0.1675  0.4401 -0.2767
   76loPI   PO4 1204   9.963  17.865  10.732 -0.3017  0.3781  0.1355
   76loPI   GL1 1205  10.113  17.814  10.294 -0.2317  0.0407 -0.0761
   76loPI   GL2 1206   9.877  17.800   9.986 -0.0366 -0.1545  0.0366
   76loPI   C1A 1207  10.383  17.984   9.762  0.0510 -0.0408  0.0078
   76loPI   C2A 1208  10.369  17.958   9.276 -0.2504 -0.2668 -0.2249
   76loPI   C3A 1209  10.244  18.134   8.937  0.0029  0.0015  0.0260
   76loPI   C4A 1210  10.266  18.196   8.373 -0.0901  0.0103  0.3202
   76loPI   C5A 1211   9.899  18.233   8.049 -0.4804  0.0533  0.1898
   76loPI   C6A 1212   9.559  18.041   7.924  0.1156 -0.0084 -0.2216
   76loPI   C1B 1213  10.072  17.619   9.586  0.0718  0.1303 -0.1506
   76loPI   C2B 1214  10.084  17.506   9.155  0.3600  0.2633  0.0988
   76loPI   C3B 1215  10.029  17.643   8.758 -0.0613 -0.0892 -0.1698
   76loPI   C4B 1216   9.839  17.751   8.326  0.0115  0.1872  0.0549
   77loPI    C1 1217   8.046  10.048  10.926 -0.0054 -0.0330  0.0829
   77loPI    C2 1218   7.741  10.286  11.028  0.2440  0.3421 -0.0207
   77loPI    C3 1219   7.908  10.046  11.302  0.0286  0.3291  0.1018
   77loPI   PO4 1220   8.148  10.190  10.706  0.0585 -0.3156  0.0179
   77loPI   GL1 1221   8.017  10.283  10.318 -0.1083  0.0667 -0.2396
   77loPI   GL2 1222   8.308  10.422  10.287 -0.0028  0.1641  0.2486
   77loPI   C1A 1223   7.863  10.443   9.858  0.1472 -0.0656  0.0912
   77loPI   C2A 1224   7.862  10.406   9.419  0.0941  0.0072 -0.0084
   77loPI   C3A 1225   7.798  10.452   8.967 -0.2105  0.0632  0.0712
   77loPI   C4A 1226   7.854  10.392   8.514  0.1140 -0.0410  0.1481
   77loPI   C5A 1227   7.987  10.463   8.059  0.2923  0.1435 -0.0945
   77loPI   C6A 1228   7.982  10.823   7.927 -0.0533 -0.1803 -0.1051
   77loPI   C1B 1229   8.401  10.329   9.845 -0.2405  0.0303 -0.0125
   77loPI   C2B 1230   8.399  10.437   9.418  0.1249 -0.1972  0.0592
   77loPI   C3B 1231   8.328  10.438   9.002 -0.2954 -0.3157  0.0348
   77loPI   C4B 1232   8.316  10.423   8.449 -0.5915 -0.1045 -0.1017
   78loPI    C1 1233   5.562  16.442  11.111  0.1530 -0.2985 -0.2145
   78loPI    C2 1234   5.693  16.089  11.247  0.2314 -0.1594  0.0798
   78loPI    C3 1235   5.952  16.354  11.096  0.2265 -0.0747  0.2179
   78loPI   PO4 1236   5.448  16.406  10.907 -0.0495  0.1762  0.2031
   78loPI   GL1 1237   5.541  16.289  10.419 -0.0115  0.1536 -0.0466
   78loPI   GL2 1238   5.836  16.486  10.406 -0.0835 -0.1375  0.3455
   78loPI   C1A 1239   5.475  16.422  10.091  0.1641 -0.0798  0.2598
   78loPI   C2A 1240   5.412  16.414   9.670  0.4649  0.2380  0.2129
   78loPI   C3A 1241   5.410  16.378   9.196  0.4267  0.1081  0.0187
   78loPI   C4A 1242   5.397  16.417   8.711 -0.2385 -0.2307  0.1597
   78loPI   C5A 1243   5.115  16.394   8.428 -0.2075  0.0929 -0.0379
   78loPI   C6A 1244   4.720  16.276   8.533 -0.2863  0.1707  0.2956
   78loPI   C1B 1245   5.746  16.853  10.090  0.3693  0.1463  0.0884
   78loPI   C2B 1246   5.684  16.829   9.744  0.0060 -0.0796  0.0063
   78loPI   C3B 1247   5.663  16.784   9.306  0.0793  0.0613  0.0400
   78loPI   C4B 1248   5.647  16.868   8.882 -0.0204  0.0728 -0.3773
   79loPI    C1 1249  17.003   3.767  11.431 -0.0584  0.0885  0.0718
   79loPI    C2 1250  17.259   3.462  11.464 -0.1445 -0.0160 -0.1951
   79loPI    C3 1251  17.168   3.683  11.785  0.1249 -0.1016 -0.0566
   79loPI   PO4 1252  16.917   3.770  11.191  0.0927 -0.0112 -0.0703
   79loPI   GL1 1253  16.770   3.818  10.863 -0.0169  0.4213 -0.1207
   79loPI   GL2 1254  16.457   3.900  10.746  0.1693 -0.1562  0.0006
   79loPI   C1A 1255  17.072   3.856  10.505 -0.2221  0.2801 -0.1322
   79loPI   C2A 1256  17.130   3.934  10.072  0.0374 -0.2143  0.0286
   79loPI   C3A 1257  17.004   3.896   9.583 -0.0304 -0.0601  0.2372
   79loPI   C4A 1258  16.921   3.933   9.142  0.3541  0.3529  0.2687
   79loPI   C5A 1259  16.848   3.958   8.748  0.2885  0.1151  0.1432
   79loPI   C6A 1260  16.819   4.303   8.465 -0.1768  0.0423  0.2449
   79loPI   C1B 1261  16.527   3.927  10.384 -0.0892  0.3757  0.0981
   79loPI   C2B 1262  16.487   3.929   9.900  0.0165  0.0302 -0.1837
   79loPI   C3B 1263  16.430   3.913   9.519 -0.0797 -0.2227 -0.1631
   79loPI   C4B 1264  16.378   3.892   9.101 -0.1770 -0.3576 -0.0076
   80loPI    C1 1265   0.181   3.983  11.231 -0.2072  0.1012  0.0445
   80loPI    C2 1266   0.578   3.998  11.185 -0.1658 -0.2179  0.2588
   80loPI    C3 1267   0.386   4.298  11.366 -0.0955  0.1786 -0.2961
   80loPI   PO4 1268   0.118   3.912  10.932  0.0116 -0.1140 -0.1835
   80loPI   GL1 1269   0.322   3.910  10.657 -0.1594  0.2318  0.2650
   80loPI   GL2 1270   0.703   3.820  10.716  0.2548  0.0907 -0.1059
   80loPI   C1A 1271   0.260   3.832  10.305  0.2912 -0.1477 -0.1917
   80loPI   C2A 1272   0.269   3.860   9.909 -0.1099  0.0723  0.0042
   80loPI   C3A 1273   0.150   3.728   9.463 -0.1738 -0.1253 -0.0732
   80loPI   C4A 1274   0.114   3.815   9.054 -0.0243  0.3386 -0.0043
   80loPI   C5A 1275   0.028   3.854   8.705  0.0227 -0.2340  0.2203
   80loPI   C6A 1276   0.138   3.815   8.231 -0.4285  0.0868  0.1583
   80loPI   C1B 1277   0.780   3.792  10.206  0.2685 -0.0840 -0.0157
   80loPI   C2B 1278   0.754   3.746   9.739 -0.0592  0.1760  0.2234
   80loPI   C3B 1279   0.690   3.704   9.350  0.0207  0.1536  0.0823
   80loPI   C4B 1280   0.622   3.745   8.849 -0.0410 -0.3509  0.0139
   81loPI    C1 1281  10.339  14.927  10.683 -0.1835  0.0230 -0.3517
   81loPI    C2 1282  10.159  14.584  10.582 -0.0314 -0.1903  0.0784
   81loPI    C3 1283  10.046  14.780  10.913 -0.0096  0.0949 -0.0796
   81loPI   PO4 1284  10.287  15.144  10.493  0.1030  0.0647  0.1064
   81loPI   GL1 1285  10.455  15.115  10.015 -0.5179 -0.1929 -0.0691
   81loPI   GL2 1286  10.279  14.869  10.143 -0.2550 -0.2102 -0.0000
   81loPI   C1A 1287  10.663  15.257   9.624 -0.0823  0.2077 -0.1592
   81loPI   C2A 1288  10.575  15.106   9.265  0.0176  0.1840 -0.2597
   81loPI   C3A 1289  10.647  15.153   8.891  0.1352 -0.1581 -0.0333
   81loPI   C4A 1290  10.711  15.238   8.477  0.1534  0.0092  0.1258
   81loPI   C5A 1291  10.477  15.306   8.083 -0.0011  0.1265  0.2002
   81loPI   C6A 1292  10.167  15.048   8.062  0.1466  0.0170  0.1730
   81loPI   C1B 1293  10.442  14.770   9.712 -0.1850  0.3585 -0.0279
   81loPI   C2B 1294  10.564  14.612   9.361 -0.0613  0.0761 -0.1557
   81loPI   C3B 1295  10.734  14.700   9.083 -0.2001  0.1195 -0.3389
   81loPI   C4B 1296  11.002  14.761   8.705  0.2111  0.1068 -0.0883
   82loPI    C1 1297   8.966   3.496  11.146  0.2890 -0.0965 -0.0533
   82loPI    C2 1298   9.090   3.137  11.272  0.1949 -0.1742 -0.1799
   82loPI    C3 1299   9.079   3.445  11.526 -0.0632 -0.3471  0.0226
   82loPI   PO4 1300   9.054   3.558  10.878  0.1550 -0.0095 -0.3422
   82loPI   GL1 1301   9.223   3.688  10.452  0.0002  0.1676 -0.1357
   82loPI   GL2 1302   9.190   3.353  10.470  0.0235  0.0927  0.0497
   82loPI   C1A 1303   9.479   3.905  10.196  0.1566 -0.1588  0.2733
   82loPI   C2A 1304   9.499   3.902   9.767  0.0705  0.2377  0.3036
   82loPI   C3A 1305   9.424   3.916   9.371  0.3222  0.2997  0.0526
   82loPI   C4A 1306   9.507   3.866   8.906  0.0410  0.0658 -0.2180
   82loPI   C5A 1307   9.450   3.801   8.517  0.1416  0.4004 -0.0351
   82loPI   C6A 1308   9.530   3.582   8.279  0.1031  0.1396 -0.0776
   82loPI   C1B 1309   9.151   3.551   9.953  0.0152 -0.1837 -0.0937
   82loPI   C2B 1310   9.137   3.491   9.496 -0.0370 -0.1423  0.1402
   82loPI   C3B 1311   9.243   3.459   9.087 -0.0155  0.2181  0.2988
   82loPI   C4B 1312   9.165   3.379   8.686 -0.1538 -0.0183  0.0015
   83loPI    C1 1313  13.133   8.136  11.067 -0.0389  0.0108 -0.1587
   83loPI    C2 1314  13.234   8.521  11.021  0.0347  0.0156  0.0369
   83loPI    C3 1315  13.156   8.376  11.386 -0.3491 -0.0680 -0.0740
   83loPI   PO4 1316  13.302   8.053  10.907 -0.0827 -0.0434  0.1840
   83loPI   GL1 1317  13.424   7.948  10.640  0.1028  0.2749  0.4032
   83loPI   GL2 1318  13.446   7.681  10.600  0.2563 -0.0116  0.2190
   83loPI   C1A 1319  13.256   8.138  10.151  0.0217  0.0797 -0.0918
   83loPI   C2A 1320  13.304   8.115   9.823  0.0109 -0.0091  0.1811
   83loPI   C3A 1321  13.395   8.069   9.371 -0.0586  0.3168  0.2486
   83loPI   C4A 1322  13.381   7.973   9.026  0.2543 -0.0469 -0.2663
   83loPI   C5A 1323  13.286   8.083   8.654 -0.0558  0.3419  0.2655
   83loPI   C6A 1324  13.141   8.491   8.510 -0.1466 -0.1379 -0.3364
   83loPI   C1B 1325  13.543   7.680  10.093 -0.1323 -0.0770 -0.2202
   83loPI   C2B 1326  13.576   7.655   9.666  0.0308 -0.0201 -0.0787
   83loPI   C3B 1327  13.610   7.604   9.244 -0.1704 -0.1512  0.1736
   83loPI   C4B 1328  13.641   7.577   8.839  0.1094 -0.0754  0.2493
   84loPI    C1 1329   1.229  16.770  10.994 -0.0854 -0.1061  0.1062
   84loPI    C2 1330   1.526  16.967  11.176 -0.1980  0.1167  0.0522
   84loPI    C3 1331   1.164  16.950  11.346 -0.1795 -0.0771  0.0743
   84loPI   PO4 1332   1.224  16.867  10.796 -0.0276  0.2231  0.6261
   84loPI   GL1 1333   1.132  17.107  10.405  0.0519 -0.0041  0.0240
   84loPI   GL2 1334   1.359  17.295  10.311  0.0166 -0.0887 -0.0591
   84loPI   C1A 1335   1.107  16.982  10.022 -0.4203  0.0963 -0.0169
   84loPI   C2A 1336   1.037  17.017   9.622  0.1737  0.1844  0.1330
   84loPI   C3A 1337   1.069  17.127   9.219  0.1868  0.0737  0.1739
   84loPI   C4A 1338   1.071  17.149   8.806  0.0207  0.0561 -0.2697
   84loPI   C5A 1339   1.074  17.224   8.436  0.2655  0.0267  0.3589
   84loPI   C6A 1340   1.167  17.450   8.081  0.2300  0.0146  0.0531
   84loPI   C1B 1341   1.381  17.478   9.902  0.1208 -0.0546 -0.2504
   84loPI   C2B 1342   1.319  17.539   9.475 -0.0495  0.1050  0.0814
   84loPI   C3B 1343   1.320  17.520   9.049 -0.0361 -0.2563  0.2083
   84loPI   C4B 1344   1.299  17.616   8.675 -0.0398 -0.1386  0.1996
   85loPI    C1 1345   7.096  17.657  10.934  0.1358  0.0513  0.0166
   85loPI    C2 1346   7.032  17.544  11.312 -0.0283  0.2788  0.0594
   85loPI    C3 1347   7.379  17.456  11.133 -0.0422 -0.0388  0.1818
   85loPI   PO4 1348   6.819  17.686  10.889 -0.1740 -0.2839  0.0683
   85loPI   GL1 1349   6.661  17.777  10.503  0.1355 -0.0378  0.0438
   85loPI   GL2 1350   6.322  17.854  10.463 -0.0888  0.0102 -0.0113
   85loPI   C1A 1351   6.809  17.744  10.099 -0.1081 -0.0123 -0.0572
   85loPI   C2A 1352   6.761  17.677   9.717 -0.1300  0.3929  0.0855
   85loPI   C3A 1353   6.820  17.625   9.297  0.2045  0.4318 -0.0559
   85loPI   C4A 1354   6.851  17.605   8.848 -0.3439  0.1659 -0.1351
   85loPI   C5A 1355   6.726  17.564   8.435  0.2963  0.3070  0.0200
   85loPI   C6A 1356   6.612  17.547   7.968  0.2437  0.2447 -0.0085
   85loPI   C1B 1357   6.277  17.677  10.018 -0.0717  0.3026  0.0717
   85loPI   C2B 1358   6.151  17.778   9.633 -0.2328  0.1173 -0.1796
   85loPI   C3B 1359   6.211  17.647   9.251  0.1127 -0.1820  0.0489
   85loPI   C4B 1360   6.318  17.663   8.782 -0.2634  0.1044  0.2134
   86loPI    C1 1361   4.526  17.715  11.510 -0.0216 -0.2617  0.0705
   86loPI    C2 1362   4.886  17.715  11.335 -0.0677  0.1594 -0.0363
   86loPI    C3 1363   4.751  18.046  11.513 -0.3317 -0.0477  0.1569
   86loPI   PO4 1364   4.396  17.599  11.297 -0.3534 -0.1306 -0.0805
   86loPI   GL1 1365   4.534  17.711  10.959 -0.2689 -0.2645 -0.0403
   86loPI   GL2 1366   4.270  17.776  10.840  0.1909 -0.3544  0.0422
   86loPI   C1A 1367   4.714  17.802  10.569  0.2816 -0.4643  0.1733
   86loPI   C2A 1368   4.599  17.797  10.145 -0.1432 -0.0926 -0.0503
   86loPI   C3A 1369   4.680  17.753   9.671 -0.0511  0.0429  0.1660
   86loPI   C4A 1370   4.760  17.856   9.295 -0.2366  0.2243 -0.0296
   86loPI   C5A 1371   4.633  17.812   8.874 -0.2804 -0.2824 -0.0369
   86loPI   C6A 1372   4.313  17.716   8.557 -0.0520 -0.1641  0.1013
   86loPI   C1B 1373   4.188  17.785  10.408  0.1138 -0.1230  0.0275
   86loPI   C2B 1374   4.113  17.892  10.039  0.0773 -0.0948 -0.2045
   86loPI   C3B 1375   4.192  17.876   9.611 -0.2055  0.1207 -0.0119
   86loPI   C4B 1376   4.174  17.841   9.115  0.2225  0.0186 -0.0907
   87loPI    C1 1377  10.403   8.024  11.121 -0.0725 -0.3534  0.2311
   87loPI    C2 1378  10.029   8.062  11.259 -0.0661 -0.0423  0.1699
   87loPI    C3 1379  10.339   8.148  11.496 -0.0442  0.0866  0.0953
   87loPI   PO4 1380  10.431   7.985  10.879 -0.0212 -0.0476  0.1691
   87loPI   GL1 1381  10.385   8.110  10.548  0.1361  0.1691 -0.3263
   87loPI   GL2 1382  10.562   8.037  10.271 -0.1004 -0.2221  0.2394
   87loPI   C1A 1383  10.053   8.055  10.234 -0.0463  0.2117  0.3116
   87loPI   C2A 1384   9.979   7.969   9.798 -0.0947  0.3468  0.1198
   87loPI   C3A 1385   9.925   7.995   9.339  0.3100  0.0274 -0.0107
   87loPI   C4A 1386   9.917   7.959   8.867  0.1081 -0.1793  0.1511
   87loPI   C5A 1387   9.912   7.757   8.416  0.1212  0.0282  0.0990
   87loPI   C6A 1388   9.801   7.770   7.975 -0.3245 -0.1085 -0.0980
   87loPI   C1B 1389  10.491   7.939   9.872 -0.0390  0.0441 -0.1286
   87loPI   C2B 1390  10.408   7.927   9.493  0.0455 -0.1751  0.1939
   87loPI   C3B 1391  10.451   7.887   9.125  0.0297 -0.1803 -0.0535
   87loPI   C4B 1392  10.399   7.932   8.704  0.1269 -0.0671  0.0709
   88loPI    C1 1393   5.256  13.163  10.704 -0.0010 -0.1049 -0.2282
   88loPI    C2 1394   5.146  12.791  10.800 -0.1326 -0.0178 -0.0356
   88loPI    C3 1395   5.187  13.068  11.086  0.3000  0.0300 -0.1369
   88loPI   PO4 1396   5.129  13.216  10.457 -0.1853 -0.3089  0.0438
   88loPI   GL1 1397   5.007  13.630  10.159 -0.0243  0.0817 -0.0438
   88loPI   GL2 1398   4.736  13.808  10.159 -0.0939  0.0057 -0.2313
   88loPI   C1A 1399   5.274  13.741   9.792 -0.2789 -0.0628  0.2986
   88loPI   C2A 1400   5.295  13.714   9.325  0.1546 -0.2879  0.0535
   88loPI   C3A 1401   5.279  13.755   8.951 -0.0473  0.1350  0.2051
   88loPI   C4A 1402   5.266  13.750   8.479 -0.1100  0.1501  0.1078
   88loPI   C5A 1403   5.637  13.704   8.139 -0.1238  0.3918  0.0719
   88loPI   C6A 1404   5.668  13.492   7.726  0.1854  0.0980 -0.0493
   88loPI   C1B 1405   4.755  13.766   9.686  0.2625  0.0818 -0.0199
   88loPI   C2B 1406   4.762  13.754   9.299 -0.0471  0.2305 -0.1648
   88loPI   C3B 1407   4.689  13.762   8.811 -0.0624 -0.0711 -0.0168
   88loPI   C4B 1408   4.665  13.943   8.365  0.1228  0.0691  0.1096
   89loPI    C1 1409  16.632  12.717  10.785  0.3480 -0.2268 -0.3360
   89loPI    C2 1410  16.724  12.569  11.145 -0.0216  0.0595 -0.1170
   89loPI    C3 1411  16.436  12.398  10.927 -0.0071  0.0694 -0.1438
   89loPI   PO4 1412  16.937  12.760  10.689  0.2313  0.0205 -0.3158
   89loPI   GL1 1413  16.928  12.783  10.221  0.3203  0.1923 -0.2775
   89loPI   GL2 1414  16.934  13.053  10.191 -0.3418  0.1038  0.0411
   89loPI   C1A 1415  17.034  12.674   9.795  0.0458 -0.0227  0.0310
   89loPI   C2A 1416  17.049  12.776   9.271  0.1976  0.2038 -0.2702
   89loPI   C3A 1417  17.077  12.723   8.894 -0.0891 -0.0986  0.2402
   89loPI   C4A 1418  17.086  12.823   8.518 -0.0897  0.1309 -0.5423
   89loPI   C5A 1419  17.122  12.816   8.019 -0.2575  0.3335  0.2737
   89loPI   C6A 1420  17.081  13.068   7.606 -0.2094  0.1978  0.0124
   89loPI   C1B 1421  16.787  13.261   9.757 -0.1586  0.3214  0.2512
   89loPI   C2B 1422  16.875  13.277   9.340  0.2408  0.0239 -0.5951
   89loPI   C3B 1423  16.888  13.228   8.892 -0.0234 -0.0177 -0.0604
   89loPI   C4B 1424  16.901  13.386   8.485  0.2343 -0.0207  0.0651
   90loPI    C1 1425  12.828   4.501  11.520  0.0255  0.0645  0.1333
   90loPI    C2 1426  13.206   4.442  11.634  0.0265  0.0049  0.0993
   90loPI    C3 1427  12.907   4.273  11.839  0.0161  0.0859  0.1509
   90loPI   PO4 1428  12.855   4.421  11.233 -0.1739 -0.0381  0.1900
   90loPI   GL1 1429  12.819   4.645  10.799 -0.0833  0.2466  0.0936
   90loPI   GL2 1430  13.085   4.626  10.716  0.0580  0.1150  0.2621
   90loPI   C1A 1431  12.640   4.613  10.425  0.1182  0.1267 -0.0916
   90loPI   C2A 1432  12.620   4.567   9.963  0.0516  0.2730 -0.0099
   90loPI   C3A 1433  12.675   4.619   9.537  0.0246 -0.0214 -0.3584
   90loPI   C4A 1434  12.573   4.520   9.086 -0.2100  0.0089 -0.3061
   90loPI   C5A 1435  12.554   4.625   8.630 -0.1425  0.1312  0.3326
   90loPI   C6A 1436  12.319   4.304   8.477  0.1170 -0.0136 -0.1297
   90loPI   C1B 1437  13.167   4.470  10.359  0.0533  0.0178  0.1546
   90loPI   C2B 1438  13.148   4.500   9.865  0.3133 -0.0394 -0.1310
   90loPI   C3B 1439  13.189   4.519   9.434 -0.0789 -0.2000  0.2028
   90loPI   C4B 1440  13.053   4.494   9.100 -0.2806  0.1493 -0.2289
   91loPI    C1 1441   8.468  14.690  10.595 -0.1235 -0.1393  0.1691
   91loPI    C2 1442   8.466  14.915  10.926 -0.0613 -0.1737  0.1930
   91loPI    C3 1443   8.645  14.557  10.929  0.0307 -0.1293  0.0926
   91loPI   PO4 1444   8.498  14.881  10.419  0.2957 -0.0010  0.0423
   91loPI   GL1 1445   8.277  14.974  10.132 -0.0576  0.1586  0.1536
   91loPI   GL2 1446   8.006  14.888  10.178 -0.1586  0.0782  0.1819
   91loPI   C1A 1447   8.297  14.921   9.720  0.0952  0.1618 -0.2257
   91loPI   C2A 1448   8.179  14.863   9.339 -0.1947  0.0278  0.0470
   91loPI   C3A 1449   8.194  14.856   8.962 -0.2313 -0.1089  0.1786
   91loPI   C4A 1450   8.152  14.879   8.439 -0.1787  0.3536 -0.1092
   91loPI   C5A 1451   8.036  14.956   8.030 -0.2322 -0.2806  0.0397
   91loPI   C6A 1452   8.042  15.086   7.506  0.1061  0.1638 -0.2363
   91loPI   C1B 1453   7.761  14.886   9.825  0.0358 -0.2751 -0.0796
   91loPI   C2B 1454   7.650  14.918   9.396 -0.0441 -0.1316 -0.1618
   91loPI   C3B 1455   7.662  14.895   8.922 -0.2678 -0.0238 -0.1870
   91loPI   C4B 1456   7.640  15.023   8.586  0.4164 -0.2476  0.1877
   92loPI    C1 1457   0.914   6.313  11.077 -0.0266  0.2454 -0.0173
   92loPI    C2 1458   0.951   6.659  11.275  0.0759  0.2117  0.0233
   92loPI    C3 1459   1.111   6.324  11.425 -0.0052  0.1503 -0.0261
   92loPI   PO4 1460   0.987   6.373  10.815  0.2856  0.2240 -0.1141
   92loPI   GL1 1461   1.186   6.264  10.498  0.0292 -0.0805  0.1615
   92loPI   GL2 1462   1.147   5.948  10.288 -0.2608 -0.1876  0.1525
   92loPI   C1A 1463   0.914   6.344  10.139  0.0465 -0.2103  0.1583
   92loPI   C2A 1464   0.888   6.358   9.730  0.0733  0.1389  0.3556
   92loPI   C3A 1465   0.941   6.356   9.317 -0.2606 -0.0822  0.1405
   92loPI   C4A 1466   0.895   6.357   8.840 -0.2508 -0.2158 -0.0500
   92loPI   C5A 1467   0.691   6.280   8.491  0.2125  0.1129 -0.2412
   92loPI   C6A 1468   0.307   6.256   8.354 -0.2133  0.2745 -0.0118
   92loPI   C1B 1469   1.124   5.908   9.799  0.0371 -0.2531  0.0604
   92loPI   C2B 1470   1.132   5.902   9.333 -0.0645  0.2180 -0.0209
   92loPI   C3B 1471   1.130   5.873   8.895  0.3598  0.3361 -0.1332
   92loPI   C4B 1472   0.981   5.733   8.578  0.3353 -0.3455  0.3438
   93loPI    C1 1473  12.564   8.425  11.384  0.0521 -0.0782 -0.0743
   93loPI    C2 1474  12.570   8.197  11.712  0.1243 -0.1194 -0.1040
   93loPI    C3 1475  12.757   8.550  11.711  0.1764 -0.1469 -0.1203
   93loPI   PO4 1476  12.663   8.317  11.200 -0.1037  0.0618 -0.5645
   93loPI   GL1 1477  12.642   8.197  10.747 -0.1475 -0.0447 -0.0527
   93loPI   GL2 1478  13.004   8.282  10.593 -0.0372 -0.0831  0.0712
   93loPI   C1A 1479  12.713   8.225  10.226 -0.0735  0.0636 -0.0652
   93loPI   C2A 1480  12.772   8.123   9.776  0.3476  0.1147 -0.0352
   93loPI   C3A 1481  12.835   8.131   9.356  0.2839  0.0282  0.0527
   93loPI   C4A 1482  12.806   8.016   8.943 -0.1692 -0.1026  0.3365
   93loPI   C5A 1483  12.782   8.060   8.529  0.1539  0.0936 -0.0106
   93loPI   C6A 1484  12.990   8.042   8.208 -0.1274 -0.5147 -0.0905
   93loPI   C1B 1485  12.971   8.654  10.335 -0.1482 -0.2509  0.0104
   93loPI   C2B 1486  13.060   8.636   9.829 -0.0809  0.4880 -0.2991
   93loPI   C3B 1487  13.148   8.506   9.427  0.2747  0.3135 -0.1868
   93loPI   C4B 1488  13.156   8.498   8.999  0.1462  0.0367 -0.0491
   94loPI    C1 1489   0.633   7.205  10.947  0.1354  0.1123  0.0244
   94loPI    C2 1490   0.810   7.138  11.299  0.0191  0.1981  0.0999
   94loPI    C3 1491   0.446   7.302  11.287 -0.1144 -0.1019 -0.0488
   94loPI   PO4 1492   0.671   7.169  10.685 -0.1565 -0.1369  0.0410
   94loPI   GL1 1493   0.654   7.362  10.415  0.1890 -0.0529 -0.0980
   94loPI   GL2 1494   0.346   7.281  10.228  0.1894  0.1770  0.1170
   94loPI   C1A 1495   0.814   7.290  10.016 -0.1211 -0.2964  0.1590
   94loPI   C2A 1496   0.838   7.324   9.578 -0.1120 -0.2456 -0.0566
   94loPI   C3A 1497   0.861   7.360   9.130 -0.0374  0.0026 -0.0110
   94loPI   C4A 1498   0.872   7.228   8.727 -0.1958  0.2714 -0.0625
   94loPI   C5A 1499   0.895   7.183   8.191 -0.1401 -0.1328 -0.0616
   94loPI   C6A 1500   1.069   6.965   7.962 -0.2501  0.2541 -0.1239
   94loPI   C1B 1501   0.355   7.286   9.715  0.2866  0.0496  0.0250
   94loPI   C2B 1502   0.420   7.333   9.331  0.2495 -0.1094  0.1547
   94loPI   C3B 1503   0.401   7.284   8.879 -0.1521  0.1514 -0.1316
   94loPI   C4B 1504   0.437   7.334   8.442  0.1947  0.1151 -0.0772
   95loPI    C1 1505   2.422   7.129  10.948 -0.1324 -0.2633  0.0545
   95loPI    C2 1506   2.207   6.899  11.195 -0.1134 -0.2104  0.1210
   95loPI    C3 1507   2.232   7.293  11.260 -0.1868 -0.1816 -0.0211
   95loPI   PO4 1508   2.311   7.079  10.629  0.0656 -0.2977  0.1293
   95loPI   GL1 1509   2.378   7.293  10.262 -0.1544  0.3127  0.2963
   95loPI   GL2 1510   2.058   7.284  10.151  0.1296  0.1639  0.0827
   95loPI   C1A 1511   2.498   7.209   9.914  0.1727  0.1762 -0.2217
   95loPI   C2A 1512   2.447   7.193   9.488  0.0824  0.2660  0.0018
   95loPI   C3A 1513   2.459   7.136   9.091 -0.0821 -0.0446 -0.1587
   95loPI   C4A 1514   2.466   7.210   8.642  0.0084 -0.1179  0.2034
   95loPI   C5A 1515   2.181   7.100   8.234  0.0432  0.0179 -0.0954
   95loPI   C6A 1516   1.906   7.201   7.869  0.0415  0.1636 -0.0857
   95loPI   C1B 1517   2.010   7.117   9.760  0.0491  0.1904 -0.1477
   95loPI   C2B 1518   1.951   7.098   9.309  0.1389  0.0600  0.3473
   95loPI   C3B 1519   2.006   7.181   8.909 -0.1413  0.0032  0.1658
   95loPI   C4B 1520   1.892   7.211   8.615 -0.3068 -0.0724 -0.2271
   96loPI    C1 1521  13.531   3.996  11.359 -0.1250  0.0780  0.1559
   96loPI    C2 1522  13.765   3.786  11.606 -0.1266 -0.0699  0.0333
   96loPI    C3 1523  13.456   3.994  11.752 -0.0299 -0.0233  0.1740
   96loPI   PO4 1524  13.585   3.840  11.107 -0.1610 -0.1583 -0.0071
   96loPI   GL1 1525  13.737   3.793  10.800  0.0606  0.1218  0.1746
   96loPI   GL2 1526  14.007   3.613  10.595  0.1037  0.1189 -0.0966
   96loPI   C1A 1527  13.816   4.003  10.389 -0.0428 -0.1740  0.0842
   96loPI   C2A 1528  13.873   3.998   9.957 -0.0635 -0.2401  0.0423
   96loPI   C3A 1529  13.855   4.004   9.475 -0.0886  0.1142 -0.0929
   96loPI   C4A 1530  13.792   4.059   9.071  0.0527  0.1002  0.1383
   96loPI   C5A 1531  13.881   3.913   8.683  0.1872  0.0594 -0.0235
   96loPI   C6A 1532  13.717   3.637   8.350 -0.1419 -0.0448 -0.1976
   96loPI   C1B 1533  14.122   3.607  10.144 -0.1384 -0.0188 -0.0366
   96loPI   C2B 1534  14.108   3.591   9.647 -0.1458 -0.2266 -0.1162
   96loPI   C3B 1535  14.086   3.604   9.232  0.1522  0.0196 -0.0007
   96loPI   C4B 1536  14.107   3.488   8.849  0.3002  0.3104 -0.0207
   97loPI    C1 1537   9.445  12.454  11.052 -0.0549  0.3825  0.1249
   97loPI    C2 1538   9.773  12.594  11.234  0.1647 -0.0468  0.0720
   97loPI    C3 1539   9.508  12.376  11.440 -0.0649  0.2536  0.1011
   97loPI   PO4 1540   9.524  12.426  10.794  0.2883  0.0050 -0.3034
   97loPI   GL1 1541   9.606  12.718  10.413 -0.0537 -0.1979  0.2179
   97loPI   GL2 1542   9.711  12.455  10.328 -0.2447 -0.0096  0.4238
   97loPI   C1A 1543   9.573  13.007  10.065 -0.1063  0.1443  0.1500
   97loPI   C2A 1544   9.652  12.952   9.644 -0.0169  0.1240 -0.1198
   97loPI   C3A 1545   9.516  12.884   9.223  0.1548 -0.0963 -0.2071
   97loPI   C4A 1546   9.602  12.855   8.772  0.0259 -0.3106 -0.2754
   97loPI   C5A 1547   9.389  12.807   8.468 -0.0542 -0.1252 -0.0294
   97loPI   C6A 1548   9.350  12.489   8.185 -0.3355 -0.0008 -0.1003
   97loPI   C1B 1549   9.858  12.519   9.904  0.0004  0.1738  0.2500
   97loPI   C2B 1550   9.778  12.414   9.460 -0.1652 -0.0678 -0.0214
   97loPI   C3B 1551   9.821  12.424   8.990  0.0259 -0.0673 -0.0078
   97loPI   C4B 1552   9.778  12.346   8.546 -0.1697  0.6537  0.0597
   98loPI    C1 1553   3.512   9.932  10.628  0.1360  0.0840  0.0237
   98loPI    C2 1554   3.232   9.741  10.840  0.0579  0.1994  0.0259
   98loPI    C3 1555   3.545   9.906  11.026  0.0475  0.2037  0.0396
   98loPI   PO4 1556   3.579   9.738  10.430 -0.1822 -0.4110  0.1330
   98loPI   GL1 1557   3.466   9.594  10.009 -0.3854  0.0191  0.0584
   98loPI   GL2 1558   3.652   9.376   9.983 -0.4199  0.3842  0.0636
   98loPI   C1A 1559   3.349   9.412   9.564 -0.1410 -0.3864  0.3616
   98loPI   C2A 1560   3.370   9.394   9.128 -0.0313  0.1531 -0.1653
   98loPI   C3A 1561   3.498   9.361   8.720 -0.1359 -0.0325 -0.0144
   98loPI   C4A 1562   3.427   9.306   8.331  0.0654 -0.0382 -0.0379
   98loPI   C5A 1563   3.431   9.141   7.936 -0.1589 -0.2031  0.2375
   98loPI   C6A 1564   3.780   8.956   7.664 -0.1218 -0.2418  0.2794
   98loPI   C1B 1565   3.890   9.342   9.613 -0.2012 -0.1193 -0.2513
   98loPI   C2B 1566   3.914   9.422   9.175  0.3272 -0.1462  0.3834
   98loPI   C3B 1567   3.983   9.367   8.773  0.1166  0.0504 -0.0138
   98loPI   C4B 1568   3.949   9.456   8.366 -0.0191  0.1373 -0.0232
   99loPI    C1 1569   5.019   9.650  10.767 -0.1942  0.0275  0.0140
   99loPI    C2 1570   4.889   9.948  11.001  0.0049  0.0042  0.1570
   99loPI    C3 1571   4.986   9.595  11.162 -0.0961 -0.0938  0.0057
   99loPI   PO4 1572   5.215   9.813  10.621 -0.0208  0.2982  0.1535
   99loPI   GL1 1573   5.333   9.908  10.305  0.2487  0.1428  0.0865
   99loPI   GL2 1574   5.554   9.663  10.259 -0.0158 -0.0086 -0.0234
   99loPI   C1A 1575   5.228   9.724   9.903  0.2321  0.1953 -0.0657
   99loPI   C2A 1576   5.260   9.690   9.438 -0.0839 -0.3839  0.1428
   99loPI   C3A 1577   5.187   9.745   9.061  0.0646  0.1589 -0.3216
   99loPI   C4A 1578   5.232   9.710   8.667  0.4037  0.0705  0.1822
   99loPI   C5A 1579   5.086   9.714   8.202  0.0572  0.0906  0.2927
   99loPI   C6A 1580   5.007   9.615   7.792  0.0740 -0.0034 -0.1808
   99loPI   C1B 1581   5.718   9.769   9.804  0.0036  0.4337  0.0353
   99loPI   C2B 1582   5.807   9.689   9.556 -0.3579  0.0023 -0.3187
   99loPI   C3B 1583   5.731   9.676   9.139 -0.1294 -0.0605  0.3894
   99loPI   C4B 1584   5.742   9.672   8.637 -0.1074  0.0982 -0.0140
  100loPI    C1 1585  12.211   6.374  11.316 -0.2835  0.0766  0.1779
  100loPI    C2 1586  12.359   6.692  11.508 -0.1931  0.0994  0.0718
  100loPI    C3 1587  12.333   6.339  11.696  0.2383  0.0313  0.0138
  100loPI   PO4 1588  12.360   6.387  11.078  0.1872  0.0172 -0.0775
  100loPI   GL1 1589  12.582   6.618  10.713  0.0113 -0.0335  0.0421
  100loPI   GL2 1590  12.368   6.874  10.592  0.3601 -0.0014 -0.3763
  100loPI   C1A 1591  12.631   6.400  10.327 -0.3188 -0.0894 -0.0962
  100loPI   C2A 1592  12.618   6.410   9.911  0.3412 -0.0538  0.1663
  100loPI   C3A 1593  12.763   6.332   9.545 -0.0055 -0.1100  0.6430
  100loPI   C4A 1594  12.607   6.381   9.104 -0.2238  0.2219 -0.2064
  100loPI   C5A 1595  12.494   6.582   8.646  0.0470  0.4739  0.1129
  100loPI   C6A 1596  12.192   6.645   8.355  0.3483 -0.2350  0.1180
  100loPI   C1B 1597  12.426   6.821  10.205  0.0150 -0.1371 -0.2014
  100loPI   C2B 1598  12.473   6.896   9.776 -0.0897  0.1643 -0.3107
  100loPI   C3B 1599  12.430   6.791   9.425  0.1016  0.0547 -0.0930
  100loPI   C4B 1600  12.519   6.840   9.053 -0.0828  0.0475 -0.3288
  101loPI    C1 1601  12.105   3.748  11.079  0.0258  0.0152  0.0378
  101loPI    C2 1602  12.130   3.893  11.451 -0.1389  0.0275  0.0448
  101loPI    C3 1603  11.785   3.917  11.250 -0.0298  0.0902 -0.1376
  101loPI   PO4 1604  12.239   3.817  10.933 -0.0469  0.3571 -0.0995
  101loPI   GL1 1605  12.371   4.043  10.739  0.0048 -0.0928 -0.2034
  101loPI   GL2 1606  12.534   4.228  10.755 -0.1059 -0.0736  0.1533
  101loPI   C1A 1607  12.366   4.118  10.288  0.1042  0.1332 -0.0428
  101loPI   C2A 1608  12.276   4.140   9.803  0.1957  0.2427  0.1342
  101loPI   C3A 1609  12.286   4.180   9.359  0.1277  0.3097 -0.2029
  101loPI   C4A 1610  12.404   4.087   8.947 -0.0502  0.4324  0.0200
  101loPI   C5A 1611  12.816   4.194   8.739  0.0543  0.1795 -0.2618
  101loPI   C6A 1612  13.036   4.443   8.578  0.0369  0.2021 -0.0479
  101loPI   C1B 1613  12.847   4.119  10.501 -0.1014 -0.1710 -0.0146
  101loPI   C2B 1614  12.906   4.106  10.118 -0.0881  0.0947  0.2530
  101loPI   C3B 1615  12.838   4.121   9.728  0.0151 -0.1108  0.3115
  101loPI   C4B 1616  12.872   4.133   9.337  0.3524 -0.2288  0.0013
  102loPI    C1 1617   5.748  17.183  11.059  0.0016 -0.0420  0.0046
  102loPI    C2 1618   5.657  17.235  11.445  0.2790  0.0066  0.0661
  102loPI    C3 1619   5.723  16.867  11.303  0.0688 -0.0218  0.0381
  102loPI   PO4 1620   5.641  17.434  10.960  0.1902 -0.2177 -0.1623
  102loPI   GL1 1621   5.574  17.664  10.579 -0.0550  0.0934  0.0797
  102loPI   GL2 1622   5.826  17.686  10.449 -0.1012 -0.0900 -0.2938
  102loPI   C1A 1623   5.281  17.724  10.313  0.0294  0.1360  0.3602
  102loPI   C2A 1624   5.170  17.827   9.902 -0.0027  0.1080  0.0446
  102loPI   C3A 1625   5.213  17.755   9.493 -0.1743  0.0827 -0.0905
  102loPI   C4A 1626   5.234  17.744   9.071 -0.3827  0.2891 -0.0654
  102loPI   C5A 1627   5.100  17.700   8.681  0.0043 -0.0476  0.0675
  102loPI   C6A 1628   4.883  17.326   8.491 -0.0638 -0.1377  0.1314
  102loPI   C1B 1629   5.762  17.786   9.948 -0.0296 -0.1370 -0.2148
  102loPI   C2B 1630   5.725  17.710   9.427  0.0398 -0.3530  0.1557
  102loPI   C3B 1631   5.784  17.697   8.932  0.0445  0.1541 -0.0385
  102loPI   C4B 1632   5.612  17.785   8.498  0.1408  0.1658  0.1035
  103loPI    C1 1633   7.618   0.324  10.644 -0.0045 -0.0606 -0.2887
  103loPI    C2 1634   7.751   0.281  11.019 -0.0091  0.2230 -0.2531
  103loPI    C3 1635   7.630  -0.039  10.813 -0.2589  0.0964  0.0800
  103loPI   PO4 1636   7.799   0.535  10.578 -0.1097 -0.1375 -0.1858
  103loPI   GL1 1637   8.086   0.559  10.226 -0.2103  0.1148  0.2459
  103loPI   GL2 1638   7.896   0.743  10.044 -0.4019  0.5438  0.0485
  103loPI   C1A 1639   8.214   0.264   9.993 -0.1049  0.0328 -0.1184
  103loPI   C2A 1640   8.256   0.100   9.636 -0.0821  0.0700  0.1599
  103loPI   C3A 1641   8.457  -0.131   9.285  0.0943  0.2358 -0.0354
  103loPI   C4A 1642   8.390  -0.177   8.892 -0.0602  0.1176  0.0869
  103loPI   C5A 1643   8.358  -0.118   8.461 -0.0954  0.0829 -0.0567
  103loPI   C6A 1644   8.341   0.139   8.118  0.1679  0.1265  0.3448
  103loPI   C1B 1645   7.851   0.812   9.629  0.1767 -0.2473 -0.2398
  103loPI   C2B 1646   7.873   0.797   9.104  0.3359 -0.0462 -0.3425
  103loPI   C3B 1647   7.782   0.721   8.576 -0.2316 -0.0933  0.4067
  103loPI   C4B 1648   7.677   0.568   8.180 -0.0533 -0.0794  0.0271
  104loPI    C1 1649  17.550  17.720  11.152 -0.0246 -0.2594 -0.0603
  104loPI    C2 1650  17.737  18.068  11.218 -0.2941 -0.0674 -0.2849
  104loPI    C3 1651  17.516  17.902  11.507 -0.0298 -0.1404 -0.1211
  104loPI   PO4 1652  17.469  17.822  10.792  0.0081  0.1023 -0.0614
  104loPI   GL1 1653  17.661  17.816  10.468 -0.0840 -0.0683 -0.0490
  104loPI   GL2 1654  17.566  17.474  10.314 -0.0773 -0.0050 -0.1143
  104loPI   C1A 1655  17.408  18.059  10.199  0.0174 -0.2220 -0.1462
  104loPI   C2A 1656  17.390  18.183   9.807 -0.0327 -0.0710  0.3452
  104loPI   C3A 1657  17.398  18.196   9.373  0.2620 -0.1744  0.0549
  104loPI   C4A 1658  17.272  18.136   8.894 -0.3880  0.0439  0.0170
  104loPI   C5A 1659  17.402  18.221   8.463  0.0465 -0.1903  0.1310
  104loPI   C6A 1660  17.943  18.258   8.342  0.2446 -0.4378  0.0222
  104loPI   C1B 1661  17.636  17.707   9.966  0.2069 -0.1059  0.3820
  104loPI   C2B 1662  17.601  17.758   9.483  0.0766  0.0523  0.2250
  104loPI   C3B 1663  17.476  17.677   9.043  0.0580  0.1450  0.0042
  104loPI   C4B 1664  17.423  17.735   8.595  0.0330 -0.1606  0.1353
  105loPI    C1 1665   1.877   5.945  10.953  0.0139  0.1135  0.0628
  105loPI    C2 1666   1.844   6.148  11.296 -0.1314 -0.0384  0.1401
  105loPI    C3 1667   1.694   5.778  11.268  0.0598 -0.1049 -0.0246
  105loPI   PO4 1668   2.057   6.064  10.848  0.0763  0.1950  0.0537
  105loPI   GL1 1669   2.269   6.039  10.532 -0.0196 -0.0276  0.1278
  105loPI   GL2 1670   2.467   6.257  10.319  0.2146  0.2808  0.1285
  105loPI   C1A 1671   2.198   5.864  10.072 -0.1105  0.1363  0.0890
  105loPI   C2A 1672   2.121   5.838   9.669 -0.0923  0.0029  0.2860
  105loPI   C3A 1673   2.206   5.775   9.290  0.2549 -0.1707 -0.4503
  105loPI   C4A 1674   2.165   5.851   8.845  0.0144  0.2189  0.2951
  105loPI   C5A 1675   2.067   5.935   8.486 -0.1114  0.0247 -0.1399
  105loPI   C6A 1676   2.217   5.847   8.043 -0.0006 -0.1611  0.0160
  105loPI   C1B 1677   2.500   6.229   9.900 -0.0459  0.1864 -0.0011
  105loPI   C2B 1678   2.436   6.273   9.463 -0.0418  0.0861  0.0229
  105loPI   C3B 1679   2.443   6.256   9.011 -0.2993  0.2059 -0.4530
  105loPI   C4B 1680   2.392   6.281   8.668  0.1315 -0.2091  0.0363
  106loPI    C1 1681   6.929  16.360  10.889 -0.1783 -0.0560  0.1696
  106loPI    C2 1682   6.800  15.985  10.936  0.0233 -0.1368  0.0912
  106loPI    C3 1683   6.656  16.277  11.169 -0.4577 -0.1833 -0.1342
  106loPI   PO4 1684   6.857  16.439  10.582  0.1179 -0.0854  0.0505
  106loPI   GL1 1685   6.682  16.232  10.174  0.2178 -0.1684 -0.2347
  106loPI   GL2 1686   6.994  16.400  10.088 -0.1197 -0.1752 -0.0320
  106loPI   C1A 1687   6.529  16.261   9.794 -0.0222 -0.2321 -0.0988
  106loPI   C2A 1688   6.347  16.371   9.353  0.0905  0.1505  0.0426
  106loPI   C3A 1689   6.428  16.394   8.931  0.1558  0.0766  0.3420
  106loPI   C4A 1690   6.426  16.277   8.551  0.1081  0.0177  0.1655
  106loPI   C5A 1691   6.768  16.299   8.280  0.5281  0.2992 -0.0069
  106loPI   C6A 1692   7.077  16.445   8.071  0.3004 -0.1781  0.2006
  106loPI   C1B 1693   7.035  16.251   9.672 -0.0276 -0.1171 -0.0173
  106loPI   C2B 1694   6.836  16.266   9.227 -0.0061 -0.2054 -0.1217
  106loPI   C3B 1695   7.024  16.223   8.871 -0.2432 -0.4272  0.1800
  106loPI   C4B 1696   7.229  16.348   8.559 -0.0765 -0.2095 -0.0740
  107loPI    C1 1697   1.927   1.695  11.419 -0.0934  0.0482  0.0133
  107loPI    C2 1698   1.631   1.932  11.546  0.0232  0.2163 -0.0259
  107loPI    C3 1699   1.729   1.606  11.756 -0.0977  0.2350  0.0608
  107loPI   PO4 1700   1.902   1.751  11.121  0.1179  0.2041  0.4292
  107loPI   GL1 1701   1.782   1.639  10.750  0.0912 -0.0957 -0.0877
  107loPI   GL2 1702   1.570   1.445  10.491  0.1440 -0.1167 -0.1752
  107loPI   C1A 1703   1.651   1.960  10.365 -0.0626  0.3945  0.0207
  107loPI   C2A 1704   1.759   2.007   9.961 -0.0997  0.1761 -0.5374
  107loPI   C3A 1705   1.730   1.979   9.543  0.0225 -0.2208 -0.0019
  107loPI   C4A 1706   1.754   1.895   9.066 -0.0663  0.0746 -0.1228
  107loPI   C5A 1707   1.934   1.938   8.637  0.3101 -0.0330  0.0227
  107loPI   C6A 1708   1.896   1.498   8.508  0.3336  0.0201  0.1221
  107loPI   C1B 1709   1.501   1.561  10.123  0.0640  0.0465 -0.0042
  107loPI   C2B 1710   1.421   1.555   9.695  0.0894 -0.2452  0.0412
  107loPI   C3B 1711   1.504   1.487   9.272  0.2312  0.0734 -0.0760
  107loPI   C4B 1712   1.444   1.486   8.899 -0.0301  0.0902 -0.3268
  108loPI    C1 1713   6.058   5.355  11.009 -0.0512 -0.1591 -0.0208
  108loPI    C2 1714   5.823   5.236  11.310  0.0174 -0.0527  0.0756
  108loPI    C3 1715   6.218   5.180  11.331  0.0365  0.0737  0.0643
  108loPI   PO4 1716   6.103   5.571  10.980 -0.0479  0.0783  0.0792
  108loPI   GL1 1717   6.162   5.685  10.562  0.3048  0.1597  0.0744
  108loPI   GL2 1718   5.920   5.433  10.465 -0.0797 -0.2125 -0.2657
  108loPI   C1A 1719   6.162   5.698  10.077 -0.2716  0.0524  0.0303
  108loPI   C2A 1720   6.237   5.778   9.614  0.0802 -0.2254  0.2073
  108loPI   C3A 1721   6.344   5.694   9.261  0.0020 -0.0983 -0.3147
  108loPI   C4A 1722   6.234   5.673   8.949  0.0811 -0.1306  0.3449
  108loPI   C5A 1723   6.394   5.600   8.555 -0.3489  0.1399 -0.1428
  108loPI   C6A 1724   6.197   5.645   8.213  0.0874  0.0679  0.1237
  108loPI   C1B 1725   5.674   5.647  10.033  0.1345  0.1940  0.1422
  108loPI   C2B 1726   5.741   5.781   9.627  0.1429  0.0262 -0.0997
  108loPI   C3B 1727   5.801   5.687   9.211  0.0279  0.0099 -0.0705
  108loPI   C4B 1728   5.796   5.625   8.741 -0.0156  0.5674 -0.0414
  109loPI    C1 1729  16.062   5.699  11.336  0.2033 -0.1147  0.0298
  109loPI    C2 1730  16.211   6.003  11.549 -0.0224 -0.0458  0.0928
  109loPI    C3 1731  16.237   5.629  11.689  0.0434 -0.0283  0.1277
  109loPI   PO4 1732  16.093   5.716  11.140 -0.0007 -0.4861  0.0813
  109loPI   GL1 1733  16.298   5.695  10.713  0.2059  0.0661 -0.0651
  109loPI   GL2 1734  16.041   5.477  10.645 -0.0452 -0.1393 -0.0832
  109loPI   C1A 1735  16.535   5.645  10.358  0.1850 -0.0038 -0.0780
  109loPI   C2A 1736  16.566   5.600   9.971 -0.4927  0.1753 -0.1331
  109loPI   C3A 1737  16.569   5.583   9.595 -0.1290 -0.0103  0.1476
  109loPI   C4A 1738  16.578   5.706   9.258  0.4391  0.1860  0.0565
  109loPI   C5A 1739  16.648   5.729   8.777 -0.1795 -0.3143  0.2384
  109loPI   C6A 1740  16.826   6.108   8.569  0.0004 -0.0721  0.0021
  109loPI   C1B 1741  16.042   5.623  10.277 -0.0825 -0.0293 -0.1923
  109loPI   C2B 1742  16.020   5.605   9.830 -0.1573 -0.2286  0.3260
  109loPI   C3B 1743  16.015   5.649   9.359 -0.1742 -0.1731 -0.0659
  109loPI   C4B 1744  16.193   5.645   8.910 -0.0057 -0.2438  0.1415
  110loPI    C1 1745  17.815  16.235  11.065 -0.3251 -0.0919 -0.0642
  110loPI    C2 1746  17.642  16.505  11.304 -0.2415 -0.0186 -0.0857
  110loPI    C3 1747  17.739  16.144  11.447  0.0681  0.1228  0.0714
  110loPI   PO4 1748  17.742  16.279  10.864 -0.1956  0.0891 -0.2996
  110loPI   GL1 1749  17.813  16.161  10.399  0.0953  0.1531 -0.2223
  110loPI   GL2 1750  18.000  16.490  10.429  0.0634  0.2403 -0.1892
  110loPI   C1A 1751  17.803  16.370   9.984  0.1798  0.2775  0.1186
  110loPI   C2A 1752  17.799  16.242   9.560  0.0818 -0.0383 -0.1485
  110loPI   C3A 1753  17.804  16.345   9.130 -0.1079 -0.2624  0.0500
  110loPI   C4A 1754  17.814  16.326   8.706  0.1682  0.0304  0.0139
  110loPI   C5A 1755  18.007  16.429   8.456  0.0059 -0.1494 -0.0321
  110loPI   C6A 1756  18.236  16.843   8.142  0.3866 -0.1179 -0.0788
  110loPI   C1B 1757  18.146  16.753  10.018 -0.0471  0.1730 -0.3150
  110loPI   C2B 1758  18.136  16.731   9.637 -0.1893  0.0412  0.3810
  110loPI   C3B 1759  18.166  16.786   9.187  0.3953  0.0498 -0.1082
  110loPI   C4B 1760  18.165  16.853   8.713  0.0525  0.1753  0.1184
  111loPI    C1 1761   9.136   7.768  11.493  0.0769 -0.0638 -0.0851
  111loPI    C2 1762   9.304   8.053  11.267  0.1248  0.1026  0.1573
  111loPI    C3 1763   9.496   7.913  11.589 -0.0923  0.1176  0.2956
  111loPI   PO4 1764   8.984   7.646  11.206 -0.3776 -0.1906  0.1636
  111loPI   GL1 1765   9.016   7.747  10.720 -0.2195  0.0535  0.0184
  111loPI   GL2 1766   9.149   8.040  10.779 -0.1736 -0.2488 -0.0507
  111loPI   C1A 1767   9.159   7.619  10.223  0.0126 -0.0736 -0.1974
  111loPI   C2A 1768   9.231   7.558   9.832  0.2282 -0.0562 -0.0980
  111loPI   C3A 1769   9.113   7.684   9.432 -0.3099  0.1532  0.0840
  111loPI   C4A 1770   9.130   7.592   9.098 -0.1517  0.2627 -0.2302
  111loPI   C5A 1771   9.126   7.463   8.642 -0.0236  0.1296  0.1062
  111loPI   C6A 1772   9.352   7.488   8.218 -0.1971 -0.0763  0.0838
  111loPI   C1B 1773   9.017   8.074  10.286 -0.0282  0.2499  0.2201
  111loPI   C2B 1774   8.986   7.999   9.811  0.0594  0.1006  0.2065
  111loPI   C3B 1775   8.917   8.149   9.420 -0.3466 -0.2181 -0.0229
  111loPI   C4B 1776   8.866   8.133   9.001 -0.1889  0.2099  0.0139
  112loPI    C1 1777   8.598   6.064  11.119  0.1723 -0.0439 -0.1269
  112loPI    C2 1778   8.799   6.390  11.234 -0.1098 -0.0221  0.3302
  112loPI    C3 1779   8.958   6.028  11.289  0.0096  0.0161  0.2407
  112loPI   PO4 1780   8.497   6.085  10.950 -0.4639 -0.1557  0.3178
  112loPI   GL1 1781   8.312   6.162  10.612 -0.0836 -0.0315  0.0779
  112loPI   GL2 1782   8.587   5.823  10.533  0.0249  0.2570  0.2327
  112loPI   C1A 1783   8.306   6.272  10.206  0.1213 -0.3974 -0.1904
  112loPI   C2A 1784   8.337   6.291   9.784 -0.0630  0.0437  0.1098
  112loPI   C3A 1785   8.297   6.259   9.374  0.0495 -0.1306 -0.1001
  112loPI   C4A 1786   8.292   6.181   8.954 -0.1293  0.2029  0.0561
  112loPI   C5A 1787   8.163   6.379   8.548  0.2667  0.1525 -0.2574
  112loPI   C6A 1788   8.093   6.780   8.620  0.1821  0.0008 -0.0164
  112loPI   C1B 1789   8.475   5.817  10.111 -0.0805 -0.2611 -0.2226
  112loPI   C2B 1790   8.502   5.783   9.662  0.1351 -0.2705  0.0246
  112loPI   C3B 1791   8.505   5.767   9.293 -0.0077 -0.0571 -0.1482
  112loPI   C4B 1792   8.397   5.707   8.840 -0.1521  0.0616 -0.3277
  113loPI    C1 1793   0.372  17.108  11.201  0.1678 -0.1238 -0.1674
  113loPI    C2 1794   0.003  17.001  11.313  0.1585 -0.0678 -0.1439
  113loPI    C3 1795   0.320  16.796  11.446  0.1501  0.0229  0.0183
  113loPI   PO4 1796   0.309  17.181  10.994 -0.1013 -0.4417  0.1053
  113loPI   GL1 1797   0.566  17.063  10.672  0.1343  0.2596  0.3170
  113loPI   GL2 1798   0.686  16.788  10.671 -0.2890  0.2308 -0.2197
  113loPI   C1A 1799   0.562  17.090  10.235 -0.0391 -0.0036 -0.0302
  113loPI   C2A 1800   0.562  17.145   9.777  0.2955  0.2766 -0.0056
  113loPI   C3A 1801   0.536  17.165   9.446  0.1399  0.1508  0.2457
  113loPI   C4A 1802   0.517  17.237   9.054 -0.2080  0.1850  0.0497
  113loPI   C5A 1803   0.527  17.384   8.607  0.1441 -0.1081  0.0800
  113loPI   C6A 1804   0.883  17.727   8.430  0.0453  0.2915  0.0126
  113loPI   C1B 1805   0.671  16.572  10.293 -0.1961 -0.1582  0.2228
  113loPI   C2B 1806   0.848  16.535   9.859  0.1123 -0.0585 -0.2710
  113loPI   C3B 1807   0.752  16.637   9.410 -0.0270  0.4163 -0.1498
  113loPI   C4B 1808   0.829  16.750   9.005  0.2642 -0.1312  0.0161
  114loPI    C1 1809  11.335   6.369  11.295  0.0914 -0.1943 -0.0120
  114loPI    C2 1810  11.065   6.524  11.545  0.1546  0.0876 -0.1150
  114loPI    C3 1811  11.282   6.207  11.657 -0.2500 -0.1737 -0.0498
  114loPI   PO4 1812  11.272   6.359  11.097 -0.3342 -0.2295 -0.1849
  114loPI   GL1 1813  11.407   6.407  10.715  0.0717 -0.1461 -0.1057
  114loPI   GL2 1814  11.424   6.033  10.763  0.2941 -0.1936  0.3148
  114loPI   C1A 1815  11.635   6.437  10.303 -0.0553 -0.1579 -0.0068
  114loPI   C2A 1816  11.654   6.496   9.914  0.2974  0.2058 -0.1481
  114loPI   C3A 1817  11.663   6.484   9.452  0.0828 -0.0561  0.0441
  114loPI   C4A 1818  11.642   6.393   9.042 -0.1027  0.0430  0.0302
  114loPI   C5A 1819  11.770   6.478   8.612  0.0011 -0.1272 -0.2221
  114loPI   C6A 1820  11.603   6.647   8.180 -0.1309 -0.1460  0.2615
  114loPI   C1B 1821  11.461   5.979  10.331  0.2599 -0.2400  0.3291
  114loPI   C2B 1822  11.427   5.993   9.841  0.2529 -0.2468  0.2710
  114loPI   C3B 1823  11.355   6.028   9.372 -0.0734  0.0754 -0.3116
  114loPI   C4B 1824  11.298   6.060   8.905  0.1875 -0.2801 -0.3134
  115loPI    C1 1825   5.756  10.966  11.067  0.1001 -0.1155 -0.0065
  115loPI    C2 1826   5.496  11.118  11.330 -0.0243  0.0491 -0.2208
  115loPI    C3 1827   5.886  11.198  11.366 -0.0079 -0.1414  0.0613
  115loPI   PO4 1828   5.569  11.045  10.798 -0.1919 -0.0478  0.1982
  115loPI   GL1 1829   5.549  11.155  10.445 -0.0099  0.1566  0.0377
  115loPI   GL2 1830   5.619  11.419  10.322 -0.1122  0.0713 -0.1327
  115loPI   C1A 1831   5.674  11.029  10.103  0.0546  0.2461 -0.0363
  115loPI   C2A 1832   5.645  11.016   9.655  0.0899 -0.2762 -0.0321
  115loPI   C3A 1833   5.585  11.057   9.176 -0.0004 -0.2349 -0.1218
  115loPI   C4A 1834   5.585  11.056   8.671  0.0218  0.0245  0.2300
  115loPI   C5A 1835   5.672  11.103   8.248  0.2097 -0.0503 -0.0937
  115loPI   C6A 1836   5.277  11.112   7.886  0.0292  0.2700  0.1491
  115loPI   C1B 1837   5.778  11.501   9.931 -0.1669 -0.1317  0.1845
  115loPI   C2B 1838   5.851  11.432   9.394  0.0900 -0.0013  0.1018
  115loPI   C3B 1839   5.889  11.474   9.022 -0.1376 -0.1440  0.0946
  115loPI   C4B 1840   5.768  11.507   8.606 -0.0844  0.0227  0.0101
  116loPI    C1 1841  12.405  10.786  11.010  0.0523  0.0410 -0.0167
  116loPI    C2 1842  12.394  10.565  11.343 -0.0149  0.0961  0.0180
  116loPI    C3 1843  12.074  10.779  11.234  0.0459  0.1673 -0.0214
  116loPI   PO4 1844  12.520  10.696  10.898 -0.1388  0.1976 -0.2899
  116loPI   GL1 1845  12.564  10.666  10.487  0.1436 -0.1172 -0.0076
  116loPI   GL2 1846  12.742  10.529  10.365  0.1256 -0.0746  0.0787
  116loPI   C1A 1847  12.509  10.906  10.083  0.0825  0.2079  0.1256
  116loPI   C2A 1848  12.506  10.951   9.585  0.1931  0.0713 -0.3104
  116loPI   C3A 1849  12.453  10.861   9.172  0.0347  0.1776 -0.0727
  116loPI   C4A 1850  12.498  10.959   8.765  0.0781 -0.1016  0.0885
  116loPI   C5A 1851  12.554  10.823   8.328  0.1058 -0.2087 -0.1474
  116loPI   C6A 1852  12.566  10.489   8.049 -0.0140  0.3043 -0.0473
  116loPI   C1B 1853  12.786  10.398   9.956  0.0934  0.0862  0.4480
  116loPI   C2B 1854  12.647  10.498   9.561 -0.2545 -0.1860 -0.2096
  116loPI   C3B 1855  12.640  10.392   9.154 -0.0854  0.1779 -0.0894
  116loPI   C4B 1856  12.586  10.461   8.700  0.1487  0.2923  0.0407
  117loPI    C1 1857  12.833   2.576  11.308  0.2304  0.0588  0.1758
  117loPI    C2 1858  13.039   2.271  11.464 -0.0274 -0.1195  0.1737
  117loPI    C3 1859  12.642   2.290  11.514 -0.0541  0.0545 -0.0866
  117loPI   PO4 1860  12.963   2.525  11.035  0.3638  0.1623 -0.3171
  117loPI   GL1 1861  12.886   2.678  10.655 -0.2120  0.1075  0.0827
  117loPI   GL2 1862  12.777   2.365  10.590  0.0733  0.1947 -0.0601
  117loPI   C1A 1863  13.063   2.714  10.167 -0.2448  0.0130 -0.0374
  117loPI   C2A 1864  13.127   2.813   9.724  0.3149  0.0240  0.0414
  117loPI   C3A 1865  13.037   2.773   9.319 -0.2109  0.1002 -0.1087
  117loPI   C4A 1866  12.969   2.779   8.940  0.2090 -0.2592  0.0434
  117loPI   C5A 1867  12.893   2.557   8.487 -0.0705  0.3348  0.1088
  117loPI   C6A 1868  12.521   2.327   8.345 -0.1523 -0.2288 -0.1861
  117loPI   C1B 1869  12.756   2.300  10.214  0.1658 -0.1506 -0.1057
  117loPI   C2B 1870  12.780   2.353   9.759  0.1810 -0.1818 -0.4885
  117loPI   C3B 1871  12.794   2.349   9.324  0.0732 -0.4818  0.0894
  117loPI   C4B 1872  12.727   2.279   8.873 -0.5731  0.4657 -0.0042
  118loPI    C1 1873   1.165   5.870  10.865  0.2993 -0.2437 -0.0198
  118loPI    C2 1874   1.178   5.879  11.265 -0.0647  0.0332 -0.0087
  118loPI    C3 1875   0.894   5.668  11.079 -0.0762  0.1413 -0.1155
  118loPI   PO4 1876   1.433   5.832  10.774  0.0441  0.0335  0.1268
  118loPI   GL1 1877   1.601   5.527  10.445  0.0013  0.0347  0.0352
  118loPI   GL2 1878   1.891   5.645  10.492  0.4089 -0.0712 -0.0883
  118loPI   C1A 1879   1.393   5.525  10.067 -0.1718  0.0403  0.0752
  118loPI   C2A 1880   1.317   5.471   9.603  0.1322 -0.2108  0.0515
  118loPI   C3A 1881   1.316   5.434   9.211 -0.1486 -0.2224 -0.2914
  118loPI   C4A 1882   1.426   5.500   8.714  0.3558  0.0113 -0.2592
  118loPI   C5A 1883   1.552   5.852   8.457  0.0839  0.0197  0.0603
  118loPI   C6A 1884   1.603   6.092   8.135 -0.0767 -0.1599  0.3724
  118loPI   C1B 1885   1.889   5.473  10.055 -0.1196  0.0176  0.0908
  118loPI   C2B 1886   1.825   5.403   9.570 -0.1509 -0.2525 -0.1421
  118loPI   C3B 1887   1.899   5.396   9.084 -0.1138 -0.0088 -0.2002
  118loPI   C4B 1888   1.888   5.427   8.745 -0.0284 -0.0318  0.1408
  119loPI    C1 1889   1.424  15.138  10.818 -0.0752  0.0134  0.0730
  119loPI    C2 1890   1.725  15.250  11.056  0.0109 -0.0381 -0.0111
  119loPI    C3 1891   1.352  15.240  11.198  0.0430  0.0643  0.0822
  119loPI   PO4 1892   1.560  15.310  10.568  0.0559 -0.0736  0.0317
  119loPI   GL1 1893   1.341  15.606  10.297 -0.1792  0.1741 -0.1090
  119loPI   GL2 1894   1.465  15.849  10.362 -0.1266 -0.0397  0.0313
  119loPI   C1A 1895   1.248  15.665   9.851  0.0894  0.0533 -0.2711
  119loPI   C2A 1896   1.367  15.732   9.366 -0.0054  0.1543 -0.2152
  119loPI   C3A 1897   1.273  15.823   8.961  0.2623 -0.1614  0.2210
  119loPI   C4A 1898   1.259  15.945   8.479 -0.0692 -0.1322 -0.0990
  119loPI   C5A 1899   1.338  15.796   8.049 -0.0622  0.1449  0.2379
  119loPI   C6A 1900   1.256  15.631   7.586 -0.3270  0.3374  0.0168
  119loPI   C1B 1901   1.588  16.098  10.041 -0.0154  0.1398 -0.0386
  119loPI   C2B 1902   1.600  16.119   9.667 -0.1459 -0.4684 -0.2138
  119loPI   C3B 1903   1.539  16.154   9.285  0.0929 -0.0186  0.2126
  119loPI   C4B 1904   1.577  16.204   8.797 -0.0326 -0.1059 -0.0904
  120loPI    C1 1905   8.708   1.224  10.859  0.0890 -0.1089 -0.0067
  120loPI    C2 1906   8.496   0.940  11.043 -0.0365  0.0253  0.0582
  120loPI    C3 1907   8.820   1.093  11.219 -0.2230  0.2364  0.2235
  120loPI   PO4 1908   8.663   1.174  10.632  0.1546  0.1988  0.0200
  120loPI   GL1 1909   8.769   1.081  10.297 -0.1618  0.2219  0.0588
  120loPI   GL2 1910   9.087   1.052  10.269  0.1163 -0.1909 -0.1681
  120loPI   C1A 1911   8.781   1.017   9.921 -0.1367  0.6316  0.0981
  120loPI   C2A 1912   8.743   0.860   9.529 -0.1532  0.2112 -0.1824
  120loPI   C3A 1913   8.656   0.794   9.180 -0.1707 -0.1763  0.1877
  120loPI   C4A 1914   8.389   0.750   8.772  0.1255 -0.0081  0.0697
  120loPI   C5A 1915   8.213   0.946   8.296 -0.1256 -0.1031 -0.2597
  120loPI   C6A 1916   7.986   0.929   7.968  0.1302 -0.0009 -0.0476
  120loPI   C1B 1917   9.252   1.205   9.932  0.1037  0.0383  0.1607
  120loPI   C2B 1918   9.242   1.032   9.550 -0.1589 -0.0903 -0.5248
  120loPI   C3B 1919   9.253   1.085   9.181  0.0016  0.0104 -0.2376
  120loPI   C4B 1920   9.212   1.281   8.795  0.2109 -0.1934  0.0296
  121loPI    C1 1921  10.041   2.928  11.103 -0.1219 -0.1995  0.1028
  121loPI    C2 1922   9.945   3.293  10.967  0.0892 -0.2122 -0.0856
  121loPI    C3 1923  10.066   3.245  11.345 -0.2541 -0.1377  0.0371
  121loPI   PO4 1924  10.189   2.849  10.824 -0.1601  0.0098 -0.2776
  121loPI   GL1 1925  10.367   2.964  10.468  0.1754 -0.1044 -0.1625
  121loPI   GL2 1926  10.645   2.818  10.532  0.1753 -0.1611  0.1477
  121loPI   C1A 1927  10.393   2.866  10.015 -0.0342 -0.1812 -0.1851
  121loPI   C2A 1928  10.328   2.945   9.510 -0.0872  0.1112 -0.1942
  121loPI   C3A 1929  10.434   2.929   9.133 -0.0436  0.0476  0.0773
  121loPI   C4A 1930  10.577   2.789   8.722 -0.0118  0.0401  0.3047
  121loPI   C5A 1931  10.838   2.605   8.438 -0.1500  0.2519  0.1864
  121loPI   C6A 1932  11.097   2.746   8.190 -0.4730  0.2655 -0.0474
  121loPI   C1B 1933  10.583   2.489  10.306  0.1813  0.1487 -0.0021
  121loPI   C2B 1934  10.599   2.397   9.876  0.0013 -0.0915  0.1302
  121loPI   C3B 1935  10.649   2.535   9.460 -0.1292 -0.1823 -0.1813
  121loPI   C4B 1936  10.648   2.417   9.091 -0.1595 -0.2809  0.1389
  122loPI    C1 1937  12.512   3.569  11.330  0.2200 -0.1979 -0.0043
  122loPI    C2 1938  12.612   3.784  11.652  0.1203 -0.0643 -0.0617
  122loPI    C3 1939  12.540   3.392  11.688 -0.2451  0.0176  0.1463
  122loPI   PO4 1940  12.671   3.600  11.136 -0.0275  0.0296  0.0446
  122loPI   GL1 1941  12.750   3.678  10.724  0.3837 -0.2859 -0.1295
  122loPI   GL2 1942  12.496   3.557  10.627 -0.1571  0.1025  0.1964
  122loPI   C1A 1943  13.045   3.677  10.337  0.1320 -0.1807  0.2525
  122loPI   C2A 1944  13.045   3.658   9.937 -0.1216  0.2428  0.0585
  122loPI   C3A 1945  13.102   3.656   9.407  0.1106 -0.0790 -0.0182
  122loPI   C4A 1946  13.092   3.657   9.013 -0.4006 -0.0215 -0.1060
  122loPI   C5A 1947  13.198   3.608   8.502 -0.3250 -0.1540 -0.1199
  122loPI   C6A 1948  13.194   3.408   8.118 -0.0968  0.1728  0.1464
  122loPI   C1B 1949  12.566   3.616  10.138  0.2805  0.1328 -0.3763
  122loPI   C2B 1950  12.561   3.713   9.764  0.1657  0.0573  0.0681
  122loPI   C3B 1951  12.545   3.752   9.327 -0.2567 -0.0656  0.3435
  122loPI   C4B 1952  12.594   3.598   8.877 -0.3822  0.2599  0.1544
  123loPI    C1 1953  11.742   5.583  11.120  0.0386  0.0038  0.0987
  123loPI    C2 1954  11.535   5.874  11.299 -0.0176 -0.0702  0.1547
  123loPI    C3 1955  11.513   5.500  11.437  0.0696 -0.0978  0.0947
  123loPI   PO4 1956  11.765   5.647  10.860 -0.1901  0.0298  0.1687
  123loPI   GL1 1957  11.760   5.619  10.505  0.1532  0.0980 -0.1810
  123loPI   GL2 1958  11.961   5.913  10.498  0.0756  0.2711  0.0226
  123loPI   C1A 1959  11.684   5.560   9.962 -0.0306 -0.1934 -0.1566
  123loPI   C2A 1960  11.580   5.519   9.459  0.0257 -0.3136 -0.1496
  123loPI   C3A 1961  11.601   5.555   9.046  0.0899  0.3724  0.2072
  123loPI   C4A 1962  11.577   5.531   8.565  0.2276 -0.0898 -0.2215
  123loPI   C5A 1963  11.729   5.655   8.084 -0.2574 -0.1646 -0.0120
  123loPI   C6A 1964  11.840   5.591   7.680 -0.2349 -0.2560 -0.0654
  123loPI   C1B 1965  11.900   6.059  10.005 -0.2499 -0.1677  0.0567
  123loPI   C2B 1966  11.879   5.920   9.635 -0.1477 -0.2926 -0.0465
  123loPI   C3B 1967  11.909   5.936   9.199  0.2282  0.2294 -0.1100
  123loPI   C4B 1968  11.857   5.974   8.818 -0.0323 -0.2558  0.1010
  124loPI    C1 1969   3.211  13.753  10.860 -0.0988  0.1773 -0.1356
  124loPI    C2 1970   2.890  13.804  11.092 -0.1751 -0.3007 -0.1255
  124loPI    C3 1971   3.221  13.638  11.243  0.0702  0.1548 -0.1459
  124loPI   PO4 1972   3.158  13.603  10.653 -0.0252 -0.3191  0.0338
  124loPI   GL1 1973   3.372  13.659  10.288  0.1485  0.3975 -0.2284
  124loPI   GL2 1974   3.684  13.516  10.146 -0.0546 -0.0198  0.0227
  124loPI   C1A 1975   3.384  13.836   9.901 -0.0041  0.0082 -0.0582
  124loPI   C2A 1976   3.331  13.911   9.464 -0.0544  0.0011 -0.1498
  124loPI   C3A 1977   3.309  14.047   9.127 -0.1595 -0.0350 -0.0465
  124loPI   C4A 1978   3.160  13.990   8.837 -0.1409  0.0061  0.1559
  124loPI   C5A 1979   3.229  14.002   8.346  0.0250  0.1907  0.0239
  124loPI   C6A 1980   3.111  14.102   7.930  0.5213  0.1768  0.0486
  124loPI   C1B 1981   3.831  13.668   9.847  0.2152  0.1975 -0.3083
  124loPI   C2B 1982   3.822  13.850   9.431 -0.0345  0.0225 -0.2356
  124loPI   C3B 1983   3.788  13.889   8.976 -0.1841  0.0431  0.2251
  124loPI   C4B 1984   3.723  13.910   8.559 -0.0338  0.0073 -0.1355
  125loPI    C1 1985  12.063  14.820  10.940 -0.1028 -0.1189  0.1677
  125loPI    C2 1986  11.875  15.153  11.057  0.1225  0.0438  0.0736
  125loPI    C3 1987  12.272  15.120  11.102  0.1490 -0.0755 -0.2230
  125loPI   PO4 1988  12.015  14.790  10.713  0.1911 -0.2011  0.1764
  125loPI   GL1 1989  12.212  14.599  10.266 -0.0258 -0.1232 -0.1795
  125loPI   GL2 1990  12.555  14.551  10.241 -0.3389 -0.1673  0.0473
  125loPI   C1A 1991  12.351  14.506   9.801 -0.0697  0.0451  0.2994
  125loPI   C2A 1992  12.423  14.432   9.397 -0.0274  0.0363  0.2120
  125loPI   C3A 1993  12.348  14.404   8.949  0.0372  0.0937 -0.1318
  125loPI   C4A 1994  12.268  14.400   8.518 -0.1302  0.4129 -0.1031
  125loPI   C5A 1995  11.977  14.214   8.208 -0.0693 -0.0485 -0.3568
  125loPI   C6A 1996  11.563  14.365   8.028  0.1815 -0.1129  0.3220
  125loPI   C1B 1997  12.826  14.447   9.846  0.0748  0.1214  0.2273
  125loPI   C2B 1998  12.895  14.426   9.485  0.0848 -0.0093 -0.2354
  125loPI   C3B 1999  12.862  14.396   9.067 -0.0930 -0.0827 -0.0920
  125loPI   C4B 2000  13.036  14.433   8.629 -0.0024  0.4160 -0.1124
  126loPI    C1 2001  11.270   3.961  11.377  0.0764 -0.0886 -0.1312
  126loPI    C2 2002  11.329   4.216  11.679  0.0089 -0.1428 -0.0720
  126loPI    C3 2003  11.151   3.865  11.746  0.2301 -0.2672 -0.1262
  126loPI   PO4 2004  11.113   4.156  11.187  0.1212 -0.1821 -0.1100
  126loPI   GL1 2005  11.087   4.093  10.717 -0.2035 -0.0526 -0.1593
  126loPI   GL2 2006  11.338   4.310  10.519  0.0495 -0.4050 -0.0437
  126loPI   C1A 2007  11.064   3.835  10.310 -0.4036 -0.0463 -0.3770
  126loPI   C2A 2008  10.982   3.879   9.915  0.0705  0.2083  0.3131
  126loPI   C3A 2009  11.012   3.771   9.538  0.0032 -0.0604 -0.0099
  126loPI   C4A 2010  11.088   3.760   9.200  0.0867  0.2520 -0.1593
  126loPI   C5A 2011  11.087   3.714   8.782  0.0596 -0.0206  0.1537
  126loPI   C6A 2012  10.975   4.034   8.453 -0.0483  0.0297  0.1756
  126loPI   C1B 2013  11.286   4.212  10.154 -0.2124 -0.0204 -0.0230
  126loPI   C2B 2014  11.271   4.270   9.744  0.1053 -0.0386  0.0172
  126loPI   C3B 2015  11.294   4.243   9.303 -0.0006  0.0713 -0.2096
  126loPI   C4B 2016  11.407   4.178   8.899 -0.1322 -0.2025  0.0802
  127loPI    C1 2017  10.253   3.646  11.184  0.1961  0.0628 -0.1652
  127loPI    C2 2018  10.104   3.974  11.358  0.0798  0.1327 -0.3915
  127loPI    C3 2019   9.857   3.689  11.225  0.1755  0.0056 -0.3003
  127loPI   PO4 2020  10.329   3.718  10.960  0.0883 -0.0794 -0.0718
  127loPI   GL1 2021  10.036   3.749  10.628  0.0316  0.2006 -0.2416
  127loPI   GL2 2022  10.272   3.457  10.534  0.1053  0.0184  0.1854
  127loPI   C1A 2023  10.072   3.832  10.194  0.3727 -0.0604  0.2083
  127loPI   C2A 2024   9.974   3.922   9.891  0.0329 -0.0217  0.0541
  127loPI   C3A 2025   9.995   3.865   9.532 -0.0236 -0.2838  0.4326
  127loPI   C4A 2026   9.977   3.953   9.126 -0.2003 -0.1464 -0.2580
  127loPI   C5A 2027   9.997   3.824   8.667  0.1600 -0.1922 -0.2338
  127loPI   C6A 2028   9.997   3.524   8.353 -0.1255  0.1550 -0.0294
  127loPI   C1B 2029  10.239   3.313  10.139  0.1477  0.2660  0.0131
  127loPI   C2B 2030  10.217   3.349   9.875  0.0464 -0.1633  0.0361
  127loPI   C3B 2031  10.130   3.425   9.533  0.2178 -0.0606  0.1539
  127loPI   C4B 2032  10.247   3.419   9.102  0.0417  0.0511 -0.1339
  128loPI    C1 2033   9.982  12.972  10.898 -0.0852 -0.1332 -0.0017
  128loPI    C2 2034  10.155  12.930  11.256  0.1379 -0.0860 -0.1026
  128loPI    C3 2035  10.160  13.285  11.072 -0.2449 -0.0327 -0.0174
  128loPI   PO4 2036  10.003  12.792  10.777 -0.0964  0.0663 -0.1933
  128loPI   GL1 2037  10.283  12.712  10.413 -0.0170  0.0611  0.0906
  128loPI   GL2 2038  10.096  12.888  10.240  0.0271 -0.2825  0.0582
  128loPI   C1A 2039  10.355  12.451  10.079 -0.1426  0.0213 -0.0115
  128loPI   C2A 2040  10.355  12.468   9.717  0.1621 -0.1491  0.1944
  128loPI   C3A 2041  10.310  12.358   9.228 -0.0749  0.0384  0.0286
  128loPI   C4A 2042  10.310  12.422   8.761  0.2093 -0.0093  0.0271
  128loPI   C5A 2043  10.205  12.317   8.340  0.2026  0.2644 -0.0855
  128loPI   C6A 2044  10.117  11.930   8.098  0.0522 -0.0777 -0.0121
  128loPI   C1B 2045  10.182  12.936   9.783 -0.1202 -0.0843 -0.0071
  128loPI   C2B 2046  10.083  12.832   9.349 -0.0856 -0.1135 -0.0164
  128loPI   C3B 2047  10.109  12.865   8.872 -0.1030  0.0503  0.1278
  128loPI   C4B 2048  10.060  12.890   8.498  0.1177 -0.0874  0.2283
  129loPI    C1 2049   3.612  12.305  10.275  0.0616  0.0218  0.0536
  129loPI    C2 2050   3.690  12.476  10.628 -0.1845  0.1656  0.0406
  129loPI    C3 2051   3.330  12.315  10.559 -0.0167 -0.1947 -0.0149
  129loPI   PO4 2052   3.628  12.372  10.110  0.0738  0.1059  0.3002
  129loPI   GL1 2053   4.056  12.508   9.906 -0.0455 -0.4619 -0.1891
  129loPI   GL2 2054   4.146  12.290   9.919 -0.0450  0.1187  0.0819
  129loPI   C1A 2055   4.202  12.855   9.640  0.0869  0.1995 -0.2313
  129loPI   C2A 2056   4.192  12.867   9.252  0.0571 -0.1900  0.1324
  129loPI   C3A 2057   4.081  12.950   8.854 -0.0863  0.1210 -0.2510
  129loPI   C4A 2058   4.090  13.025   8.468  0.3553 -0.0539  0.1739
  129loPI   C5A 2059   4.154  13.117   8.104  0.0813  0.0162 -0.0627
  129loPI   C6A 2060   4.185  12.939   7.739  0.0814 -0.1336  0.0084
  129loPI   C1B 2061   4.345  12.443   9.478  0.1509  0.2315 -0.0736
  129loPI   C2B 2062   4.400  12.452   9.092  0.2534 -0.2147 -0.0989
  129loPI   C3B 2063   4.296  12.568   8.651 -0.2277  0.2333  0.0361
  129loPI   C4B 2064   4.405  12.635   8.224  0.2379  0.0607 -0.0108
  130loPI    C1 2065  15.551   5.822  11.290 -0.0528  0.0295  0.1060
  130loPI    C2 2066  15.764   6.149  11.378  0.0203 -0.0073  0.0666
  130loPI    C3 2067  15.706   5.867  11.656  0.2815 -0.1405 -0.0110
  130loPI   PO4 2068  15.362   5.837  11.157 -0.1433 -0.0157  0.0539
  130loPI   GL1 2069  15.263   6.043  10.675 -0.0696 -0.1108  0.1833
  130loPI   GL2 2070  15.363   6.382  10.604 -0.1203 -0.0340  0.0560
  130loPI   C1A 2071  15.094   5.723  10.406  0.1219 -0.0203  0.1198
  130loPI   C2A 2072  15.030   5.735   9.894  0.2838  0.2265 -0.2194
  130loPI   C3A 2073  15.068   5.735   9.383  0.0862 -0.1746 -0.2222
  130loPI   C4A 2074  15.015   5.746   8.882  0.1500 -0.2999 -0.0867
  130loPI   C5A 2075  15.119   6.098   8.571  0.0453  0.2144 -0.1976
  130loPI   C6A 2076  15.287   6.530   8.344  0.0166 -0.1807  0.0686
  130loPI   C1B 2077  15.303   6.199  10.256 -0.0255 -0.1617  0.1114
  130loPI   C2B 2078  15.371   6.126   9.863  0.0132  0.2505 -0.0288
  130loPI   C3B 2079  15.346   6.184   9.431  0.0673 -0.0411  0.4212
  130loPI   C4B 2080  15.342   6.055   9.046  0.2498  0.2115 -0.1550
  131loPI    C1 2081   8.909  17.561  10.651  0.0618  0.2400 -0.0861
  131loPI    C2 2082   9.015  17.569  11.037 -0.2210 -0.0832  0.0034
  131loPI    C3 2083   8.653  17.699  10.925 -0.1515 -0.0186 -0.1499
  131loPI   PO4 2084   9.182  17.593  10.474 -0.1623 -0.0958  0.1194
  131loPI   GL1 2085   9.270  17.626  10.034  0.1158 -0.0254 -0.1967
  131loPI   GL2 2086   9.471  17.490   9.887  0.0108 -0.1351  0.2116
  131loPI   C1A 2087   9.208  17.891   9.678 -0.3411  0.1696  0.2033
  131loPI   C2A 2088   9.232  17.869   9.199 -0.0008 -0.0116 -0.0394
  131loPI   C3A 2089   9.233  18.041   8.735  0.1948 -0.0124  0.1366
  131loPI   C4A 2090   9.200  18.118   8.348  0.1676 -0.1077  0.4054
  131loPI   C5A 2091   8.892  17.992   8.116 -0.1357 -0.0047  0.1099
  131loPI   C6A 2092   8.740  17.893   7.768  0.1413  0.0027 -0.1048
  131loPI   C1B 2093   9.561  17.573   9.488  0.0094  0.1345 -0.1602
  131loPI   C2B 2094   9.605  17.551   9.032  0.3205  0.3725  0.1285
  131loPI   C3B 2095   9.510  17.563   8.635 -0.0548  0.0079  0.1559
  131loPI   C4B 2096   9.318  17.686   8.304 -0.2474 -0.1896  0.0525
  132loPI    C1 2097   0.091  12.405  10.368 -0.2630  0.0974 -0.0922
  132loPI    C2 2098   0.111  12.796  10.454 -0.0984  0.1001 -0.1371
  132loPI    C3 2099   0.204  12.524  10.733 -0.1029  0.0953 -0.1402
  132loPI   PO4 2100  -0.137  12.305  10.351 -0.0058 -0.4856 -0.0853
  132loPI   GL1 2101  -0.401  12.246  10.001  0.1511  0.3223  0.4028
  132loPI   GL2 2102  -0.239  12.560   9.899  0.1095  0.0030 -0.1453
  132loPI   C1A 2103  -0.569  12.216   9.575  0.0337 -0.0627  0.0440
  132loPI   C2A 2104  -0.529  12.264   9.072 -0.0870  0.0291 -0.0744
  132loPI   C3A 2105  -0.517  12.373   8.612 -0.1144 -0.0588  0.2561
  132loPI   C4A 2106  -0.531  12.409   8.254 -0.1060  0.1087 -0.1607
  132loPI   C5A 2107  -0.531  12.272   7.897 -0.0634 -0.1809  0.1228
  132loPI   C6A 2108  -0.708  12.540   7.645  0.0759  0.0382 -0.3154
  132loPI   C1B 2109  -0.389  12.739   9.526 -0.0655  0.1171  0.0516
  132loPI   C2B 2110  -0.267  12.725   9.100  0.0355 -0.1199  0.0842
  132loPI   C3B 2111  -0.207  12.798   8.591  0.2287 -0.0419  0.1458
  132loPI   C4B 2112  -0.253  12.817   8.257 -0.0847  0.0492  0.0970
  133loPI    C1 2113   4.757   0.735  11.510 -0.1229 -0.1406 -0.1662
  133loPI    C2 2114   4.743   1.131  11.560  0.2307 -0.1030 -0.3321
  133loPI    C3 2115   4.731   0.889  11.878 -0.1404  0.0310 -0.2385
  133loPI   PO4 2116   4.844   0.692  11.287 -0.2875  0.1023  0.0106
  133loPI   GL1 2117   4.637   0.676  10.784  0.0147 -0.0847  0.1119
  133loPI   GL2 2118   4.379   0.408  10.716  0.3038 -0.2286 -0.0529
  133loPI   C1A 2119   4.737   0.843  10.362 -0.0217  0.0490  0.2407
  133loPI   C2A 2120   4.791   0.865   9.932  0.0435 -0.0963 -0.1527
  133loPI   C3A 2121   4.707   0.969   9.561 -0.0691 -0.0587 -0.1301
  133loPI   C4A 2122   4.724   0.912   9.179  0.2867 -0.4225  0.0984
  133loPI   C5A 2123   4.725   0.797   8.773  0.3794 -0.1051 -0.2235
  133loPI   C6A 2124   4.503   0.407   8.540  0.0984 -0.0294 -0.3166
  133loPI   C1B 2125   4.422   0.386  10.305 -0.3711  0.1536 -0.2475
  133loPI   C2B 2126   4.440   0.385   9.838 -0.1295  0.0334 -0.0626
  133loPI   C3B 2127   4.481   0.481   9.383 -0.0006  0.2391 -0.0710
  133loPI   C4B 2128   4.471   0.440   9.068  0.0647  0.1796 -0.1074
  134loPI    C1 2129   8.894   9.233  11.389  0.0177  0.1783 -0.0492
  134loPI    C2 2130   9.081   9.457  11.663  0.0425 -0.0400  0.1148
  134loPI    C3 2131   8.908   9.113  11.770  0.0462 -0.1243 -0.1434
  134loPI   PO4 2132   9.042   9.252  11.195 -0.0547  0.0112 -0.0090
  134loPI   GL1 2133   9.108   9.143  10.750  0.0044  0.0934 -0.0732
  134loPI   GL2 2134   9.003   9.445  10.636 -0.0566 -0.0443 -0.1861
  134loPI   C1A 2135   9.154   9.046  10.344  0.2031  0.1394 -0.2695
  134loPI   C2A 2136   9.136   8.876   9.932 -0.0396 -0.0887  0.2371
  134loPI   C3A 2137   9.096   9.044   9.490  0.0089  0.3311  0.0923
  134loPI   C4A 2138   9.000   8.943   9.090 -0.1647 -0.2432 -0.1305
  134loPI   C5A 2139   8.966   8.923   8.765 -0.2467  0.2869  0.0717
  134loPI   C6A 2140   8.983   8.858   8.287 -0.0703 -0.1593 -0.4793
  134loPI   C1B 2141   8.917   9.450  10.197 -0.1337 -0.1627  0.0309
  134loPI   C2B 2142   8.820   9.347   9.801  0.0542  0.0410  0.0850
  134loPI   C3B 2143   8.836   9.471   9.346 -0.2558  0.3562 -0.2535
  134loPI   C4B 2144   8.771   9.387   8.903 -0.2229 -0.2138 -0.1223
  135loPI    C1 2145  15.462   4.278  11.205  0.1069 -0.2193  0.1240
  135loPI    C2 2146  15.640   4.459  11.514  0.1829 -0.1089  0.0167
  135loPI    C3 2147  15.254   4.354  11.538  0.1318  0.0876  0.0721
  135loPI   PO4 2148  15.455   4.447  10.987 -0.0350 -0.0026  0.1341
  135loPI   GL1 2149  15.219   4.412  10.668 -0.0315  0.3941  0.1150
  135loPI   GL2 2150  15.272   4.024  10.764  0.2856  0.1916  0.0426
  135loPI   C1A 2151  15.263   4.320  10.248  0.0903 -0.4237 -0.2936
  135loPI   C2A 2152  15.174   4.412   9.829  0.0727  0.0729 -0.1529
  135loPI   C3A 2153  15.223   4.408   9.410 -0.2905  0.1150  0.1233
  135loPI   C4A 2154  15.142   4.401   8.908 -0.1889  0.0370  0.2148
  135loPI   C5A 2155  14.851   4.141   8.527  0.0142  0.3860 -0.0533
  135loPI   C6A 2156  14.350   4.122   8.498  0.1842 -0.0816 -0.0196
  135loPI   C1B 2157  15.542   3.911  10.445  0.0711  0.0145  0.0044
  135loPI   C2B 2158  15.477   3.918  10.028  0.1295 -0.0978  0.1804
  135loPI   C3B 2159  15.383   3.895   9.594  0.3528 -0.1353  0.0519
  135loPI   C4B 2160  15.392   3.946   9.171  0.1847 -0.0486 -0.1276
  136loPI    C1 2161   6.423   3.411  11.086  0.1533  0.0179  0.2643
  136loPI    C2 2162   6.165   3.379  11.390  0.1267 -0.1063  0.2287
  136loPI    C3 2163   6.527   3.209  11.415  0.0888 -0.1991  0.1527
  136loPI   PO4 2164   6.211   3.536  10.882  0.0673  0.3669 -0.1665
  136loPI   GL1 2165   5.966   3.374  10.557  0.0318 -0.1372 -0.2078
  136loPI   GL2 2166   5.873   3.582  10.387  0.1835 -0.0482  0.0969
  136loPI   C1A 2167   6.139   3.204  10.299  0.2663 -0.1731  0.0757
  136loPI   C2A 2168   6.260   3.175   9.949  0.2035 -0.0889 -0.1795
  136loPI   C3A 2169   6.288   3.152   9.517 -0.1741  0.1387  0.0145
  136loPI   C4A 2170   6.114   3.033   9.119  0.2708  0.0505 -0.0436
  136loPI   C5A 2171   6.087   2.917   8.756  0.4347  0.0713  0.3604
  136loPI   C6A 2172   6.192   2.725   8.369  0.2244  0.2433  0.0628
  136loPI   C1B 2173   6.012   3.640  10.068 -0.2470 -0.0419 -0.0738
  136loPI   C2B 2174   6.074   3.524   9.703 -0.0131  0.1838 -0.4052
  136loPI   C3B 2175   6.014   3.483   9.303  0.0136  0.3213 -0.0696
  136loPI   C4B 2176   5.991   3.516   8.854 -0.1362  0.0492  0.3152
  137loPI    C1 2177  12.756   2.041  11.078 -0.1993 -0.3157 -0.1302
  137loPI    C2 2178  13.103   2.074  10.883 -0.2048 -0.2982 -0.1371
  137loPI    C3 2179  13.087   1.874  11.229 -0.1085  0.0242  0.0583
  137loPI   PO4 2180  12.610   1.995  10.897  0.1148 -0.2011 -0.3285
  137loPI   GL1 2181  12.489   1.897  10.391  0.0875 -0.0456  0.1871
  137loPI   GL2 2182  12.624   1.527  10.454 -0.0120  0.0251 -0.0056
  137loPI   C1A 2183  12.485   1.918   9.915  0.2242 -0.3027  0.0623
  137loPI   C2A 2184  12.438   1.981   9.510 -0.1639  0.2200  0.1143
  137loPI   C3A 2185  12.474   1.911   9.060  0.2148  0.1326  0.1561
  137loPI   C4A 2186  12.220   1.811   8.617 -0.0816 -0.1326 -0.0107
  137loPI   C5A 2187  11.763   1.968   8.615 -0.2703 -0.3040 -0.2375
  137loPI   C6A 2188  11.367   1.837   8.542  0.0258  0.3683 -0.2650
  137loPI   C1B 2189  12.735   1.467  10.011  0.3600 -0.0453 -0.2357
  137loPI   C2B 2190  12.712   1.535   9.620 -0.0869  0.0693  0.3061
  137loPI   C3B 2191  12.728   1.469   9.145 -0.1309 -0.0403 -0.0921
  137loPI   C4B 2192  12.659   1.535   8.656  0.1983 -0.1240  0.0387
  138loPI    C1 2193  15.547  14.527  10.896  0.1611 -0.2574 -0.0107
  138loPI    C2 2194  15.325  14.340  11.172  0.0024 -0.2243 -0.1144
  138loPI    C3 2195  15.482  14.699  11.251 -0.0896 -0.1898 -0.0869
  138loPI   PO4 2196  15.380  14.553  10.671  0.1258 -0.4738  0.3625
  138loPI   GL1 2197  15.421  14.761  10.308 -0.0940  0.4303  0.1449
  138loPI   GL2 2198  15.674  14.615  10.279  0.0786 -0.0403 -0.0059
  138loPI   C1A 2199  15.201  14.699   9.905 -0.1242 -0.1186  0.1617
  138loPI   C2A 2200  15.250  14.641   9.506 -0.0672 -0.0977  0.2157
  138loPI   C3A 2201  15.180  14.738   9.150 -0.0962  0.0619 -0.0904
  138loPI   C4A 2202  15.188  14.786   8.711  0.0363 -0.0495  0.0902
  138loPI   C5A 2203  15.176  14.555   8.392  0.0647 -0.1052 -0.4139
  138loPI   C6A 2204  15.234  14.161   8.104  0.1482 -0.0458  0.0476
  138loPI   C1B 2205  15.757  14.656   9.885  0.0585 -0.1239 -0.0795
  138loPI   C2B 2206  15.743  14.630   9.404  0.1611 -0.0588 -0.1587
  138loPI   C3B 2207  15.659  14.656   8.990  0.0166  0.0089  0.1939
  138loPI   C4B 2208  15.666  14.727   8.504 -0.1430  0.1178 -0.1425
  139loPI    C1 2209   2.918  17.024  11.342 -0.1839  0.3150 -0.2287
  139loPI    C2 2210   2.678  16.795  11.565  0.3265 -0.0600 -0.0448
  139loPI    C3 2211   2.910  17.069  11.740  0.0853  0.2596 -0.2151
  139loPI   PO4 2212   2.872  16.961  11.024 -0.3135  0.2568  0.0902
  139loPI   GL1 2213   2.942  17.015  10.609  0.0253  0.0305  0.1297
  139loPI   GL2 2214   2.853  17.296  10.477 -0.1891 -0.1341 -0.0317
  139loPI   C1A 2215   3.048  16.918  10.246 -0.0416  0.2896 -0.2703
  139loPI   C2A 2216   3.113  16.894   9.834 -0.2408 -0.0901 -0.0398
  139loPI   C3A 2217   3.124  17.071   9.402 -0.1658 -0.1124 -0.0164
  139loPI   C4A 2218   3.148  17.092   8.952 -0.0772 -0.3198  0.1183
  139loPI   C5A 2219   3.242  17.141   8.525 -0.0543  0.0367 -0.3085
  139loPI   C6A 2220   3.161  17.047   8.071 -0.1127  0.1285 -0.0624
  139loPI   C1B 2221   2.950  17.431  10.114  0.0323  0.0242  0.3994
  139loPI   C2B 2222   2.929  17.454   9.638  0.2012 -0.2201  0.0614
  139loPI   C3B 2223   2.862  17.452   9.239  0.0069  0.0168  0.1781
  139loPI   C4B 2224   2.878  17.510   8.776 -0.0850  0.0999  0.1646
  140loPI    C1 2225  10.009  10.293  10.942  0.1375  0.1807  0.1245
  140loPI    C2 2226   9.710  10.552  11.005  0.0433  0.1065 -0.0137
  140loPI    C3 2227  10.015  10.533  11.262 -0.2056 -0.0084  0.2797
  140loPI   PO4 2228  10.117  10.273  10.608  0.1534  0.3270 -0.1034
  140loPI   GL1 2229  10.378  10.362  10.318 -0.2772  0.1384 -0.1624
  140loPI   GL2 2230  10.304  10.663  10.256 -0.0966  0.2545  0.1936
  140loPI   C1A 2231  10.518  10.260   9.912 -0.1326 -0.0996  0.0481
  140loPI   C2A 2232  10.448  10.171   9.587  0.0659  0.1019 -0.1344
  140loPI   C3A 2233  10.415  10.186   9.196  0.1830  0.1323  0.2318
  140loPI   C4A 2234  10.371  10.196   8.801  0.0024 -0.2227  0.0915
  140loPI   C5A 2235  10.338  10.190   8.383  0.0243 -0.1661  0.0267
  140loPI   C6A 2236  10.178  10.495   8.140 -0.0766  0.1464  0.1274
  140loPI   C1B 2237  10.243  10.699   9.862 -0.0690 -0.1668  0.2236
  140loPI   C2B 2238  10.262  10.713   9.410 -0.0551 -0.2487  0.2406
  140loPI   C3B 2239  10.161  10.596   9.024  0.1345  0.0626  0.0147
  140loPI   C4B 2240  10.123  10.619   8.584 -0.0928  0.0945 -0.1165
  141loPI    C1 2241   4.333   1.383  11.323 -0.1256 -0.1074  0.0369
  141loPI    C2 2242   4.003   1.180  11.222 -0.1206 -0.1632  0.1310
  141loPI    C3 2243   4.006   1.407  11.552  0.0028 -0.3343  0.2498
  141loPI   PO4 2244   4.451   1.372  11.038  0.3274 -0.2758 -0.3310
  141loPI   GL1 2245   4.618   1.268  10.627 -0.1089  0.1673  0.0281
  141loPI   GL2 2246   4.847   1.545  10.798  0.0589 -0.0578  0.1242
  141loPI   C1A 2247   4.430   1.320  10.269  0.4359 -0.0767 -0.1755
  141loPI   C2A 2248   4.454   1.327   9.852 -0.1249  0.0728 -0.2046
  141loPI   C3A 2249   4.549   1.424   9.333 -0.1797  0.0632  0.5585
  141loPI   C4A 2250   4.616   1.498   8.954 -0.1562  0.2936 -0.0062
  141loPI   C5A 2251   4.968   1.738   8.775 -0.2083  0.0571  0.1422
  141loPI   C6A 2252   5.013   2.087   8.516  0.0101  0.1091  0.1492
  141loPI   C1B 2253   4.801   1.752  10.480  0.0089 -0.3091  0.1078
  141loPI   C2B 2254   4.804   1.791  10.086  0.0977  0.2011 -0.1284
  141loPI   C3B 2255   4.709   1.728   9.673 -0.1906 -0.3062 -0.2828
  141loPI   C4B 2256   4.802   1.839   9.287 -0.2902 -0.1529  0.2941
  142loPI    C1 2257  16.209  10.980  10.901  0.0975 -0.1436 -0.0742
  142loPI    C2 2258  15.871  11.095  11.081  0.0362 -0.4135 -0.0123
  142loPI    C3 2259  16.122  10.846  11.267  0.3263 -0.1287 -0.0134
  142loPI   PO4 2260  16.179  10.952  10.653 -0.2777  0.1597 -0.3998
  142loPI   GL1 2261  16.157  10.832  10.295 -0.0358 -0.0576 -0.0716
  142loPI   GL2 2262  16.354  10.547  10.174  0.1014 -0.2686 -0.0307
  142loPI   C1A 2263  15.932  11.023   9.981 -0.0569 -0.0689 -0.1738
  142loPI   C2A 2264  15.828  11.032   9.596  0.3425  0.1079  0.2985
  142loPI   C3A 2265  15.817  11.074   9.103 -0.0017 -0.1168  0.0008
  142loPI   C4A 2266  15.979  11.114   8.702 -0.1469  0.2661 -0.0997
  142loPI   C5A 2267  16.106  11.190   8.279  0.1509  0.1196  0.0698
  142loPI   C6A 2268  16.371  11.445   8.075 -0.0225 -0.0149  0.1276
  142loPI   C1B 2269  16.168  10.501   9.789  0.0674 -0.2026  0.0120
  142loPI   C2B 2270  16.024  10.534   9.314  0.1688 -0.1676  0.2906
  142loPI   C3B 2271  16.125  10.534   8.905 -0.0845  0.1046  0.1722
  142loPI   C4B 2272  15.999  10.649   8.576 -0.0113 -0.1196  0.0726
  143loPI    C1 2273   4.736   6.396  11.334 -0.1357 -0.0494 -0.1836
  143loPI    C2 2274   4.687   6.783  11.422 -0.0016 -0.0314 -0.1859
  143loPI    C3 2275   4.889   6.545  11.672 -0.0520 -0.0918 -0.2025
  143loPI   PO4 2276   4.888   6.395  11.013 -0.0107 -0.3457  0.1360
  143loPI   GL1 2277   4.876   6.370  10.480 -0.2805 -0.1520 -0.0320
  143loPI   GL2 2278   4.704   6.664  10.377  0.1184 -0.0861 -0.0092
  143loPI   C1A 2279   4.907   6.171  10.037 -0.0988  0.3235 -0.1295
  143loPI   C2A 2280   5.034   6.171   9.644  0.1860  0.2260 -0.2304
  143loPI   C3A 2281   5.046   6.177   9.232 -0.0329  0.3294  0.1220
  143loPI   C4A 2282   5.024   6.250   8.837 -0.0338  0.1841  0.1616
  143loPI   C5A 2283   4.945   6.234   8.434 -0.1828 -0.1151 -0.0317
  143loPI   C6A 2284   4.923   5.843   8.170  0.0604 -0.0393  0.3029
  143loPI   C1B 2285   4.723   6.594   9.936 -0.2721 -0.3026 -0.0176
  143loPI   C2B 2286   4.796   6.561   9.519  0.0101 -0.1463 -0.0984
  143loPI   C3B 2287   4.797   6.672   9.173 -0.4736  0.4463 -0.1657
  143loPI   C4B 2288   4.802   6.674   8.697 -0.0300  0.1083  0.1080
  144loPI    C1 2289   9.429   6.949  11.207 -0.2069  0.0631 -0.4252
  144loPI    C2 2290   9.109   6.769  11.366 -0.0363 -0.1531 -0.3215
  144loPI    C3 2291   9.124   7.168  11.346 -0.1685 -0.1301 -0.0201
  144loPI   PO4 2292   9.471   6.853  10.953 -0.1726  0.0471  0.1373
  144loPI   GL1 2293   9.404   7.008  10.599  0.1732  0.2326  0.1189
  144loPI   GL2 2294   9.208   6.756  10.524  0.1670  0.2370 -0.1627
  144loPI   C1A 2295   9.390   7.199  10.259  0.1483 -0.3248 -0.1568
  144loPI   C2A 2296   9.490   7.138   9.831  0.3296  0.0630  0.0791
  144loPI   C3A 2297   9.300   7.200   9.410 -0.2115 -0.0197 -0.6165
  144loPI   C4A 2298   9.299   7.071   8.919 -0.1031  0.2347  0.0878
  144loPI   C5A 2299   9.151   6.986   8.479  0.0312  0.0223 -0.2343
  144loPI   C6A 2300   8.932   6.739   8.276 -0.1856  0.0778  0.0773
  144loPI   C1B 2301   9.125   6.681  10.070 -0.0376  0.2190  0.2078
  144loPI   C2B 2302   9.050   6.723   9.759 -0.1865  0.1052 -0.1005
  144loPI   C3B 2303   9.013   6.640   9.320 -0.0659  0.1495  0.0415
  144loPI   C4B 2304   8.999   6.644   8.883  0.0962 -0.1922 -0.0399
  145loPI    C1 2305  17.275  11.397  10.598  0.0881 -0.0648  0.0451
  145loPI    C2 2306  17.083  11.066  10.715 -0.0532  0.0087  0.0240
  145loPI    C3 2307  16.963  11.262  10.387  0.0293  0.0813  0.0368
  145loPI   PO4 2308  17.491  11.381  10.431 -0.0600 -0.3042 -0.2948
  145loPI   GL1 2309  17.509  11.369  10.054  0.0623 -0.0450 -0.1914
  145loPI   GL2 2310  17.133  11.373   9.931 -0.1567 -0.0961  0.0423
  145loPI   C1A 2311  17.647  11.395   9.586 -0.2823 -0.1604  0.3090
  145loPI   C2A 2312  17.675  11.331   9.202 -0.2313 -0.3152 -0.3412
  145loPI   C3A 2313  17.789  11.392   8.764 -0.1285  0.1653 -0.0837
  145loPI   C4A 2314  17.792  11.509   8.324  0.0912  0.1064  0.2344
  145loPI   C5A 2315  17.825  11.502   7.978 -0.1633  0.1528  0.1553
  145loPI   C6A 2316  17.890  11.553   7.478 -0.1507  0.1740  0.1589
  145loPI   C1B 2317  17.140  11.444   9.432 -0.0573 -0.0280 -0.0491
  145loPI   C2B 2318  17.208  11.420   9.048  0.1769  0.2088 -0.1800
  145loPI   C3B 2319  17.290  11.465   8.615 -0.3554 -0.0767 -0.1692
  145loPI   C4B 2320  17.301  11.450   8.182 -0.0102 -0.1221  0.1277
  146loPI    C1 2321   1.272   5.382  11.318 -0.0020  0.1649  0.0876
  146loPI    C2 2322   0.967   5.454  11.567 -0.1182 -0.0075 -0.0027
  146loPI    C3 2323   1.263   5.209  11.679 -0.1007  0.0230  0.0179
  146loPI   PO4 2324   1.201   5.247  11.070 -0.3638 -0.0608  0.1277
  146loPI   GL1 2325   1.134   5.330  10.749 -0.0118 -0.0298 -0.1110
  146loPI   GL2 2326   1.086   5.516  10.581  0.1416 -0.2084  0.0102
  146loPI   C1A 2327   1.225   5.109  10.378  0.0659  0.1753 -0.0701
  146loPI   C2A 2328   1.124   5.104   9.885  0.0469  0.1414 -0.0025
  146loPI   C3A 2329   1.014   5.086   9.556  0.0214 -0.1736 -0.3160
  146loPI   C4A 2330   1.015   5.000   9.105  0.1126 -0.0946  0.2269
  146loPI   C5A 2331   1.086   5.136   8.697 -0.3320 -0.0682 -0.1333
  146loPI   C6A 2332   0.617   5.311   8.597  0.0635 -0.0442  0.1651
  146loPI   C1B 2333   0.897   5.493  10.236  0.3626  0.0912 -0.2285
  146loPI   C2B 2334   0.759   5.487   9.866  0.1147  0.0664 -0.0826
  146loPI   C3B 2335   0.799   5.544   9.485 -0.4400  0.2623 -0.1789
  146loPI   C4B 2336   0.791   5.492   9.040 -0.2042 -0.3385  0.0020
  147loPI    C1 2337  13.773   4.515  11.538  0.0224 -0.0864 -0.1760
  147loPI    C2 2338  13.639   4.432  11.906  0.0379 -0.1568 -0.1860
  147loPI    C3 2339  13.944   4.686  11.856 -0.3242  0.2928 -0.1848
  147loPI   PO4 2340  13.640   4.547  11.408  0.1003 -0.0624 -0.0403
  147loPI   GL1 2341  13.696   4.344  10.953 -0.1044  0.1948  0.2578
  147loPI   GL2 2342  13.416   4.297  10.981 -0.0726 -0.3468 -0.1422
  147loPI   C1A 2343  13.650   4.433  10.535  0.1057 -0.0866 -0.2613
  147loPI   C2A 2344  13.733   4.444  10.104 -0.1694 -0.3016  0.0089
  147loPI   C3A 2345  13.617   4.489   9.664 -0.3714 -0.0813  0.0322
  147loPI   C4A 2346  13.651   4.519   9.204 -0.0111  0.1357  0.1974
  147loPI   C5A 2347  13.443   4.564   8.801 -0.2057  0.0438 -0.0216
  147loPI   C6A 2348  13.503   4.439   8.287 -0.0472  0.4732 -0.0040
  147loPI   C1B 2349  13.355   4.043  10.561 -0.0022 -0.1825 -0.2386
  147loPI   C2B 2350  13.377   3.988  10.089 -0.0339 -0.0564 -0.1532
  147loPI   C3B 2351  13.325   4.051   9.642  0.2191  0.2552  0.0256
  147loPI   C4B 2352  13.348   4.069   9.237 -0.0428 -0.1687  0.3525
  148loPI    C1 2353   7.951  16.465  10.679 -0.2217  0.0921  0.1104
  148loPI    C2 2354   7.736  16.161  10.825  0.0502 -0.0909  0.1362
  148loPI    C3 2355   8.096  16.244  10.979  0.0826  0.0906 -0.0339
  148loPI   PO4 2356   7.854  16.472  10.459  0.4100 -0.1823 -0.3665
  148loPI   GL1 2357   7.962  16.245  10.113  0.1422 -0.3538 -0.1872
  148loPI   GL2 2358   7.642  16.051  10.263  0.1222 -0.2354  0.1513
  148loPI   C1A 2359   8.058  16.253   9.665 -0.2481 -0.0749  0.0550
  148loPI   C2A 2360   8.052  16.236   9.262  0.2251  0.2300 -0.0084
  148loPI   C3A 2361   8.168  16.335   8.871 -0.1407  0.2551  0.0165
  148loPI   C4A 2362   8.256  16.360   8.414  0.0240  0.0583 -0.1043
  148loPI   C5A 2363   8.121  16.115   8.118  0.4331  0.0688  0.0303
  148loPI   C6A 2364   7.975  15.969   7.766 -0.1995  0.1035  0.2138
  148loPI   C1B 2365   7.543  16.281   9.861 -0.4379  0.0611  0.1301
  148loPI   C2B 2366   7.560  16.250   9.452  0.0974 -0.3066  0.3487
  148loPI   C3B 2367   7.544  16.242   8.981  0.0380 -0.1747 -0.1065
  148loPI   C4B 2368   7.771  16.297   8.572 -0.1240 -0.0730 -0.2814
  149loPI    C1 2369  16.406  13.554  10.932 -0.2869 -0.1664 -0.0339
  149loPI    C2 2370  16.579  13.514  11.290  0.1312 -0.0144 -0.2121
  149loPI    C3 2371  16.461  13.190  11.088  0.0546 -0.1108 -0.0158
  149loPI   PO4 2372  16.502  13.695  10.785 -0.0296 -0.0470  0.0999
  149loPI   GL1 2373  16.379  13.632  10.378  0.1557 -0.0791  0.4002
  149loPI   GL2 2374  16.220  13.773  10.169  0.1831 -0.0867  0.0602
  149loPI   C1A 2375  16.307  13.318  10.004  0.1353  0.0877 -0.1541
  149loPI   C2A 2376  16.347  13.254   9.559 -0.0138  0.2876 -0.1468
  149loPI   C3A 2377  16.412  13.300   9.096  0.0701  0.1066 -0.2164
  149loPI   C4A 2378  16.366  13.238   8.643  0.1172 -0.1959 -0.0682
  149loPI   C5A 2379  16.281  13.318   8.289 -0.2262  0.0297 -0.0891
  149loPI   C6A 2380  15.944  13.165   8.070  0.1711 -0.0467  0.0562
  149loPI   C1B 2381  16.172  13.793   9.815  0.0180  0.0490 -0.0161
  149loPI   C2B 2382  16.114  13.694   9.445 -0.0558 -0.0755  0.1517
  149loPI   C3B 2383  16.156  13.754   9.039 -0.0978 -0.0818  0.2209
  149loPI   C4B 2384  16.180  13.680   8.655 -0.0183  0.1363 -0.0899
  150loPI    C1 2385  16.268  14.186  11.035  0.0695  0.0296 -0.0744
  150loPI    C2 2386  16.210  13.886  11.293 -0.4218  0.1976  0.0211
  150loPI    C3 2387  16.413  14.211  11.407  0.0572 -0.0613 -0.0632
  150loPI   PO4 2388  16.030  14.210  10.925 -0.0470 -0.0175  0.2481
  150loPI   GL1 2389  15.908  14.221  10.496 -0.1003 -0.0641 -0.2134
  150loPI   GL2 2390  16.277  14.235  10.493  0.4097 -0.1315 -0.2745
  150loPI   C1A 2391  15.865  14.126  10.043  0.0873 -0.1981  0.0993
  150loPI   C2A 2392  15.964  14.230   9.648  0.0499 -0.1133  0.0598
  150loPI   C3A 2393  15.963  14.152   9.215 -0.1495  0.0096 -0.0581
  150loPI   C4A 2394  16.020  14.191   8.779 -0.0852 -0.1227 -0.0784
  150loPI   C5A 2395  16.101  14.077   8.364  0.0430 -0.1214 -0.2050
  150loPI   C6A 2396  16.189  13.766   8.080 -0.0304 -0.0220  0.1239
  150loPI   C1B 2397  16.443  14.223  10.148 -0.1105  0.0757  0.0585
  150loPI   C2B 2398  16.479  14.140   9.697 -0.2262 -0.0397 -0.1294
  150loPI   C3B 2399  16.464  14.127   9.366 -0.2406  0.2011 -0.0843
  150loPI   C4B 2400  16.495  14.163   8.915  0.3656 -0.2028 -0.2193
  151loPI    C1 2401   1.777   6.670  11.172 -0.0562 -0.0973  0.0515
  151loPI    C2 2402   1.900   6.566  11.538  0.0910  0.1387  0.0711
  151loPI    C3 2403   1.509   6.601  11.461  0.0448 -0.2501  0.1102
  151loPI   PO4 2404   1.911   6.537  10.954 -0.1907 -0.0641 -0.2076
  151loPI   GL1 2405   1.853   6.372  10.563  0.3548 -0.2895  0.2455
  151loPI   GL2 2406   1.667   6.145  10.507 -0.0455 -0.0998 -0.1859
  151loPI   C1A 2407   1.985   6.326  10.185  0.0469  0.1606 -0.0874
  151loPI   C2A 2408   1.946   6.353   9.751  0.1561 -0.0369 -0.3668
  151loPI   C3A 2409   1.922   6.267   9.362 -0.1899 -0.2716 -0.0528
  151loPI   C4A 2410   1.920   6.353   8.903  0.0832 -0.0360  0.1069
  151loPI   C5A 2411   1.867   6.393   8.513  0.2966  0.0387 -0.1021
  151loPI   C6A 2412   1.850   6.718   8.082  0.0356  0.1515 -0.1473
  151loPI   C1B 2413   1.680   5.933  10.127 -0.1043  0.1508 -0.1994
  151loPI   C2B 2414   1.646   5.883   9.791  0.2902  0.2452 -0.1267
  151loPI   C3B 2415   1.638   5.856   9.339  0.1875  0.1302 -0.0950
  151loPI   C4B 2416   1.672   5.885   8.931 -0.0201 -0.0993  0.2503
  152loPI    C1 2417  15.669  12.591  10.904  0.0372  0.0420  0.1439
  152loPI    C2 2418  15.951  12.351  11.054  0.1975  0.2243  0.1391
  152loPI    C3 2419  15.595  12.379  11.235  0.1411 -0.0898  0.0834
  152loPI   PO4 2420  15.663  12.528  10.602 -0.0595  0.1815 -0.0662
  152loPI   GL1 2421  15.654  12.199  10.309  0.2531  0.1479 -0.0318
  152loPI   GL2 2422  15.686  12.551  10.102 -0.0747  0.3948 -0.2630
  152loPI   C1A 2423  15.523  11.942   9.964  0.0110 -0.1638  0.0630
  152loPI   C2A 2424  15.423  11.872   9.612 -0.2811 -0.0454  0.2836
  152loPI   C3A 2425  15.459  12.007   9.133 -0.1711  0.0048  0.2383
  152loPI   C4A 2426  15.534  11.948   8.731  0.0340 -0.1913  0.1437
  152loPI   C5A 2427  15.512  12.029   8.278 -0.1751  0.3213  0.0758
  152loPI   C6A 2428  15.734  12.130   7.954 -0.1352  0.0131  0.2605
  152loPI   C1B 2429  15.719  12.441   9.734 -0.1790 -0.6064  0.0308
  152loPI   C2B 2430  15.733  12.427   9.228  0.3962  0.0427 -0.0541
  152loPI   C3B 2431  15.846  12.428   8.793 -0.0598 -0.0330  0.1249
  152loPI   C4B 2432  15.935  12.274   8.466  0.3297  0.1424 -0.0267
  153loPI    C1 2433   2.491  13.313  10.356  0.0396 -0.1801  0.1119
  153loPI    C2 2434   2.666  13.117  10.658 -0.1085 -0.4002  0.0578
  153loPI    C3 2435   2.286  13.239  10.691  0.0371  0.0467  0.1619
  153loPI   PO4 2436   2.536  13.188  10.108  0.1643 -0.0388  0.0353
  153loPI   GL1 2437   2.778  13.334   9.810 -0.1339 -0.2849  0.0341
  153loPI   GL2 2438   2.941  13.539   9.962  0.0694  0.2764  0.1760
  153loPI   C1A 2439   2.815  13.346   9.302 -0.2222  0.1378 -0.0524
  153loPI   C2A 2440   2.900  13.525   8.857  0.0072 -0.0908 -0.1717
  153loPI   C3A 2441   2.881  13.605   8.459  0.0647  0.2202  0.1900
  153loPI   C4A 2442   2.865  13.611   8.118 -0.2014 -0.2596  0.2476
  153loPI   C5A 2443   2.645  13.930   7.990  0.1411 -0.1044  0.1873
  153loPI   C6A 2444   2.637  14.374   8.077  0.0555  0.0569 -0.3840
  153loPI   C1B 2445   2.939  13.755   9.638 -0.1473  0.0660  0.2575
  153loPI   C2B 2446   2.881  13.869   9.240 -0.0259  0.2137  0.0901
  153loPI   C3B 2447   2.669  13.991   8.922  0.0200  0.3374 -0.1267
  153loPI   C4B 2448   2.614  13.991   8.436  0.5660 -0.1492 -0.2010
  154loPI    C1 2449   8.387   8.705  11.119 -0.1124 -0.1335 -0.0252
  154loPI    C2 2450   8.543   8.507  11.429  0.0960 -0.0275 -0.0608
  154loPI    C3 2451   8.537   8.907  11.430  0.0700 -0.0271 -0.1802
  154loPI   PO4 2452   8.443   8.561  10.898  0.2426  0.2083 -0.0346
  154loPI   GL1 2453   8.313   8.391  10.688  0.3593  0.1515 -0.2558
  154loPI   GL2 2454   8.468   8.154  10.554 -0.4165 -0.0318  0.0148
  154loPI   C1A 2455   8.281   8.532  10.215 -0.0742 -0.1331 -0.3565
  154loPI   C2A 2456   8.311   8.572   9.835 -0.0722  0.0225 -0.2982
  154loPI   C3A 2457   8.234   8.590   9.356 -0.2563 -0.0233  0.0372
  154loPI   C4A 2458   8.240   8.514   8.910 -0.0599 -0.0238  0.1422
  154loPI   C5A 2459   8.258   8.389   8.544  0.2335  0.0762  0.0753
  154loPI   C6A 2460   8.201   8.525   8.201 -0.1091  0.3240 -0.1164
  154loPI   C1B 2461   8.499   8.069  10.062  0.0078  0.3639  0.2573
  154loPI   C2B 2462   8.485   8.112   9.643 -0.0784 -0.0898  0.0007
  154loPI   C3B 2463   8.438   8.141   9.263 -0.0866 -0.0310  0.0372
  154loPI   C4B 2464   8.220   8.017   8.920  0.2476 -0.0615  0.1555
  155loPI    C1 2465  13.396   3.317  11.476 -0.1708 -0.3130  0.2508
  155loPI    C2 2466  13.413   3.488  11.837 -0.0266 -0.0333  0.1147
  155loPI    C3 2467  13.069   3.487  11.632 -0.0211  0.1237  0.1032
  155loPI   PO4 2468  13.611   3.394  11.333 -0.0016 -0.0993  0.1271
  155loPI   GL1 2469  13.682   3.337  10.930  0.2221  0.2173  0.1501
  155loPI   GL2 2470  13.396   3.476  10.684  0.0865  0.2670  0.3920
  155loPI   C1A 2471  13.757   3.148  10.532  0.0359  0.0397  0.1598
  155loPI   C2A 2472  13.817   3.161  10.181 -0.2584  0.4627  0.1804
  155loPI   C3A 2473  13.881   3.128   9.712 -0.0052 -0.1127  0.2226
  155loPI   C4A 2474  13.836   3.141   9.314 -0.1386  0.1131  0.2181
  155loPI   C5A 2475  13.893   3.009   8.843  0.2845 -0.0240 -0.0958
  155loPI   C6A 2476  14.149   3.211   8.426 -0.2613 -0.1199  0.0683
  155loPI   C1B 2477  13.558   3.586  10.275  0.0751  0.0362 -0.3192
  155loPI   C2B 2478  13.593   3.631   9.761  0.0197 -0.2353  0.5739
  155loPI   C3B 2479  13.607   3.625   9.299 -0.2280 -0.1439  0.1436
  155loPI   C4B 2480  13.572   3.564   8.909 -0.0934 -0.0944 -0.3565
  156loPI    C1 2481  14.247  16.856  11.357 -0.1584  0.0476 -0.1816
  156loPI    C2 2482  14.530  17.082  11.527 -0.0228  0.0052 -0.3473
  156loPI    C3 2483  14.231  16.935  11.749  0.0263  0.1376 -0.1909
  156loPI   PO4 2484  14.227  16.937  11.115  0.0496  0.1085 -0.0925
  156loPI   GL1 2485  14.397  17.159  10.738  0.2870  0.1188 -0.1209
  156loPI   GL2 2486  14.516  16.947  10.625 -0.0703 -0.0793 -0.2629
  156loPI   C1A 2487  14.281  17.357  10.401 -0.1318  0.0056 -0.2597
  156loPI   C2A 2488  14.190  17.272   9.964 -0.2027  0.2696 -0.0255
  156loPI   C3A 2489  14.189  17.438   9.569 -0.1155 -0.2019 -0.0576
  156loPI   C4A 2490  14.198  17.332   9.139 -0.0484  0.3363  0.3243
  156loPI   C5A 2491  14.133  17.392   8.685 -0.2601  0.0497  0.2371
  156loPI   C6A 2492  14.064  17.075   8.453 -0.0150 -0.0455 -0.0693
  156loPI   C1B 2493  14.465  16.894  10.191  0.2417  0.3109 -0.1778
  156loPI   C2B 2494  14.501  16.905   9.754 -0.1617 -0.3129  0.1880
  156loPI   C3B 2495  14.391  16.955   9.350 -0.1237  0.0728  0.0857
  156loPI   C4B 2496  14.380  16.954   8.876 -0.0309  0.1833  0.0444
  157loPI    C1 2497   1.091  17.694  11.013 -0.0194  0.0211 -0.0844
  157loPI    C2 2498   1.255  17.862  11.337 -0.1263 -0.0125 -0.0123
  157loPI    C3 2499   1.212  17.465  11.317 -0.1900 -0.0045 -0.0351
  157loPI   PO4 2500   1.174  17.833  10.819 -0.1694 -0.0913 -0.1604
  157loPI   GL1 2501   1.377  18.256  10.650 -0.1863 -0.2447 -0.1831
  157loPI   GL2 2502   1.031  18.300  10.597  0.1653 -0.0826  0.3373
  157loPI   C1A 2503   1.464  18.385  10.271  0.3440  0.0564  0.0157
  157loPI   C2A 2504   1.368  18.483   9.877 -0.1811  0.0106 -0.1615
  157loPI   C3A 2505   1.394  18.422   9.398  0.0750 -0.1502 -0.3941
  157loPI   C4A 2506   1.444  18.368   8.942  0.1788  0.1654  0.1094
  157loPI   C5A 2507   1.521  18.195   8.507 -0.1634  0.1149 -0.2262
  157loPI   C6A 2508   1.437  17.914   8.227  0.0309 -0.1559  0.3031
  157loPI   C1B 2509   0.896  18.409  10.134  0.0778 -0.1990  0.0479
  157loPI   C2B 2510   0.838  18.546   9.659 -0.1971 -0.0435 -0.0594
  157loPI   C3B 2511   0.914  18.503   9.321 -0.0135  0.1800  0.0726
  157loPI   C4B 2512   0.857  18.498   8.862 -0.0392 -0.1814 -0.0129
  158loPI    C1 2513   2.681   9.399  10.520  0.1219 -0.0020 -0.0219
  158loPI    C2 2514   2.546   9.140  10.793 -0.2085  0.1009 -0.0835
  158loPI    C3 2515   2.854   9.380  10.880 -0.0657 -0.1319  0.0625
  158loPI   PO4 2516   2.705   9.368  10.289  0.2313 -0.0042 -0.0519
  158loPI   GL1 2517   2.762   9.015  10.020  0.1222 -0.2030 -0.1274
  158loPI   GL2 2518   3.073   9.161  10.019 -0.1488  0.0899  0.2004
  158loPI   C1A 2519   2.580   9.009   9.562 -0.0083  0.2045  0.1952
  158loPI   C2A 2520   2.519   8.967   9.113  0.2222 -0.2008 -0.2325
  158loPI   C3A 2521   2.530   8.901   8.629  0.1625  0.0304  0.4449
  158loPI   C4A 2522   2.443   9.107   8.264  0.1247 -0.4699 -0.1408
  158loPI   C5A 2523   2.151   9.287   8.118  0.0019  0.2248  0.1412
  158loPI   C6A 2524   1.796   9.314   7.950  0.0602 -0.0059  0.3495
  158loPI   C1B 2525   3.060   9.005   9.613 -0.3437 -0.2067 -0.2251
  158loPI   C2B 2526   3.036   8.935   9.190 -0.0133 -0.1055 -0.2141
  158loPI   C3B 2527   3.107   8.907   8.721 -0.1164  0.0119  0.0965
  158loPI   C4B 2528   3.181   8.820   8.252 -0.2392 -0.3185  0.1585
  159loPI    C1 2529  10.430   9.047  11.002  0.0479  0.1205  0.2353
  159loPI    C2 2530  10.735   9.224  11.191  0.1448 -0.0363  0.2272
  159loPI    C3 2531  10.564   8.899  11.349  0.1964 -0.1416  0.0693
  159loPI   PO4 2532  10.504   9.023  10.738 -0.1670 -0.0810 -0.4160
  159loPI   GL1 2533  10.565   9.124  10.366  0.2361 -0.1189 -0.0353
  159loPI   GL2 2534  10.490   9.355  10.200  0.2925  0.1947 -0.0343
  159loPI   C1A 2535  10.583   8.926   9.980  0.0786 -0.0405 -0.2220
  159loPI   C2A 2536  10.531   8.739   9.576 -0.1953 -0.1180  0.1039
  159loPI   C3A 2537  10.535   8.701   9.207  0.2267 -0.0924 -0.1909
  159loPI   C4A 2538  10.521   8.800   8.760  0.1515  0.2860  0.2508
  159loPI   C5A 2539  10.290   8.769   8.382 -0.0962  0.0716  0.2253
  159loPI   C6A 2540  10.055   8.864   7.968  0.1433 -0.0380  0.0686
  159loPI   C1B 2541  10.350   9.309   9.752  0.0512 -0.0238 -0.0253
  159loPI   C2B 2542  10.393   9.215   9.306  0.1625  0.1886 -0.0588
  159loPI   C3B 2543  10.324   9.271   8.781 -0.1700  0.2741  0.3659
  159loPI   C4B 2544  10.263   9.276   8.311  0.0183  0.0473 -0.3426
  160loPI    C1 2545  17.819   7.914  10.923  0.1052  0.1128 -0.0195
  160loPI    C2 2546  18.006   7.732  11.225  0.1275  0.1328 -0.0213
  160loPI    C3 2547  18.132   8.090  11.099  0.1672  0.0894 -0.1057
  160loPI   PO4 2548  17.681   7.737  10.838  0.0556  0.0653  0.0431
  160loPI   GL1 2549  17.647   7.756  10.484 -0.4092 -0.0658 -0.0553
  160loPI   GL2 2550  17.661   7.434  10.446 -0.0723 -0.0954  0.0433
  160loPI   C1A 2551  17.520   7.846  10.132 -0.0741  0.1303  0.5003
  160loPI   C2A 2552  17.530   7.851   9.616 -0.3245  0.0372 -0.1412
  160loPI   C3A 2553  17.475   7.757   9.290 -0.0434  0.2171  0.2219
  160loPI   C4A 2554  17.491   7.813   8.939  0.0133  0.2027 -0.0683
  160loPI   C5A 2555  17.418   7.718   8.482 -0.1125  0.1724  0.1073
  160loPI   C6A 2556  17.819   7.778   8.218  0.2266 -0.1948  0.0002
  160loPI   C1B 2557  17.729   7.345   9.995  0.0017 -0.1465 -0.2278
  160loPI   C2B 2558  17.735   7.345   9.547 -0.0420 -0.2925 -0.0097
  160loPI   C3B 2559  17.686   7.342   9.081 -0.3942 -0.0238  0.4766
  160loPI   C4B 2560  17.764   7.345   8.650 -0.1375  0.0421  0.0745
  161loPI    C1 2561   7.274   7.643  11.356  0.1927  0.0576  0.0888
  161loPI    C2 2562   7.031   7.961  11.365 -0.0973 -0.1576 -0.0042
  161loPI    C3 2563   7.358   7.953  11.595 -0.2499  0.0784  0.2258
  161loPI   PO4 2564   7.345   7.628  11.092 -0.3144  0.0704 -0.2274
  161loPI   GL1 2565   7.482   7.427  10.707 -0.1226 -0.2513 -0.3373
  161loPI   GL2 2566   7.293   7.712  10.619 -0.1174 -0.2041  0.0331
  161loPI   C1A 2567   7.403   7.364  10.244 -0.1725  0.3296 -0.0437
  161loPI   C2A 2568   7.353   7.360   9.774  0.0256  0.1017 -0.2304
  161loPI   C3A 2569   7.391   7.300   9.380 -0.2102  0.0307 -0.2541
  161loPI   C4A 2570   7.391   7.370   8.979 -0.0184 -0.1955  0.0490
  161loPI   C5A 2571   7.418   7.266   8.569  0.2034  0.0522 -0.1915
  161loPI   C6A 2572   7.147   7.533   8.407  0.2246 -0.0366  0.2082
  161loPI   C1B 2573   7.162   7.840  10.232 -0.1184 -0.3885 -0.2162
  161loPI   C2B 2574   7.172   7.838   9.781  0.0941  0.0560 -0.0103
  161loPI   C3B 2575   7.202   7.774   9.274  0.1780 -0.0765 -0.2637
  161loPI   C4B 2576   7.123   7.787   8.859 -0.1873 -0.0889 -0.1780
  162loPI    C1 2577  14.161  15.279  10.974 -0.0495  0.2320  0.0248
  162loPI    C2 2578  13.828  15.139  11.145  0.0416  0.0548  0.0597
  162loPI    C3 2579  14.118  15.295  11.371  0.0239  0.1199  0.0377
  162loPI   PO4 2580  14.169  15.144  10.748 -0.1608 -0.3894 -0.3788
  162loPI   GL1 2581  14.296  15.259  10.411  0.0948 -0.0781 -0.1435
  162loPI   GL2 2582  14.498  15.054  10.377 -0.0108  0.2136  0.2211
  162loPI   C1A 2583  14.229  15.635  10.017 -0.1378 -0.0730 -0.1772
  162loPI   C2A 2584  14.247  15.654   9.649 -0.0101 -0.1074  0.3055
  162loPI   C3A 2585  14.263  15.672   9.285 -0.0369 -0.1242  0.3813
  162loPI   C4A 2586  14.266  15.655   8.855  0.0847 -0.2343 -0.1501
  162loPI   C5A 2587  14.195  15.655   8.375  0.1108  0.2006  0.0998
  162loPI   C6A 2588  14.338  15.370   8.027  0.0813  0.2580  0.1137
  162loPI   C1B 2589  14.516  15.170   9.887  0.1040 -0.0344  0.0977
  162loPI   C2B 2590  14.437  15.265   9.485 -0.0555  0.3457  0.0612
  162loPI   C3B 2591  14.425  15.204   9.009  0.0892  0.4873 -0.3990
  162loPI   C4B 2592  14.494  15.264   8.546 -0.1615 -0.3443  0.0445
  163loPI    C1 2593  13.127  13.389  11.156  0.0177  0.0666 -0.1151
  163loPI    C2 2594  13.275  13.070  11.346 -0.2910 -0.0384 -0.0456
  163loPI    C3 2595  13.364  13.438  11.475  0.0116 -0.0951 -0.0852
  163loPI   PO4 2596  13.185  13.350  10.948  0.1616 -0.3108 -0.2051
  163loPI   GL1 2597  13.265  13.500  10.603 -0.0674 -0.0999  0.1734
  163loPI   GL2 2598  12.969  13.549  10.563 -0.0795  0.3646 -0.0310
  163loPI   C1A 2599  13.345  13.454  10.177  0.1686 -0.2347 -0.0305
  163loPI   C2A 2600  13.322  13.507   9.668 -0.0376 -0.0203  0.1340
  163loPI   C3A 2601  13.334  13.456   9.178  0.1578 -0.0395  0.4126
  163loPI   C4A 2602  13.288  13.470   8.744  0.0190  0.1300 -0.1982
  163loPI   C5A 2603  13.314  13.805   8.346 -0.3098  0.0230 -0.1257
  163loPI   C6A 2604  13.088  14.137   8.229 -0.1408 -0.1823  0.0355
  163loPI   C1B 2605  12.641  13.295  10.380 -0.0163  0.0959 -0.0869
  163loPI   C2B 2606  12.522  13.133   9.956  0.0064  0.3672  0.2133
  163loPI   C3B 2607  12.468  13.141   9.451  0.0854 -0.1583  0.3314
  163loPI   C4B 2608  12.360  13.085   8.972  0.0388 -0.1081 -0.0472
  164loPI    C1 2609   0.647  12.777  10.594  0.0162 -0.0628 -0.0555
  164loPI    C2 2610   1.014  12.892  10.705  0.0740 -0.0808 -0.2258
  164loPI    C3 2611   0.891  12.518  10.778  0.1314 -0.1085 -0.2696
  164loPI   PO4 2612   0.621  12.886  10.347  0.0458  0.0228  0.0828
  164loPI   GL1 2613   0.607  13.141  10.095  0.1650  0.5653 -0.1907
  164loPI   GL2 2614   0.286  13.370   9.941 -0.0912  0.0710  0.1158
  164loPI   C1A 2615   0.539  13.048   9.638 -0.0788  0.0794  0.0502
  164loPI   C2A 2616   0.536  13.096   9.262 -0.0183  0.3273 -0.2010
  164loPI   C3A 2617   0.614  13.213   8.819 -0.0705  0.2439 -0.0248
  164loPI   C4A 2618   0.604  13.180   8.397  0.2586  0.1035 -0.1806
  164loPI   C5A 2619   0.693  13.107   7.918  0.0819 -0.3909  0.1006
  164loPI   C6A 2620   0.970  12.993   7.627  0.1513  0.0884 -0.1373
  164loPI   C1B 2621   0.235  13.568   9.530 -0.0559 -0.2026  0.3214
  164loPI   C2B 2622   0.261  13.560   9.124 -0.2150  0.3005  0.0518
  164loPI   C3B 2623   0.369  13.705   8.761  0.0590  0.1149  0.0094
  164loPI   C4B 2624   0.404  13.667   8.303 -0.1066  0.0076 -0.0059
  165loPI    C1 2625  12.681   5.150  11.411 -0.0413  0.1047  0.0656
  165loPI    C2 2626  12.896   4.960  11.690 -0.2267  0.1386  0.2335
  165loPI    C3 2627  12.885   5.360  11.684 -0.0828  0.1410  0.0689
  165loPI   PO4 2628  12.801   5.005  11.151  0.1564  0.1322 -0.1814
  165loPI   GL1 2629  12.977   5.187  10.818  0.1106 -0.1418 -0.1284
  165loPI   GL2 2630  13.339   5.237  10.955 -0.0210 -0.1935 -0.1704
  165loPI   C1A 2631  12.894   5.021  10.434  0.0020  0.3205 -0.0694
  165loPI   C2A 2632  12.913   4.915  10.049 -0.0803 -0.0194 -0.3129
  165loPI   C3A 2633  12.898   4.987   9.691 -0.2504 -0.1305 -0.2107
  165loPI   C4A 2634  12.878   4.968   9.245 -0.0622 -0.1566  0.0768
  165loPI   C5A 2635  12.918   4.955   8.808 -0.1791 -0.1191 -0.0366
  165loPI   C6A 2636  12.970   4.966   8.394 -0.0626 -0.0373 -0.1132
  165loPI   C1B 2637  13.611   5.346  10.554 -0.1838  0.0055 -0.0641
  165loPI   C2B 2638  13.728   5.366  10.133  0.1259  0.2259  0.1792
  165loPI   C3B 2639  13.734   5.369   9.694 -0.1781  0.0992  0.1400
  165loPI   C4B 2640  13.694   5.318   9.284  0.0298 -0.3576  0.2931
  166loPI    C1 2641   4.102  10.518  10.424  0.3746 -0.1671  0.0441
  166loPI    C2 2642   4.229  10.620  10.790  0.2680  0.1854 -0.0138
  166loPI    C3 2643   3.860  10.718  10.671  0.1711 -0.2471 -0.0880
  166loPI   PO4 2644   4.393  10.487  10.304  0.0091  0.1754 -0.3252
  166loPI   GL1 2645   4.479  10.217  10.069 -0.0931 -0.1419 -0.1741
  166loPI   GL2 2646   4.370  10.000  10.148 -0.0760  0.0245 -0.0787
  166loPI   C1A 2647   4.590  10.349   9.685  0.2296  0.4181  0.1393
  166loPI   C2A 2648   4.568  10.145   9.298 -0.2270  0.2297 -0.0007
  166loPI   C3A 2649   4.553  10.198   8.816  0.2280  0.0883 -0.2238
  166loPI   C4A 2650   4.516  10.254   8.416  0.0028  0.0508  0.1242
  166loPI   C5A 2651   4.592  10.050   8.150 -0.0462  0.0653 -0.0158
  166loPI   C6A 2652   4.558   9.664   8.113 -0.1782  0.0190 -0.1006
  166loPI   C1B 2653   4.178   9.835   9.747 -0.0665 -0.2160 -0.0218
  166loPI   C2B 2654   4.164   9.818   9.323  0.1904  0.2912  0.1081
  166loPI   C3B 2655   4.172   9.752   8.949 -0.0359 -0.1152  0.2912
  166loPI   C4B 2656   4.262   9.784   8.543  0.0180 -0.1378  0.0232
  167loPI    C1 2657  16.966  13.488  10.983  0.1652  0.1670  0.0142
  167loPI    C2 2658  17.298  13.276  11.053  0.0964  0.0173 -0.1078
  167loPI    C3 2659  16.940  13.100  11.076  0.0246  0.1783  0.0239
  167loPI   PO4 2660  16.998  13.660  10.787  0.3463 -0.0077  0.2959
  167loPI   GL1 2661  16.927  13.594  10.370 -0.0455  0.3577  0.2302
  167loPI   GL2 2662  17.317  13.513  10.172  0.1620  0.1901 -0.0046
  167loPI   C1A 2663  16.671  13.732  10.010 -0.0588  0.0138 -0.1122
  167loPI   C2A 2664  16.572  13.667   9.508 -0.0818 -0.1493 -0.0410
  167loPI   C3A 2665  16.635  13.737   9.062  0.0799 -0.1240 -0.1608
  167loPI   C4A 2666  16.637  13.789   8.538  0.1160  0.1252  0.1497
  167loPI   C5A 2667  16.678  13.733   8.122  0.1739 -0.3009  0.0613
  167loPI   C6A 2668  16.693  14.066   7.885 -0.2856  0.2631 -0.1624
  167loPI   C1B 2669  17.136  13.655   9.838  0.1549 -0.1633  0.1161
  167loPI   C2B 2670  17.169  13.626   9.492  0.3378 -0.1569 -0.0503
  167loPI   C3B 2671  17.129  13.640   9.085  0.0099  0.1142 -0.0869
  167loPI   C4B 2672  17.187  13.701   8.684 -0.1589  0.1650 -0.0326
  168loPI    C1 2673  13.018  12.617  11.149 -0.1755 -0.0781  0.0050
  168loPI    C2 2674  12.861  12.982  11.103 -0.1540 -0.0548  0.1129
  168loPI    C3 2675  12.819  12.789  11.450 -0.0835 -0.1159  0.0878
  168loPI   PO4 2676  13.018  12.537  10.897 -0.0561 -0.2268  0.0712
  168loPI   GL1 2677  12.940  12.242  10.642  0.1509 -0.0135 -0.2568
  168loPI   GL2 2678  12.586  12.324  10.499 -0.1462  0.4277  0.0388
  168loPI   C1A 2679  12.962  12.165  10.126  0.1409 -0.0023  0.0925
  168loPI   C2A 2680  12.970  12.270   9.664  0.0559 -0.0943 -0.0187
  168loPI   C3A 2681  12.882  12.263   9.207 -0.0770 -0.1139 -0.0525
  168loPI   C4A 2682  12.910  12.215   8.769 -0.1931 -0.1258 -0.0987
  168loPI   C5A 2683  13.161  12.462   8.442 -0.2031 -0.0016 -0.0554
  168loPI   C6A 2684  13.185  12.669   8.033  0.1151 -0.0309  0.0095
  168loPI   C1B 2685  12.406  12.217  10.098  0.2130 -0.2368 -0.0496
  168loPI   C2B 2686  12.400  12.286   9.677  0.2090  0.0157 -0.1469
  168loPI   C3B 2687  12.361  12.230   9.224 -0.0260  0.2254 -0.1323
  168loPI   C4B 2688  12.428  12.349   8.802  0.0554 -0.0642 -0.2063
  169loPI    C1 2689   4.166  11.439  10.257 -0.1458  0.1587 -0.2145
  169loPI    C2 2690   4.056  11.668  10.566  0.1016  0.0716 -0.0590
  169loPI    C3 2691   4.404  11.470  10.577 -0.0113 -0.1449 -0.2813
  169loPI   PO4 2692   4.123  11.515  10.005 -0.0492 -0.1464 -0.1823
  169loPI   GL1 2693   4.414  11.610   9.730 -0.0866 -0.0679 -0.1858
  169loPI   GL2 2694   4.563  11.994   9.727 -0.2659  0.2957  0.2833
  169loPI   C1A 2695   4.320  11.500   9.318 -0.0206 -0.1075 -0.2082
  169loPI   C2A 2696   4.335  11.592   8.906  0.3124 -0.1606  0.2016
  169loPI   C3A 2697   4.286  11.476   8.451 -0.2219  0.0645  0.1827
  169loPI   C4A 2698   4.124  11.748   8.194 -0.2360  0.0139  0.2261
  169loPI   C5A 2699   3.909  12.038   7.845 -0.0692  0.0463  0.0258
  169loPI   C6A 2700   3.516  11.990   7.717 -0.1340 -0.0045 -0.0973
  169loPI   C1B 2701   4.677  11.922   9.328  0.2567 -0.2263  0.0139
  169loPI   C2B 2702   4.660  12.031   8.901  0.0449  0.5141 -0.0797
  169loPI   C3B 2703   4.488  12.009   8.470  0.0821 -0.0374  0.0850
  169loPI   C4B 2704   4.514  12.029   7.993 -0.2081 -0.0790 -0.0755
  170loPI    C1 2705  16.067  12.907  10.922 -0.0088  0.1031 -0.0781
  170loPI    C2 2706  16.236  12.737  11.243 -0.0738  0.1340 -0.0273
  170loPI    C3 2707  15.863  12.882  11.266 -0.1373 -0.0051 -0.1611
  170loPI   PO4 2708  16.093  12.759  10.729 -0.1473 -0.0747  0.3937
  170loPI   GL1 2709  16.409  12.786  10.313 -0.0230  0.2604 -0.1493
  170loPI   GL2 2710  16.084  12.951  10.190 -0.2031  0.0775  0.0787
  170loPI   C1A 2711  16.540  12.859   9.915 -0.2349  0.1847  0.1412
  170loPI   C2A 2712  16.575  12.833   9.515  0.0205 -0.0688  0.0178
  170loPI   C3A 2713  16.563  12.749   9.090  0.0381 -0.1963 -0.0409
  170loPI   C4A 2714  16.613  12.788   8.616 -0.0445 -0.0470  0.0017
  170loPI   C5A 2715  16.673  12.896   8.166 -0.0955  0.0624 -0.0370
  170loPI   C6A 2716  16.808  13.256   7.989 -0.0359  0.1205  0.2864
  170loPI   C1B 2717  16.096  12.867   9.698 -0.3368 -0.0391  0.0744
  170loPI   C2B 2718  16.022  12.809   9.303  0.0194  0.1410  0.1690
  170loPI   C3B 2719  16.084  12.845   8.869 -0.0610 -0.1503  0.1309
  170loPI   C4B 2720  16.143  12.842   8.428  0.3046 -0.0516 -0.1919
  171loPI    C1 2721  10.407   5.612  11.473 -0.2515 -0.0998 -0.1787
  171loPI    C2 2722  10.562   5.263  11.594  0.1884  0.1283 -0.0625
  171loPI    C3 2723  10.599   5.589  11.824 -0.2204  0.2552 -0.1687
  171loPI   PO4 2724  10.623   5.613  11.165  0.3243  0.3064  0.2124
  171loPI   GL1 2725  10.823   5.600  10.759  0.1446 -0.2013 -0.2373
  171loPI   GL2 2726  10.691   5.434  10.648  0.1210  0.1101 -0.0288
  171loPI   C1A 2727  11.187   5.552  10.509 -0.0457 -0.2478 -0.0997
  171loPI   C2A 2728  11.205   5.586  10.034  0.1773  0.0166  0.0196
  171loPI   C3A 2729  11.148   5.666   9.647 -0.0653 -0.0794  0.2498
  171loPI   C4A 2730  11.110   5.508   9.393 -0.3078  0.1908  0.4523
  171loPI   C5A 2731  11.153   5.555   8.901  0.5568  0.0660 -0.1795
  171loPI   C6A 2732  11.013   5.669   8.484  0.2383  0.4100 -0.0630
  171loPI   C1B 2733  10.725   5.703  10.249  0.2360  0.1448 -0.1981
  171loPI   C2B 2734  10.646   5.667   9.819 -0.3698  0.2794  0.1587
  171loPI   C3B 2735  10.579   5.697   9.417 -0.2537  0.4573 -0.0868
  171loPI   C4B 2736  10.487   5.657   8.974 -0.1664 -0.2063  0.3280
  172loPI    C1 2737  12.201  11.334  11.263  0.0063  0.0093 -0.0808
  172loPI    C2 2738  12.018  11.228  11.603 -0.0533  0.3090 -0.0166
  172loPI    C3 2739  12.376  11.074  11.512 -0.1366  0.0580  0.0725
  172loPI   PO4 2740  12.034  11.276  11.052 -0.0732  0.1334  0.1738
  172loPI   GL1 2741  12.206  11.081  10.654  0.1071 -0.2062  0.0817
  172loPI   GL2 2742  12.353  11.173  10.470  0.2538 -0.0559 -0.1928
  172loPI   C1A 2743  11.854  11.352  10.380  0.0680 -0.1372 -0.0381
  172loPI   C2A 2744  11.800  11.467  10.005  0.1660  0.0714  0.1383
  172loPI   C3A 2745  11.760  11.427   9.586 -0.0533  0.0440 -0.0820
  172loPI   C4A 2746  11.759  11.393   9.139  0.1486  0.2683  0.1492
  172loPI   C5A 2747  11.719  11.379   8.679  0.1096 -0.1667 -0.0380
  172loPI   C6A 2748  11.510  11.123   8.451  0.1135  0.1750 -0.0696
  172loPI   C1B 2749  12.295  11.433  10.178  0.1170 -0.0750  0.1674
  172loPI   C2B 2750  12.355  11.482   9.707  0.5360 -0.2405 -0.0750
  172loPI   C3B 2751  12.292  11.444   9.360  0.2018 -0.0796 -0.0564
  172loPI   C4B 2752  12.256  11.380   8.932 -0.0643 -0.1217 -0.0378
  173loPI    C1 2753   7.007  13.834  10.737 -0.1469  0.2278  0.1065
  173loPI    C2 2754   7.401  13.853  10.804 -0.1018  0.0881 -0.1112
  173loPI    C3 2755   7.155  13.733  11.095  0.0077  0.2473  0.0490
  173loPI   PO4 2756   6.957  13.790  10.480 -0.1800  0.2574  0.1535
  173loPI   GL1 2757   6.960  13.553  10.174 -0.1501  0.1107 -0.2764
  173loPI   GL2 2758   6.740  13.353  10.333 -0.0485  0.1369  0.1359
  173loPI   C1A 2759   6.936  13.554   9.778  0.1811 -0.3391 -0.0404
  173loPI   C2A 2760   6.815  13.615   9.351 -0.2621  0.0007 -0.2855
  173loPI   C3A 2761   6.735  13.630   8.938  0.2720  0.1103  0.2490
  173loPI   C4A 2762   6.674  13.614   8.550 -0.0617 -0.1079 -0.2712
  173loPI   C5A 2763   6.468  13.343   8.214 -0.1344  0.0490  0.1394
  173loPI   C6A 2764   6.244  12.939   8.027 -0.1570  0.1581  0.0302
  173loPI   C1B 2765   6.573  13.219   9.927  0.1184 -0.0313 -0.1129
  173loPI   C2B 2766   6.495  13.182   9.565  0.1012 -0.0736  0.1335
  173loPI   C3B 2767   6.528  13.174   9.109  0.2481  0.1839 -0.0074
  173loPI   C4B 2768   6.467  13.185   8.666  0.1689 -0.3131 -0.0213
  174loPI    C1 2769   6.240   0.751  10.907 -0.0207 -0.2071 -0.0725
  174loPI    C2 2770   6.198   0.765  11.304  0.0411 -0.2854 -0.0632
  174loPI    C3 2771   6.536   0.622  11.143  0.2591  0.2903 -0.1387
  174loPI   PO4 2772   6.186   1.079  10.793 -0.1968  0.0519  0.0268
  174loPI   GL1 2773   6.212   1.121  10.366 -0.0016  0.1322 -0.1843
  174loPI   GL2 2774   6.030   1.363  10.362  0.1417 -0.2646  0.0392
  174loPI   C1A 2775   6.308   0.821  10.040  0.0297  0.2721 -0.3052
  174loPI   C2A 2776   6.298   0.868   9.671  0.0751 -0.0684 -0.0208
  174loPI   C3A 2777   6.325   0.906   9.251 -0.1732 -0.2374 -0.4111
  174loPI   C4A 2778   6.400   0.620   8.862 -0.1125 -0.0276  0.2566
  174loPI   C5A 2779   6.234   0.622   8.468 -0.2912 -0.0305 -0.0807
  174loPI   C6A 2780   6.327   0.837   8.060 -0.1974 -0.0300  0.1012
  174loPI   C1B 2781   6.108   1.333   9.957  0.1523  0.0036  0.0128
  174loPI   C2B 2782   6.170   1.387   9.537  0.3337  0.1708 -0.0890
  174loPI   C3B 2783   6.074   1.294   9.082  0.2410  0.1516 -0.0421
  174loPI   C4B 2784   5.964   1.181   8.708  0.1647 -0.0179 -0.0679
  175loPI    C1 2785   1.363   6.711  10.847 -0.0442 -0.0363  0.1535
  175loPI    C2 2786   1.065   6.969  10.915 -0.0118  0.0176  0.0914
  175loPI    C3 2787   1.399   6.987  11.134 -0.0470 -0.0319  0.1496
  175loPI   PO4 2788   1.433   6.661  10.624  0.0468 -0.1459 -0.4123
  175loPI   GL1 2789   1.468   6.802  10.272 -0.1997  0.0059 -0.0601
  175loPI   GL2 2790   1.725   6.778  10.166  0.1068 -0.0583  0.0494
  175loPI   C1A 2791   1.440   6.385  10.036  0.0370 -0.2072 -0.3167
  175loPI   C2A 2792   1.447   6.294   9.597  0.2146  0.1191  0.0698
  175loPI   C3A 2793   1.410   6.279   9.118  0.2452  0.1708 -0.2598
  175loPI   C4A 2794   1.386   6.301   8.730  0.0693  0.0687  0.2919
  175loPI   C5A 2795   1.167   6.145   8.370 -0.1600 -0.0563 -0.0300
  175loPI   C6A 2796   1.014   6.156   7.929 -0.2403  0.0951  0.1032
  175loPI   C1B 2797   1.640   6.781   9.719 -0.3245  0.0274  0.3471
  175loPI   C2B 2798   1.684   6.710   9.245 -0.0502  0.0464 -0.0355
  175loPI   C3B 2799   1.671   6.790   8.765  0.3275 -0.0848 -0.2103
  175loPI   C4B 2800   1.483   6.858   8.403  0.0405 -0.2535  0.0033
  176loPI    C1 2801  16.807  12.140  10.608  0.0391 -0.1754  0.0002
  176loPI    C2 2802  17.054  12.326  10.861  0.0080 -0.1290 -0.0032
  176loPI    C3 2803  16.800  12.050  10.997 -0.0649 -0.0464  0.0291
  176loPI   PO4 2804  16.683  12.326  10.407  0.1318 -0.1919  0.1719
  176loPI   GL1 2805  16.435  12.356  10.071 -0.3346  0.0459  0.0966
  176loPI   GL2 2806  16.153  12.467   9.999 -0.1245  0.0945  0.0006
  176loPI   C1A 2807  16.716  12.337   9.747  0.0731 -0.0754  0.3257
  176loPI   C2A 2808  16.832  12.319   9.400  0.0621 -0.2090  0.2254
  176loPI   C3A 2809  16.772  12.356   8.911  0.0160 -0.0967  0.2653
  176loPI   C4A 2810  16.826  12.341   8.446  0.0199 -0.2112 -0.3871
  176loPI   C5A 2811  16.836  12.343   8.083 -0.0642 -0.2079  0.1828
  176loPI   C6A 2812  16.579  12.518   7.804 -0.2069  0.2270  0.1528
  176loPI   C1B 2813  16.282  12.383   9.559  0.0835 -0.0773 -0.3676
  176loPI   C2B 2814  16.260  12.352   9.099  0.1589 -0.3378 -0.1749
  176loPI   C3B 2815  16.349  12.396   8.686  0.1505 -0.0723 -0.1205
  176loPI   C4B 2816  16.360  12.411   8.248  0.1767 -0.0160  0.1318
  177loPI    C1 2817   2.529   6.201  10.953 -0.1549 -0.3214  0.0400
  177loPI    C2 2818   2.631   6.205  11.339 -0.0482 -0.0582  0.0114
  177loPI    C3 2819   2.282   6.362  11.223 -0.1074 -0.1916  0.0068
  177loPI   PO4 2820   2.750   6.223  10.810 -0.1111  0.0900  0.0902
  177loPI   GL1 2821   2.872   5.969  10.549 -0.1236  0.0779 -0.0655
  177loPI   GL2 2822   3.163   5.907  10.401  0.0910  0.0165  0.1336
  177loPI   C1A 2823   2.710   5.798  10.195 -0.0314  0.1736  0.1104
  177loPI   C2A 2824   2.621   5.750   9.769  0.0777  0.1992 -0.1853
  177loPI   C3A 2825   2.672   5.783   9.353 -0.3632 -0.1417  0.0474
  177loPI   C4A 2826   2.636   5.832   8.878 -0.0709 -0.1898  0.1875
  177loPI   C5A 2827   2.557   5.925   8.451  0.0648 -0.4233  0.1313
  177loPI   C6A 2828   2.620   6.165   8.108 -0.2918  0.0528 -0.1949
  177loPI   C1B 2829   3.137   5.754   9.893 -0.2057  0.1950 -0.2996
  177loPI   C2B 2830   3.152   5.798   9.468  0.1619  0.0309  0.1726
  177loPI   C3B 2831   3.192   5.723   9.074 -0.2060 -0.1036  0.0176
  177loPI   C4B 2832   3.162   5.814   8.649  0.3114  0.0838  0.2717
  178loPI    C1 2833  16.743   3.320  11.626  0.0532  0.0651  0.1404
  178loPI    C2 2834  16.643   2.965  11.780 -0.0337  0.0635  0.0814
  178loPI    C3 2835  17.029   3.066  11.744 -0.0083 -0.0323  0.0811
  178loPI   PO4 2836  16.668   3.292  11.465 -0.0592 -0.1400  0.1337
  178loPI   GL1 2837  16.656   3.364  11.075 -0.0059  0.0282 -0.0403
  178loPI   GL2 2838  16.398   3.256  10.954 -0.1179 -0.2622  0.2467
  178loPI   C1A 2839  16.701   3.462  10.616 -0.1184 -0.1028 -0.2131
  178loPI   C2A 2840  16.786   3.466  10.235 -0.0986  0.2013 -0.1943
  178loPI   C3A 2841  16.713   3.489   9.865  0.2567 -0.0516 -0.1500
  178loPI   C4A 2842  16.677   3.555   9.346 -0.0910  0.0064  0.1522
  178loPI   C5A 2843  16.639   3.464   8.918 -0.0634 -0.1201  0.1805
  178loPI   C6A 2844  16.302   3.156   8.642  0.0064  0.0084 -0.0642
  178loPI   C1B 2845  16.454   3.052  10.492 -0.0558 -0.0911  0.2950
  178loPI   C2B 2846  16.456   3.009  10.070  0.0136 -0.0034 -0.2603
  178loPI   C3B 2847  16.432   3.033   9.656  0.0921  0.0819 -0.0247
  178loPI   C4B 2848  16.333   3.108   9.232  0.2604 -0.0008 -0.4638
  179loPI    C1 2849   2.344   8.668  10.763 -0.1847  0.1209  0.0641
  179loPI    C2 2850   2.381   8.793  11.141 -0.0219  0.0795  0.0622
  179loPI    C3 2851   2.027   8.661  11.008 -0.0335 -0.0925  0.2574
  179loPI   PO4 2852   2.545   8.703  10.568  0.0475  0.0694  0.0687
  179loPI   GL1 2853   2.690   8.472  10.152  0.2716  0.1516 -0.0583
  179loPI   GL2 2854   2.430   8.269  10.356  0.0115 -0.0740  0.0478
  179loPI   C1A 2855   2.782   8.585   9.725 -0.0616 -0.2421 -0.2626
  179loPI   C2A 2856   2.825   8.513   9.379  0.1043  0.1982 -0.0103
  179loPI   C3A 2857   2.723   8.511   8.995 -0.1582 -0.0840  0.2213
  179loPI   C4A 2858   2.750   8.386   8.556  0.1159  0.0803  0.1809
  179loPI   C5A 2859   2.787   8.553   8.120  0.1059 -0.3243 -0.3322
  179loPI   C6A 2860   2.987   8.738   7.809  0.0723  0.1201  0.1025
  179loPI   C1B 2861   2.521   8.135   9.890 -0.0547  0.0891  0.0314
  179loPI   C2B 2862   2.547   8.118   9.531  0.2620  0.0255  0.2999
  179loPI   C3B 2863   2.538   8.030   9.109  0.0461  0.0819 -0.0964
  179loPI   C4B 2864   2.520   8.003   8.617  0.2928 -0.0128  0.0049
  180loPI    C1 2865  12.412  17.404  11.220  0.2323 -0.0005  0.1539
  180loPI    C2 2866  12.143  17.700  11.208  0.5225  0.2648  0.0874
  180loPI    C3 2867  12.094  17.396  11.463  0.0431  0.1918 -0.0824
  180loPI   PO4 2868  12.502  17.494  10.863  0.2844  0.2662  0.4267
  180loPI   GL1 2869  12.525  17.233  10.524  0.0362 -0.1321  0.1359
  180loPI   GL2 2870  12.439  17.659  10.375  0.0341 -0.2211  0.0032
  180loPI   C1A 2871  12.436  17.232  10.025 -0.0608  0.0819 -0.0645
  180loPI   C2A 2872  12.365  17.073   9.649 -0.1259  0.0317  0.2323
  180loPI   C3A 2873  12.383  17.077   9.224 -0.1718 -0.0055 -0.1885
  180loPI   C4A 2874  12.289  17.040   8.744 -0.1955 -0.0960 -0.0483
  180loPI   C5A 2875  12.318  17.005   8.320  0.3427 -0.1464 -0.0202
  180loPI   C6A 2876  12.423  16.502   8.223  0.1058  0.0265  0.0704
  180loPI   C1B 2877  12.406  17.853  10.027 -0.1559 -0.0763 -0.0058
  180loPI   C2B 2878  12.335  17.931   9.605  0.2218 -0.0709 -0.0273
  180loPI   C3B 2879  12.411  17.982   9.188  0.0207  0.2141 -0.0444
  180loPI   C4B 2880  12.483  17.932   8.767  0.0123 -0.0656  0.0394
  181loPI    C1 2881   3.208   4.568  11.159 -0.1118 -0.1105  0.1619
  181loPI    C2 2882   3.284   4.905  11.360 -0.1334  0.0916 -0.1618
  181loPI    C3 2883   3.023   4.639  11.507  0.0979  0.0769  0.2366
  181loPI   PO4 2884   3.497   4.467  10.986 -0.0388 -0.0072  0.0811
  181loPI   GL1 2885   3.458   4.516  10.600  0.0836  0.1235  0.0156
  181loPI   GL2 2886   3.675   4.714  10.555  0.1613  0.0129  0.0239
  181loPI   C1A 2887   3.390   4.460  10.147  0.1500  0.1035 -0.0187
  181loPI   C2A 2888   3.340   4.471   9.755 -0.1978  0.1220  0.4160
  181loPI   C3A 2889   3.394   4.524   9.273  0.0005 -0.0935  0.4090
  181loPI   C4A 2890   3.438   4.558   8.815  0.5144 -0.1726  0.1640
  181loPI   C5A 2891   3.634   4.681   8.498  0.1398 -0.1815  0.0328
  181loPI   C6A 2892   3.872   4.895   8.151  0.0539  0.3857  0.0210
  181loPI   C1B 2893   3.605   4.867  10.231 -0.1688  0.3780  0.4650
  181loPI   C2B 2894   3.646   4.955   9.893 -0.1608 -0.1134  0.1829
  181loPI   C3B 2895   3.639   4.858   9.481  0.4838 -0.2133 -0.0888
  181loPI   C4B 2896   3.702   4.926   9.029 -0.0535 -0.0819 -0.1405
  182loPI    C1 2897  12.833  10.022  11.033 -0.2747 -0.0337 -0.2199
  182loPI    C2 2898  12.482  10.080  11.215 -0.1828 -0.0961 -0.0204
  182loPI    C3 2899  12.819  10.068  11.430 -0.0834 -0.2712 -0.1833
  182loPI   PO4 2900  12.902   9.896  10.945  0.1955  0.0806 -0.1025
  182loPI   GL1 2901  12.775   9.776  10.583 -0.0794 -0.1895 -0.3840
  182loPI   GL2 2902  12.876   9.584  10.410 -0.1582  0.0997 -0.1582
  182loPI   C1A 2903  12.589  10.046  10.271 -0.2905  0.1181 -0.1709
  182loPI   C2A 2904  12.444  10.087   9.858  0.0130 -0.0563  0.2946
  182loPI   C3A 2905  12.439   9.953   9.373 -0.0010 -0.1156 -0.1076
  182loPI   C4A 2906  12.317   9.972   8.923 -0.0783  0.0490 -0.2321
  182loPI   C5A 2907  12.545   9.963   8.445  0.2787  0.4494 -0.1074
  182loPI   C6A 2908  12.799  10.025   8.101  0.3003 -0.0563  0.1574
  182loPI   C1B 2909  12.642   9.594  10.084  0.1507 -0.0978 -0.3577
  182loPI   C2B 2910  12.699   9.592   9.618  0.1280  0.3326 -0.4067
  182loPI   C3B 2911  12.679   9.490   9.246  0.2126 -0.0453  0.2475
  182loPI   C4B 2912  12.580   9.479   8.785 -0.0303  0.1947  0.0506
  183loPI    C1 2913   0.580  16.191  11.011 -0.2485 -0.1280  0.1136
  183loPI    C2 2914   0.389  16.291  11.348 -0.2282  0.1306  0.0505
  183loPI    C3 2915   0.377  15.914  11.215 -0.1107 -0.0075  0.4210
  183loPI   PO4 2916   0.550  16.278  10.815  0.1849 -0.4111  0.0548
  183loPI   GL1 2917   0.675  16.056  10.477 -0.0276 -0.1917 -0.1140
  183loPI   GL2 2918   1.027  15.940  10.573 -0.1213  0.3984  0.0342
  183loPI   C1A 2919   0.439  16.221  10.060 -0.0034  0.1685 -0.0106
  183loPI   C2A 2920   0.559  16.231   9.640  0.1451 -0.2225 -0.2552
  183loPI   C3A 2921   0.553  16.279   9.179  0.0321  0.1727  0.1713
  183loPI   C4A 2922   0.499  16.268   8.823  0.2117 -0.1092 -0.1901
  183loPI   C5A 2923   0.677  16.495   8.483 -0.1038 -0.1695 -0.1311
  183loPI   C6A 2924   0.744  16.885   8.508  0.3379 -0.2035  0.0851
  183loPI   C1B 2925   1.024  16.064  10.146 -0.0365  0.3258  0.0199
  183loPI   C2B 2926   1.083  16.125   9.648 -0.0280 -0.2975  0.2059
  183loPI   C3B 2927   1.035  16.220   9.248 -0.0993 -0.0522  0.0904
  183loPI   C4B 2928   1.052  16.247   8.825  0.3971 -0.2528  0.3566
  184loPI    C1 2929  16.960   5.792  11.129  0.1839  0.2506 -0.1885
  184loPI    C2 2930  16.768   5.899  10.795 -0.0642  0.1296 -0.0879
  184loPI    C3 2931  16.571   5.883  11.142  0.0828 -0.1773 -0.0141
  184loPI   PO4 2932  17.231   5.853  11.045  0.5055  0.0183  0.0388
  184loPI   GL1 2933  17.284   5.678  10.643 -0.0345  0.0653 -0.2220
  184loPI   GL2 2934  17.463   5.907  10.503  0.0740 -0.1995 -0.2481
  184loPI   C1A 2935  17.098   5.617  10.334 -0.3150  0.1831  0.1185
  184loPI   C2A 2936  17.105   5.498   9.873  0.1059  0.1347 -0.0938
  184loPI   C3A 2937  17.138   5.595   9.505 -0.0198  0.0553 -0.1742
  184loPI   C4A 2938  17.063   5.543   9.088  0.2166  0.0782  0.1291
  184loPI   C5A 2939  17.198   5.751   8.690  0.2471 -0.0273  0.0352
  184loPI   C6A 2940  17.354   6.104   8.438  0.0013 -0.2751 -0.2099
  184loPI   C1B 2941  17.458   6.044  10.173 -0.0465 -0.0683  0.0678
  184loPI   C2B 2942  17.416   5.971   9.756 -0.0808 -0.1154  0.1432
  184loPI   C3B 2943  17.407   6.027   9.389 -0.0114  0.1535 -0.0254
  184loPI   C4B 2944  17.439   6.029   9.012  0.1668 -0.2986  0.1443
  185loPI    C1 2945   2.930   3.157  11.041 -0.0022 -0.1583  0.2103
  185loPI    C2 2946   3.208   3.065  10.768  0.0326  0.1502  0.1381
  185loPI    C3 2947   3.237   2.918  11.139  0.1660 -0.0036  0.0683
  185loPI   PO4 2948   2.907   3.369  10.988 -0.2234  0.1028 -0.0635
  185loPI   GL1 2949   2.921   3.695  10.638 -0.1534  0.0558 -0.0621
  185loPI   GL2 2950   3.043   3.488  10.553 -0.0554 -0.1070 -0.0785
  185loPI   C1A 2951   2.817   3.675  10.135 -0.1058 -0.2122 -0.0158
  185loPI   C2A 2952   2.851   3.713   9.657 -0.1947  0.2250  0.0445
  185loPI   C3A 2953   2.750   3.652   9.195  0.2990  0.0387  0.0970
  185loPI   C4A 2954   2.753   3.649   8.746 -0.2326  0.1001 -0.0819
  185loPI   C5A 2955   3.110   3.832   8.447  0.1999  0.1646 -0.1672
  185loPI   C6A 2956   3.328   4.176   8.441  0.1580  0.0485 -0.1064
  185loPI   C1B 2957   3.322   3.608  10.180  0.2268  0.0815  0.1000
  185loPI   C2B 2958   3.408   3.667   9.800  0.4029 -0.0933 -0.0940
  185loPI   C3B 2959   3.329   3.677   9.301  0.1439 -0.1959  0.1843
  185loPI   C4B 2960   3.297   3.555   8.826 -0.1353  0.3971 -0.1680
  186loPI    C1 2961   9.335  16.861  10.440  0.1482 -0.1037 -0.2616
  186loPI    C2 2962   9.498  17.198  10.299 -0.1373  0.0992 -0.1159
  186loPI    C3 2963   9.117  17.110  10.217 -0.0578 -0.2039 -0.1744
  186loPI   PO4 2964   9.430  16.632  10.415 -0.0891  0.0115  0.0387
  186loPI   GL1 2965   9.602  16.518  10.019  0.2822 -0.0244 -0.0513
  186loPI   GL2 2966   9.491  16.840   9.945 -0.1815 -0.1286 -0.5586
  186loPI   C1A 2967   9.629  16.211   9.702  0.1641 -0.1230  0.1176
  186loPI   C2A 2968   9.647  16.128   9.215  0.0318 -0.0294  0.0530
  186loPI   C3A 2969   9.718  16.185   8.824 -0.2276 -0.2468  0.1261
  186loPI   C4A 2970   9.769  16.346   8.410  0.1549 -0.1273 -0.0641
  186loPI   C5A 2971   9.976  16.658   8.154 -0.0011  0.0782 -0.0970
  186loPI   C6A 2972  10.401  16.559   7.917 -0.0089 -0.0411  0.1002
  186loPI   C1B 2973   9.465  16.718   9.554  0.1118 -0.0005 -0.3016
  186loPI   C2B 2974   9.496  16.594   9.126  0.2111 -0.1945 -0.1493
  186loPI   C3B 2975   9.331  16.512   8.816  0.0821 -0.0069 -0.0607
  186loPI   C4B 2976   9.282  16.232   8.537 -0.2396 -0.0289 -0.0316
  187loPI    C1 2977   5.388   0.800  11.003 -0.0119 -0.1043  0.3598
  187loPI    C2 2978   5.699   0.787  10.752 -0.3343 -0.1259 -0.0492
  187loPI    C3 2979   5.732   0.978  11.101  0.0653  0.0663 -0.1859
  187loPI   PO4 2980   5.155   0.702  10.816  0.0407  0.1379 -0.0925
  187loPI   GL1 2981   5.224   0.627  10.450  0.0489 -0.2042  0.2875
  187loPI   GL2 2982   5.003   0.336  10.497 -0.3522 -0.1011  0.1793
  187loPI   C1A 2983   5.262   0.868  10.127 -0.1550  0.1234 -0.2861
  187loPI   C2A 2984   5.332   0.992   9.783 -0.3694 -0.0697  0.1455
  187loPI   C3A 2985   5.188   0.925   9.379 -0.0588  0.3273 -0.1414
  187loPI   C4A 2986   5.192   0.817   8.923  0.0278  0.0068  0.1359
  187loPI   C5A 2987   5.242   0.806   8.464 -0.3308  0.1081  0.1402
  187loPI   C6A 2988   4.903   0.627   8.359 -0.0368  0.0242  0.0201
  187loPI   C1B 2989   4.893   0.397  10.107 -0.2492 -0.0626  0.0404
  187loPI   C2B 2990   4.940   0.470   9.700 -0.1336  0.1394 -0.1266
  187loPI   C3B 2991   5.001   0.450   9.247 -0.0837  0.3160  0.2223
  187loPI   C4B 2992   5.019   0.343   8.789  0.1032  0.0766  0.3483
  188loPI    C1 2993   4.612  16.283  11.375 -0.1425  0.2173  0.0279
  188loPI    C2 2994   4.788  16.634  11.445  0.0087  0.1259  0.1100
  188loPI    C3 2995   4.445  16.543  11.628 -0.0443  0.2409  0.0687
  188loPI   PO4 2996   4.552  16.260  11.160 -0.0333  0.1440 -0.2142
  188loPI   GL1 2997   4.497  16.217  10.782 -0.0113 -0.1785 -0.2433
  188loPI   GL2 2998   4.445  15.965  10.663 -0.0296  0.1069  0.1948
  188loPI   C1A 2999   4.332  16.410  10.443 -0.0939 -0.0165  0.0290
  188loPI   C2A 3000   4.353  16.423  10.110  0.3517  0.2303 -0.1406
  188loPI   C3A 3001   4.381  16.355   9.692  0.0447 -0.0635 -0.0256
  188loPI   C4A 3002   4.336  16.459   9.291 -0.5172 -0.1506 -0.1364
  188loPI   C5A 3003   4.467  16.514   8.854  0.2060 -0.2292  0.0012
  188loPI   C6A 3004   4.743  16.744   8.658  0.1606 -0.2132 -0.2447
  188loPI   C1B 3005   4.547  15.977  10.272 -0.1322  0.1534 -0.3086
  188loPI   C2B 3006   4.631  15.905   9.820 -0.3195  0.0947  0.2085
  188loPI   C3B 3007   4.606  15.996   9.419  0.0256  0.1329 -0.1742
  188loPI   C4B 3008   4.653  16.068   9.027  0.1646  0.1894  0.2093
  189loPI    C1 3009   3.870  17.617  11.089  0.0445  0.0608  0.2325
  189loPI    C2 3010   3.957  17.319  11.342  0.1989 -0.0074  0.1018
  189loPI    C3 3011   3.758  17.642  11.472  0.2646 -0.0477  0.3058
  189loPI   PO4 3012   3.685  17.448  10.880 -0.0591 -0.0525 -0.1109
  189loPI   GL1 3013   3.949  17.356  10.609 -0.1564 -0.0681  0.0188
  189loPI   GL2 3014   3.856  17.058  10.584 -0.0764  0.0972 -0.2370
  189loPI   C1A 3015   3.918  17.330  10.177 -0.0655 -0.1976 -0.1976
  189loPI   C2A 3016   4.013  17.394   9.758  0.1433 -0.1499 -0.1167
  189loPI   C3A 3017   3.869  17.458   9.393 -0.1285 -0.1188 -0.1436
  189loPI   C4A 3018   3.863  17.449   8.964 -0.1510  0.0422  0.1238
  189loPI   C5A 3019   3.885  17.525   8.560  0.1875 -0.1998 -0.2914
  189loPI   C6A 3020   3.590  17.418   8.187 -0.0858 -0.0157 -0.2503
  189loPI   C1B 3021   4.182  16.890  10.288 -0.4772 -0.3036  0.1546
  189loPI   C2B 3022   4.164  16.936   9.866  0.1872  0.2237 -0.0058
  189loPI   C3B 3023   4.121  16.892   9.519 -0.3925 -0.2742  0.1115
  189loPI   C4B 3024   4.147  16.950   9.037 -0.0290 -0.0326 -0.1496
  190loPI    C1 3025  12.183   5.356  11.374 -0.1181  0.1249 -0.0565
  190loPI    C2 3026  11.863   5.139  11.476  0.0380 -0.1125 -0.0650
  190loPI    C3 3027  11.971   5.452  11.700 -0.0767 -0.1588  0.0568
  190loPI   PO4 3028  12.246   5.488  11.160  0.0681  0.0738  0.3404
  190loPI   GL1 3029  12.232   5.443  10.749  0.1128  0.2989  0.3107
  190loPI   GL2 3030  12.476   5.107  10.791  0.0716 -0.2598  0.0728
  190loPI   C1A 3031  12.200   5.537  10.255 -0.2306  0.0631  0.0685
  190loPI   C2A 3032  12.168   5.489   9.820  0.4352 -0.0804  0.0870
  190loPI   C3A 3033  12.056   5.470   9.407 -0.0221  0.1441  0.1196
  190loPI   C4A 3034  12.098   5.552   9.035  0.1447  0.0197  0.2678
  190loPI   C5A 3035  12.065   5.567   8.619  0.2104  0.0737 -0.0370
  190loPI   C6A 3036  12.480   5.667   8.392  0.3818  0.1889  0.0447
  190loPI   C1B 3037  12.426   5.065  10.304  0.0810  0.0209  0.3895
  190loPI   C2B 3038  12.416   5.005   9.885 -0.1608  0.0688  0.1173
  190loPI   C3B 3039  12.375   5.044   9.438 -0.0373  0.0025 -0.2161
  190loPI   C4B 3040  12.436   5.014   8.997 -0.2247  0.1316 -0.1904
  191loPI    C1 3041   0.181  10.930  10.431  0.0338 -0.0768 -0.1080
  191loPI    C2 3042   0.172  10.549  10.309  0.2135 -0.1478  0.0943
  191loPI    C3 3043   0.283  10.637  10.683 -0.3233  0.0672  0.2125
  191loPI   PO4 3044   0.065  11.065  10.236  0.2918  0.2151  0.0918
  191loPI   GL1 3045  -0.115  10.891   9.873  0.0928  0.1555  0.1061
  191loPI   GL2 3046  -0.385  10.947   9.797  0.0517 -0.1190 -0.0788
  191loPI   C1A 3047  -0.109  10.554   9.631 -0.1605  0.0788  0.0128
  191loPI   C2A 3048  -0.171  10.449   9.147  0.1439 -0.1543  0.1428
  191loPI   C3A 3049  -0.179  10.468   8.766 -0.1986 -0.3736  0.0749
  191loPI   C4A 3050  -0.080  10.647   8.372 -0.0219  0.0339 -0.1842
  191loPI   C5A 3051   0.053  10.828   8.046 -0.2206  0.1517  0.0996
  191loPI   C6A 3052   0.315  11.172   7.806 -0.0071  0.0764 -0.1776
  191loPI   C1B 3053  -0.399  10.902   9.367  0.1103 -0.0591  0.1301
  191loPI   C2B 3054  -0.430  10.936   8.927 -0.2801 -0.0386 -0.2959
  191loPI   C3B 3055  -0.355  11.000   8.583 -0.1721 -0.1596  0.4274
  191loPI   C4B 3056  -0.489  10.964   8.199 -0.2210 -0.1794  0.2243
  192loPI    C1 3057  10.753   6.435  11.147  0.1038  0.2358 -0.0319
  192loPI    C2 3058  10.450   6.693  11.191 -0.1000 -0.0081  0.0166
  192loPI    C3 3059  10.562   6.462  11.498 -0.0987 -0.1704 -0.1043
  192loPI   PO4 3060  10.717   6.336  10.928  0.0544 -0.0442 -0.0998
  192loPI   GL1 3061  10.925   6.469  10.641  0.1235 -0.2824 -0.0023
  192loPI   GL2 3062  10.952   6.143  10.473  0.0839 -0.2877 -0.3100
  192loPI   C1A 3063  11.173   6.612  10.181  0.0573 -0.0850  0.0634
  192loPI   C2A 3064  11.140   6.511   9.734  0.1720  0.1930 -0.0209
  192loPI   C3A 3065  11.165   6.490   9.333  0.0983 -0.0161  0.2448
  192loPI   C4A 3066  11.143   6.566   8.880 -0.1096 -0.3894 -0.4559
  192loPI   C5A 3067  11.262   6.417   8.519  0.0372  0.0476 -0.1737
  192loPI   C6A 3068  11.473   6.031   8.422 -0.0329 -0.2203 -0.1185
  192loPI   C1B 3069  10.922   6.033  10.019  0.0315 -0.0397  0.1778
  192loPI   C2B 3070  10.895   6.070   9.578 -0.1486 -0.0542  0.0050
  192loPI   C3B 3071  10.876   5.989   9.155 -0.0403  0.1538 -0.1642
  192loPI   C4B 3072  10.828   6.090   8.702  0.4513 -0.0460 -0.2226
  193loPI    C1 3073   3.408  12.791  10.343 -0.1876  0.1187  0.0006
  193loPI    C2 3074   3.486  13.165  10.460 -0.0568  0.1199 -0.0897
  193loPI    C3 3075   3.252  12.931  10.684 -0.0068  0.2024  0.0499
  193loPI   PO4 3076   3.338  12.819  10.158 -0.2244  0.0673  0.1293
  193loPI   GL1 3077   3.377  12.681   9.744 -0.2800  0.0102  0.2329
  193loPI   GL2 3078   3.691  12.812   9.765 -0.1560 -0.1975 -0.0470
  193loPI   C1A 3079   3.265  12.536   9.442  0.2413 -0.0276 -0.1036
  193loPI   C2A 3080   3.316  12.643   9.079 -0.1233 -0.0676 -0.1287
  193loPI   C3A 3081   3.246  12.616   8.705  0.2077 -0.2926 -0.1650
  193loPI   C4A 3082   3.209  12.671   8.274  0.1112 -0.0564 -0.0595
  193loPI   C5A 3083   3.153  13.164   8.042 -0.1997  0.2459  0.2481
  193loPI   C6A 3084   3.359  13.507   7.850  0.0810 -0.1588 -0.0490
  193loPI   C1B 3085   3.704  12.937   9.334  0.3174 -0.1011  0.0698
  193loPI   C2B 3086   3.585  13.039   8.980  0.1785 -0.0633  0.1472
  193loPI   C3B 3087   3.600  13.074   8.520 -0.1586 -0.0934 -0.3007
  193loPI   C4B 3088   3.655  13.141   8.122  0.3826  0.0730  0.1940
  194loPI    C1 3089   7.825   7.821  11.471  0.2268  0.0913 -0.2340
  194loPI    C2 3090   7.927   8.153  11.669 -0.0392 -0.0612  0.1720
  194loPI    C3 3091   8.048   7.796  11.802  0.0542 -0.1462 -0.1331
  194loPI   PO4 3092   7.762   7.936  11.191 -0.0771  0.2750  0.1507
  194loPI   GL1 3093   7.734   7.880  10.771 -0.1905 -0.1341  0.2358
  194loPI   GL2 3094   7.912   8.105  10.735 -0.0315 -0.0525 -0.2959
  194loPI   C1A 3095   7.690   7.791  10.334  0.1764  0.1613  0.4069
  194loPI   C2A 3096   7.740   7.772   9.896  0.1401  0.1895  0.3910
  194loPI   C3A 3097   7.661   7.713   9.455 -0.2038  0.0923  0.1427
  194loPI   C4A 3098   7.695   7.736   8.990 -0.0078  0.1313 -0.0060
  194loPI   C5A 3099   7.565   7.756   8.626 -0.1630  0.4155  0.0395
  194loPI   C6A 3100   7.688   7.638   8.233  0.2075 -0.0508 -0.0679
  194loPI   C1B 3101   8.044   8.126  10.318 -0.3510 -0.0317 -0.1927
  194loPI   C2B 3102   7.970   8.214   9.911 -0.0444 -0.2419  0.0906
  194loPI   C3B 3103   7.956   8.061   9.570  0.0313 -0.0500  0.1550
  194loPI   C4B 3104   7.864   8.130   9.239 -0.1718  0.0235  0.0722
  195loPI    C1 3105   6.348  16.576  10.891 -0.1236 -0.0193  0.0189
  195loPI    C2 3106   6.233  16.942  11.003 -0.1953 -0.0893  0.1777
  195loPI    C3 3107   6.613  16.828  11.051 -0.1599 -0.0166  0.0752
  195loPI   PO4 3108   6.250  16.554  10.597  0.1701  0.1963 -0.1336
  195loPI   GL1 3109   6.247  16.474  10.182  0.1795  0.0541  0.2006
  195loPI   GL2 3110   6.476  16.688  10.089  0.0141 -0.1723 -0.1590
  195loPI   C1A 3111   5.919  16.365   9.934 -0.0053  0.0272  0.1706
  195loPI   C2A 3112   5.865  16.333   9.454 -0.0570 -0.0902  0.2004
  195loPI   C3A 3113   5.899  16.420   9.006  0.4101  0.0231 -0.0055
  195loPI   C4A 3114   5.922  16.574   8.599  0.2423  0.0484 -0.2143
  195loPI   C5A 3115   5.508  16.704   8.344 -0.1281 -0.0167  0.2325
  195loPI   C6A 3116   5.129  16.946   8.327  0.2733 -0.1677  0.2262
  195loPI   C1B 3117   6.254  16.742   9.787  0.0147  0.0982  0.3154
  195loPI   C2B 3118   6.133  16.815   9.322 -0.2035  0.0467  0.3648
  195loPI   C3B 3119   6.248  16.860   8.873  0.1185  0.0517  0.1726
  195loPI   C4B 3120   6.374  16.724   8.412  0.4256 -0.0933  0.0015
  196loPI    C1 3121   7.630  15.202  10.841 -0.1429 -0.0082 -0.1485
  196loPI    C2 3122   7.923  15.085  11.087 -0.1067 -0.0501 -0.2115
  196loPI    C3 3123   7.546  15.099  11.219 -0.0518  0.1841 -0.0744
  196loPI   PO4 3124   7.700  15.168  10.658  0.0370 -0.1659  0.2252
  196loPI   GL1 3125   7.682  15.262  10.234  0.0443 -0.0961  0.0874
  196loPI   GL2 3126   7.490  15.400  10.169  0.0931  0.0289 -0.0514
  196loPI   C1A 3127   7.974  15.323   9.916 -0.1646  0.2293  0.0114
  196loPI   C2A 3128   7.956  15.294   9.497  0.1110  0.1896  0.0140
  196loPI   C3A 3129   7.950  15.280   9.074 -0.0368 -0.1713 -0.0612
  196loPI   C4A 3130   8.096  15.349   8.722 -0.0930  0.0534 -0.2350
  196loPI   C5A 3131   7.953  15.368   8.323 -0.0596 -0.1084  0.0678
  196loPI   C6A 3132   7.961  15.464   7.934  0.3817  0.0848 -0.1025
  196loPI   C1B 3133   7.511  15.374   9.727 -0.0013  0.0184 -0.1916
  196loPI   C2B 3134   7.384  15.341   9.330 -0.2210 -0.0291 -0.2098
  196loPI   C3B 3135   7.462  15.322   8.934  0.0681 -0.0396  0.1042
  196loPI   C4B 3136   7.309  15.428   8.513 -0.0585 -0.1112  0.0448
  197loPI    C1 3137  14.193   9.030  11.145  0.0672  0.0050 -0.1531
  197loPI    C2 3138  14.084   8.684  11.313  0.0456  0.0388 -0.0971
  197loPI    C3 3139  14.332   8.931  11.507 -0.0011  0.0906 -0.1028
  197loPI   PO4 3140  14.229   8.923  10.892  0.1643  0.0116 -0.0729
  197loPI   GL1 3141  14.093   8.638  10.485 -0.0997  0.1742 -0.2198
  197loPI   GL2 3142  13.868   8.876  10.436  0.2658 -0.2241  0.1458
  197loPI   C1A 3143  14.042   8.534  10.031 -0.1321  0.1432  0.1935
  197loPI   C2A 3144  14.118   8.489   9.706 -0.0177 -0.2606  0.4016
  197loPI   C3A 3145  14.139   8.453   9.349  0.2729  0.1363 -0.1316
  197loPI   C4A 3146  14.071   8.489   8.886  0.1198  0.0960  0.0905
  197loPI   C5A 3147  14.128   8.678   8.439  0.2182 -0.0872  0.0381
  197loPI   C6A 3148  14.372   9.007   8.148 -0.2879 -0.0262 -0.1174
  197loPI   C1B 3149  13.852   8.963  10.039  0.2822  0.0529  0.0075
  197loPI   C2B 3150  13.918   8.975   9.598 -0.2434 -0.1701  0.2137
  197loPI   C3B 3151  13.830   8.898   9.128 -0.2942 -0.0648 -0.1727
  197loPI   C4B 3152  13.854   8.971   8.706  0.4213  0.1488  0.0367
  198loPI    C1 3153  13.848   2.551  11.584  0.1699 -0.1268  0.0282
  198loPI    C2 3154  14.139   2.561  11.858 -0.0459  0.1718  0.2540
  198loPI    C3 3155  13.759   2.511  11.972 -0.0896 -0.2099 -0.0375
  198loPI   PO4 3156  13.893   2.381  11.453 -0.1383 -0.5235 -0.1100
  198loPI   GL1 3157  13.968   2.343  11.044 -0.1621 -0.2944  0.1959
  198loPI   GL2 3158  14.174   2.331  10.821  0.0885  0.1301  0.4824
  198loPI   C1A 3159  13.765   2.294  10.560 -0.1106 -0.0530 -0.2510
  198loPI   C2A 3160  13.851   2.334  10.084 -0.0925  0.1686  0.0954
  198loPI   C3A 3161  13.781   2.240   9.654 -0.2992  0.1030  0.0813
  198loPI   C4A 3162  13.691   2.313   9.221 -0.0414 -0.2976 -0.2336
  198loPI   C5A 3163  13.825   2.334   8.801  0.3825 -0.0860  0.0629
  198loPI   C6A 3164  13.784   2.161   8.487 -0.1510  0.2836 -0.1850
  198loPI   C1B 3165  14.306   2.279  10.425 -0.1320 -0.4156 -0.2185
  198loPI   C2B 3166  14.320   2.217   9.947 -0.0792 -0.0107  0.0155
  198loPI   C3B 3167  14.272   2.240   9.557 -0.0422  0.2938 -0.0348
  198loPI   C4B 3168  14.234   2.222   9.122  0.1665  0.0893 -0.0453
  199loPI    C1 3169   4.663  12.927  10.844 -0.5609  0.0703  0.1660
  199loPI    C2 3170   4.760  13.314  10.867 -0.0477 -0.0386 -0.0224
  199loPI    C3 3171   4.692  13.104  11.201 -0.0654  0.1495  0.0936
  199loPI   PO4 3172   4.753  12.925  10.533  0.2224  0.1744  0.0648
  199loPI   GL1 3173   4.868  12.880  10.105 -0.0956  0.2813  0.0603
  199loPI   GL2 3174   4.902  13.158  10.009  0.1180  0.1006 -0.1929
  199loPI   C1A 3175   4.700  12.811   9.657 -0.1072  0.1745  0.2245
  199loPI   C2A 3176   4.707  12.854   9.213  0.3882 -0.0369 -0.1815
  199loPI   C3A 3177   4.634  12.924   8.784 -0.1181  0.1986  0.1638
  199loPI   C4A 3178   4.674  13.040   8.303  0.1459  0.2704 -0.0881
  199loPI   C5A 3179   4.756  13.015   7.832  0.0122  0.0455  0.0853
  199loPI   C6A 3180   4.960  12.969   7.422 -0.2605  0.2482  0.1259
  199loPI   C1B 3181   4.995  13.336   9.586  0.1756  0.5072  0.0452
  199loPI   C2B 3182   4.928  13.275   9.158 -0.4164 -0.0127 -0.1136
  199loPI   C3B 3183   4.882  13.354   8.779 -0.2605 -0.0874 -0.1154
  199loPI   C4B 3184   4.899  13.475   8.303  0.0534 -0.0067  0.3552
  200loPI    C1 3185   2.654   6.683  11.099 -0.1372 -0.1412 -0.0142
  200loPI    C2 3186   2.715   7.011  11.320 -0.1669 -0.1845  0.0586
  200loPI    C3 3187   2.947   6.689  11.370 -0.1208 -0.1655 -0.0312
  200loPI   PO4 3188   2.747   6.765  10.814  0.0014 -0.1035 -0.0170
  200loPI   GL1 3189   2.619   6.763  10.402 -0.0004 -0.0721 -0.0817
  200loPI   GL2 3190   2.224   6.761  10.268 -0.2099 -0.2572 -0.1749
  200loPI   C1A 3191   2.796   6.824  10.121 -0.0660  0.0508  0.0156
  200loPI   C2A 3192   2.683   6.706   9.718 -0.1208  0.1405  0.2398
  200loPI   C3A 3193   2.704   6.691   9.322  0.1424 -0.0565 -0.1141
  200loPI   C4A 3194   2.727   6.690   8.883 -0.0226 -0.4362  0.0179
  200loPI   C5A 3195   2.657   6.663   8.452  0.1981  0.2143 -0.0352
  200loPI   C6A 3196   2.346   6.617   8.271 -0.1124  0.0584  0.3964
  200loPI   C1B 3197   2.251   6.758   9.913 -0.3542 -0.0456 -0.4210
  200loPI   C2B 3198   2.147   6.727   9.513  0.0191 -0.1357 -0.0154
  200loPI   C3B 3199   2.204   6.672   9.139  0.3486  0.1341  0.0351
  200loPI   C4B 3200   2.204   6.769   8.734 -0.1528  0.1740 -0.0260
  201loPI    C1 3201   0.105   0.762  11.135  0.0753 -0.2287 -0.0525
  201loPI    C2 3202  -0.202   0.700  11.384  0.0457  0.1414  0.0085
  201loPI    C3 3203   0.173   0.662  11.517  0.0316 -0.2628 -0.0535
  201loPI   PO4 3204  -0.092   0.890  10.926 -0.2349  0.1171  0.2172
  201loPI   GL1 3205   0.095   0.735  10.508  0.3141 -0.0557  0.0320
  201loPI   GL2 3206   0.013   0.508  10.440  0.1706  0.0301 -0.0563
  201loPI   C1A 3207   0.093   1.074  10.219 -0.0635  0.1585  0.1504
  201loPI   C2A 3208   0.128   1.172   9.805 -0.0061 -0.1379  0.2366
  201loPI   C3A 3209   0.184   1.106   9.326 -0.2904 -0.0690  0.1326
  201loPI   C4A 3210  -0.025   1.198   8.984  0.0052  0.1722 -0.0285
  201loPI   C5A 3211  -0.012   1.192   8.587 -0.0230 -0.4368 -0.3045
  201loPI   C6A 3212  -0.099   0.847   8.168 -0.0955  0.0574 -0.2736
  201loPI   C1B 3213   0.086   0.276  10.078 -0.1044  0.0742 -0.1010
  201loPI   C2B 3214   0.067   0.317   9.674 -0.1055 -0.2356 -0.1480
  201loPI   C3B 3215   0.102   0.280   9.273  0.1588 -0.0550 -0.0140
  201loPI   C4B 3216  -0.006   0.347   8.821 -0.2427  0.0713 -0.1689
  202loPI    C1 3217  13.582  12.122  11.399 -0.0654  0.0197 -0.0400
  202loPI    C2 3218  13.938  12.295  11.343 -0.2292  0.3115 -0.2062
  202loPI    C3 3219  13.747  12.340  11.691 -0.0048 -0.0360 -0.0324
  202loPI   PO4 3220  13.326  12.131  11.086  0.2660 -0.1339 -0.0060
  202loPI   GL1 3221  13.441  12.105  10.624  0.0819  0.3398  0.0457
  202loPI   GL2 3222  13.435  12.436  10.620  0.1974 -0.1197 -0.0232
  202loPI   C1A 3223  13.451  12.101  10.189 -0.0057  0.2336 -0.1143
  202loPI   C2A 3224  13.435  12.196   9.911 -0.2520  0.1630 -0.0929
  202loPI   C3A 3225  13.497  12.113   9.430  0.1999 -0.1563 -0.0212
  202loPI   C4A 3226  13.447  12.062   9.019 -0.0360  0.1343 -0.1941
  202loPI   C5A 3227  13.328  12.050   8.657  0.0655  0.0424 -0.1119
  202loPI   C6A 3228  13.045  11.817   8.393 -0.0078  0.0782 -0.2494
  202loPI   C1B 3229  13.229  12.525  10.306 -0.0244  0.0010 -0.1686
  202loPI   C2B 3230  13.225  12.656   9.893 -0.1800 -0.2181 -0.2035
  202loPI   C3B 3231  13.282  12.640   9.413  0.1474 -0.0806  0.1402
  202loPI   C4B 3232  13.227  12.579   8.932 -0.0170 -0.3013  0.2144
  203loPI    C1 3233  11.296  10.237  11.010  0.1408 -0.0839 -0.2279
  203loPI    C2 3234  11.199  10.499  11.296 -0.2551 -0.2269 -0.2256
  203loPI    C3 3235  11.232  10.110  11.384  0.2694 -0.1927 -0.2420
  203loPI   PO4 3236  11.117  10.291  10.772  0.3095  0.0713 -0.4352
  203loPI   GL1 3237  11.031  10.186  10.313  0.1200  0.1059 -0.0771
  203loPI   GL2 3238  11.395  10.106  10.245 -0.1889  0.0810  0.0582
  203loPI   C1A 3239  11.013  10.157   9.850 -0.2039 -0.0323  0.1792
  203loPI   C2A 3240  10.912  10.118   9.461 -0.1188  0.1368  0.0831
  203loPI   C3A 3241  10.858  10.191   9.019 -0.1415  0.2096  0.0293
  203loPI   C4A 3242  10.856  10.144   8.599 -0.0863 -0.0415  0.2116
  203loPI   C5A 3243  10.742   9.943   8.104 -0.0958 -0.0585  0.0062
  203loPI   C6A 3244  11.000   9.802   7.726  0.0139  0.0312  0.3099
  203loPI   C1B 3245  11.501  10.148   9.847 -0.0617  0.2057 -0.0625
  203loPI   C2B 3246  11.416  10.202   9.350 -0.0160  0.1091 -0.0022
  203loPI   C3B 3247  11.329  10.133   8.853 -0.0203 -0.0017 -0.0545
  203loPI   C4B 3248  11.380  10.074   8.435  0.1255 -0.1121 -0.0096
  204loPI    C1 3249  17.252   0.897  10.993  0.2599 -0.0026 -0.0866
  204loPI    C2 3250  17.341   1.279  11.068  0.1879  0.0002 -0.0146
  204loPI    C3 3251  17.251   1.032  11.369  0.1699 -0.0572 -0.0670
  204loPI   PO4 3252  17.107   0.914  10.758  0.1263  0.1658 -0.0870
  204loPI   GL1 3253  17.089   0.893  10.343  0.2051 -0.1075  0.0131
  204loPI   GL2 3254  17.451   0.808  10.413 -0.1074 -0.2813 -0.1448
  204loPI   C1A 3255  17.208   0.798   9.943  0.0058 -0.0447 -0.0901
  204loPI   C2A 3256  17.130   0.762   9.464  0.2703  0.1520 -0.0814
  204loPI   C3A 3257  17.202   0.765   9.102  0.0244 -0.1451 -0.2973
  204loPI   C4A 3258  17.060   0.714   8.723  0.5111 -0.0678  0.1883
  204loPI   C5A 3259  16.906   0.510   8.405 -0.2016  0.1166 -0.2261
  204loPI   C6A 3260  16.477   0.439   8.306 -0.1974 -0.0605  0.1943
  204loPI   C1B 3261  17.679   0.717  10.030  0.1498 -0.1868  0.1159
  204loPI   C2B 3262  17.672   0.810   9.561 -0.0189 -0.1909  0.0481
  204loPI   C3B 3263  17.711   0.736   9.138  0.2706  0.0959  0.1796
  204loPI   C4B 3264  17.563   0.781   8.700  0.0914  0.0300 -0.0973
  205loPI    C1 3265   5.569   3.897  11.197 -0.0303 -0.2060 -0.2694
  205loPI    C2 3266   5.332   3.758  11.488  0.1613 -0.2489 -0.1319
  205loPI    C3 3267   5.665   3.959  11.581  0.1417 -0.1248 -0.3245
  205loPI   PO4 3268   5.431   3.817  10.889  0.2509 -0.2045  0.3642
  205loPI   GL1 3269   5.497   4.014  10.379 -0.4025  0.2431  0.2303
  205loPI   GL2 3270   5.416   4.384  10.318  0.0650 -0.2683  0.4252
  205loPI   C1A 3271   5.219   3.951  10.112 -0.5071 -0.0274  0.1949
  205loPI   C2A 3272   5.257   4.004   9.650  0.0709  0.2183  0.1924
  205loPI   C3A 3273   5.308   4.048   9.267 -0.0671 -0.2403  0.0698
  205loPI   C4A 3274   5.143   4.014   8.886  0.0758  0.0518  0.0245
  205loPI   C5A 3275   5.204   4.005   8.443  0.0454  0.2975  0.2745
  205loPI   C6A 3276   5.289   4.092   8.038  0.0683  0.1171  0.1723
  205loPI   C1B 3277   5.455   4.453   9.866  0.1943 -0.0104  0.0453
  205loPI   C2B 3278   5.544   4.504   9.434  0.0650  0.1145  0.1840
  205loPI   C3B 3279   5.494   4.444   8.963  0.1444 -0.0393  0.0825
  205loPI   C4B 3280   5.345   4.555   8.601 -0.2881 -0.2230  0.2034
  206loPI    C1 3281   5.175  15.436  10.913 -0.0353  0.0413 -0.1341
  206loPI    C2 3282   5.537  15.499  11.072 -0.0768  0.1266 -0.0723
  206loPI    C3 3283   5.212  15.654  11.247 -0.1369  0.1041 -0.1633
  206loPI   PO4 3284   5.235  15.438  10.630 -0.2229  0.1613  0.0952
  206loPI   GL1 3285   5.506  15.402  10.356  0.0158 -0.0334  0.1590
  206loPI   GL2 3286   5.667  15.695  10.532  0.4030 -0.3022  0.0440
  206loPI   C1A 3287   5.388  15.431   9.958  0.0875 -0.2144  0.2861
  206loPI   C2A 3288   5.353  15.565   9.523  0.1090 -0.0247 -0.3237
  206loPI   C3A 3289   5.393  15.553   9.019  0.0301 -0.1537  0.0823
  206loPI   C4A 3290   5.408  15.511   8.566  0.3733 -0.0275  0.2178
  206loPI   C5A 3291   5.558  15.303   8.186  0.0558  0.0258 -0.1513
  206loPI   C6A 3292   5.930  15.243   7.889 -0.1511  0.1232 -0.2044
  206loPI   C1B 3293   5.607  15.897  10.159  0.0285  0.2051  0.2380
  206loPI   C2B 3294   5.647  15.955   9.758 -0.2187 -0.1443 -0.0842
  206loPI   C3B 3295   5.632  15.924   9.289  0.0444  0.1140 -0.0463
  206loPI   C4B 3296   5.658  15.941   8.884  0.0564 -0.2705 -0.0501
  207loPI    C1 3297  15.829   6.691  11.185 -0.0068  0.0457  0.0001
  207loPI    C2 3298  16.124   6.504  11.381 -0.1016  0.0333  0.1328
  207loPI    C3 3299  15.793   6.613  11.576 -0.2225 -0.0311 -0.0340
  207loPI   PO4 3300  15.815   6.552  11.007 -0.0244  0.1070 -0.0903
  207loPI   GL1 3301  15.973   6.399  10.582 -0.1803  0.0903 -0.0185
  207loPI   GL2 3302  16.081   6.531  10.264  0.0154 -0.0302  0.1027
  207loPI   C1A 3303  15.782   6.161  10.288 -0.0018  0.0892  0.2590
  207loPI   C2A 3304  15.839   6.159   9.836  0.2130 -0.0401  0.3361
  207loPI   C3A 3305  15.824   6.099   9.404 -0.0361 -0.0328  0.0250
  207loPI   C4A 3306  15.893   6.072   9.043  0.1833  0.3692  0.0506
  207loPI   C5A 3307  15.936   5.907   8.604  0.2455 -0.0208  0.0494
  207loPI   C6A 3308  15.940   5.792   8.209  0.1431  0.0608  0.1503
  207loPI   C1B 3309  16.213   6.539   9.833 -0.1481 -0.2746 -0.1473
  207loPI   C2B 3310  16.106   6.487   9.398  0.1505  0.3606  0.0832
  207loPI   C3B 3311  16.152   6.579   9.006  0.0266 -0.5221  0.1906
  207loPI   C4B 3312  15.890   6.409   8.663  0.1331  0.1560  0.2871
  208loPI    C1 3313   4.759  10.517  10.853 -0.0295 -0.1520 -0.0457
  208loPI    C2 3314   4.583  10.651  11.186 -0.1476  0.0239 -0.1769
  208loPI    C3 3315   4.548  10.267  11.083  0.1429 -0.1017  0.1706
  208loPI   PO4 3316   4.722  10.640  10.676  0.0006  0.1480  0.0629
  208loPI   GL1 3317   4.862  10.580  10.208 -0.3665 -0.0786 -0.3231
  208loPI   GL2 3318   4.947  10.307  10.000 -0.0563 -0.1246  0.0568
  208loPI   C1A 3319   4.776  10.826   9.828 -0.1684  0.3239  0.3750
  208loPI   C2A 3320   4.924  10.656   9.324  0.2378  0.2001 -0.2236
  208loPI   C3A 3321   4.775  10.678   8.908  0.1217 -0.0030  0.1140
  208loPI   C4A 3322   4.802  10.674   8.510 -0.1224  0.0336 -0.0049
  208loPI   C5A 3323   4.651  10.575   8.056 -0.2128 -0.3236 -0.0432
  208loPI   C6A 3324   4.774  10.402   7.654 -0.0890  0.0976 -0.0851
  208loPI   C1B 3325   5.089  10.213   9.591  0.2294 -0.2239 -0.1000
  208loPI   C2B 3326   5.037  10.194   9.141  0.0863 -0.1719 -0.0027
  208loPI   C3B 3327   5.013  10.193   8.750  0.0967 -0.3227 -0.2808
  208loPI   C4B 3328   5.036  10.245   8.383 -0.3168  0.0228  0.0622
  209loPI    C1 3329  16.862   1.450  11.405  0.0604  0.0278  0.0264
  209loPI    C2 3330  16.471   1.452  11.490 -0.0024  0.2615 -0.2517
  209loPI    C3 3331  16.723   1.678  11.702  0.0281 -0.1011  0.1112
  209loPI   PO4 3332  16.876   1.490  11.194  0.0539 -0.1073  0.1106
  209loPI   GL1 3333  17.019   1.462  10.695  0.1345  0.2796 -0.1033
  209loPI   GL2 3334  16.811   1.298  10.653 -0.2813 -0.2249 -0.0422
  209loPI   C1A 3335  17.126   1.708  10.271  0.1700 -0.0736  0.1053
  209loPI   C2A 3336  17.145   1.658   9.823 -0.0745  0.3009 -0.0826
  209loPI   C3A 3337  17.099   1.588   9.329  0.1511  0.0745 -0.1386
  209loPI   C4A 3338  17.000   1.645   8.955  0.1009 -0.1795 -0.3349
  209loPI   C5A 3339  16.578   1.618   8.740 -0.0508 -0.1429 -0.3136
  209loPI   C6A 3340  16.236   1.548   8.521  0.0028 -0.0471  0.1918
  209loPI   C1B 3341  16.838   1.280  10.215  0.1020  0.1885  0.3498
  209loPI   C2B 3342  16.846   1.249   9.773  0.0042 -0.2954 -0.2545
  209loPI   C3B 3343  16.793   1.152   9.385  0.0524 -0.1109  0.1367
  209loPI   C4B 3344  16.781   1.143   8.961 -0.0044 -0.0934  0.1881
  210loPI    C1 3345  12.915  17.257  11.096  0.1212 -0.2982  0.1413
  210loPI    C2 3346  13.227  17.301  11.343  0.1207 -0.2532  0.1340
  210loPI    C3 3347  12.873  17.183  11.486  0.0333  0.0877  0.2097
  210loPI   PO4 3348  13.004  17.289  10.800  0.0775  0.1627  0.0798
  210loPI   GL1 3349  13.226  17.571  10.531 -0.3704  0.0974 -0.0444
  210loPI   GL2 3350  12.896  17.563  10.404 -0.0980 -0.0663 -0.3993
  210loPI   C1A 3351  13.318  17.875  10.162  0.2523 -0.0193 -0.0520
  210loPI   C2A 3352  13.432  17.827   9.734 -0.0569  0.0018  0.0857
  210loPI   C3A 3353  13.423  17.975   9.381 -0.2520  0.0315 -0.0650
  210loPI   C4A 3354  13.487  17.903   8.929 -0.0066  0.2590 -0.2781
  210loPI   C5A 3355  13.337  18.009   8.534  0.0613 -0.1054  0.0411
  210loPI   C6A 3356  13.505  17.920   8.109 -0.1419  0.0767 -0.1881
  210loPI   C1B 3357  12.784  17.560   9.943 -0.5871 -0.2258  0.0540
  210loPI   C2B 3358  12.594  17.507   9.639  0.0522 -0.0166 -0.0075
  210loPI   C3B 3359  12.652  17.519   9.168  0.1269 -0.0894 -0.2066
  210loPI   C4B 3360  12.563  17.463   8.759 -0.0374  0.2158 -0.0881
  211loPI    C1 3361   3.135  16.562  11.123  0.2217  0.2084 -0.0938
  211loPI    C2 3362   3.527  16.567  11.199  0.2550  0.1341 -0.2557
  211loPI    C3 3363   3.269  16.709  11.470  0.3581 -0.2647  0.0616
  211loPI   PO4 3364   3.101  16.493  10.730  0.1057 -0.0023  0.1739
  211loPI   GL1 3365   2.756  16.435  10.325 -0.0618  0.1541 -0.1884
  211loPI   GL2 3366   2.412  16.425  10.213  0.1367  0.1513  0.0163
  211loPI   C1A 3367   2.870  16.473   9.880 -0.0401 -0.0490  0.0243
  211loPI   C2A 3368   2.892  16.550   9.403  0.0453  0.0450 -0.0405
  211loPI   C3A 3369   2.932  16.639   9.032 -0.1958  0.1575 -0.0184
  211loPI   C4A 3370   2.971  16.651   8.622  0.0659  0.0470 -0.1635
  211loPI   C5A 3371   2.818  16.576   8.172 -0.3329  0.0281  0.0581
  211loPI   C6A 3372   3.039  16.613   7.787  0.0860 -0.2183 -0.1878
  211loPI   C1B 3373   2.391  16.519   9.850  0.0521 -0.2877 -0.1662
  211loPI   C2B 3374   2.308  16.624   9.397  0.3227  0.0024  0.0105
  211loPI   C3B 3375   2.401  16.578   8.893  0.0851 -0.1820  0.0009
  211loPI   C4B 3376   2.414  16.660   8.452  0.0346 -0.1870 -0.1055
  212loPI    C1 3377   5.126  13.636  10.985 -0.1186 -0.0933  0.0676
  212loPI    C2 3378   5.084  13.972  11.198  0.0154  0.0946 -0.1967
  212loPI    C3 3379   5.391  13.726  11.271 -0.0217  0.0835 -0.0758
  212loPI   PO4 3380   5.103  13.684  10.659  0.3367  0.3684 -0.0077
  212loPI   GL1 3381   5.333  14.001  10.394  0.0792 -0.3299  0.0378
  212loPI   GL2 3382   5.492  13.686  10.263  0.3349 -0.4674 -0.0163
  212loPI   C1A 3383   5.073  14.133   9.971 -0.3980  0.2295 -0.1030
  212loPI   C2A 3384   5.064  14.092   9.543  0.1702  0.0950  0.0004
  212loPI   C3A 3385   5.049  14.147   9.134  0.0775  0.1241 -0.0428
  212loPI   C4A 3386   5.020  14.199   8.729 -0.2311  0.0855 -0.0218
  212loPI   C5A 3387   5.179  14.201   8.270 -0.1651  0.1965 -0.2792
  212loPI   C6A 3388   5.193  13.865   7.992 -0.0284  0.0390 -0.0483
  212loPI   C1B 3389   5.789  13.716   9.879 -0.0826  0.1343  0.1036
  212loPI   C2B 3390   5.797  13.652   9.490  0.0487 -0.0247 -0.2421
  212loPI   C3B 3391   5.757  13.640   9.069 -0.3698 -0.0859 -0.0103
  212loPI   C4B 3392   5.699  13.768   8.686  0.1260  0.0807  0.0026
  213loPI    C1 3393  11.726   3.361  11.318  0.0468  0.0768 -0.0877
  213loPI    C2 3394  12.096   3.394  11.468  0.0465 -0.1033 -0.0451
  213loPI    C3 3395  11.912   3.038  11.465 -0.1560 -0.0006  0.0019
  213loPI   PO4 3396  11.745   3.375  11.054  0.1100 -0.1964  0.2217
  213loPI   GL1 3397  11.958   3.465  10.655  0.0363  0.0889 -0.1559
  213loPI   GL2 3398  12.094   3.684  10.414 -0.0091 -0.0791 -0.1156
  213loPI   C1A 3399  11.762   3.300  10.297  0.0230  0.2013  0.2545
  213loPI   C2A 3400  11.807   3.328   9.879 -0.0813 -0.0509 -0.0422
  213loPI   C3A 3401  11.704   3.304   9.593 -0.0678 -0.0242  0.1105
  213loPI   C4A 3402  11.814   3.323   9.195  0.2253  0.0485  0.1286
  213loPI   C5A 3403  11.855   3.286   8.803  0.0452 -0.0242  0.2885
  213loPI   C6A 3404  11.825   3.215   8.427  0.0477  0.0127 -0.1199
  213loPI   C1B 3405  12.109   3.706  10.059  0.2566 -0.1961 -0.0207
  213loPI   C2B 3406  12.068   3.746   9.511 -0.0553  0.1346 -0.2448
  213loPI   C3B 3407  12.117   3.692   9.031 -0.0116  0.3330  0.0510
  213loPI   C4B 3408  12.159   3.771   8.586  0.0275 -0.2238 -0.0869
  214loPI    C1 3409   3.078   8.575  10.796  0.1104 -0.2093  0.0918
  214loPI    C2 3410   2.736   8.490  10.986 -0.1166  0.1077 -0.1642
  214loPI    C3 3411   2.893   8.857  11.011  0.1888 -0.0260 -0.0783
  214loPI   PO4 3412   3.035   8.515  10.563  0.1696  0.2091 -0.1075
  214loPI   GL1 3413   3.239   8.437  10.224 -0.2078  0.1239  0.2311
  214loPI   GL2 3414   3.149   8.670  10.078  0.2492 -0.2408  0.0169
  214loPI   C1A 3415   3.496   8.177   9.988  0.2157  0.0661 -0.1599
  214loPI   C2A 3416   3.575   8.014   9.628 -0.1976 -0.0078  0.0941
  214loPI   C3A 3417   3.548   8.001   9.263 -0.1483 -0.2189 -0.4185
  214loPI   C4A 3418   3.500   7.982   8.871 -0.1573  0.4524  0.0685
  214loPI   C5A 3419   3.484   7.986   8.458  0.1745 -0.0180  0.2037
  214loPI   C6A 3420   3.566   8.021   7.998 -0.2621  0.3999 -0.1108
  214loPI   C1B 3421   3.300   8.515   9.651  0.1560 -0.0463 -0.0325
  214loPI   C2B 3422   3.311   8.500   9.114 -0.0587  0.2008 -0.0746
  214loPI   C3B 3423   3.255   8.430   8.643 -0.1481 -0.1213 -0.3086
  214loPI   C4B 3424   3.212   8.350   8.222  0.0731 -0.0041  0.2473
  215loPI    C1 3425   1.682  17.574  11.136 -0.0639  0.1209  0.1866
  215loPI    C2 3426   1.928  17.284  11.260  0.0704  0.1287 -0.0549
  215loPI    C3 3427   1.661  17.442  11.513 -0.0371 -0.2368  0.0668
  215loPI   PO4 3428   1.789  17.607  10.890  0.1445  0.1658  0.3130
  215loPI   GL1 3429   1.590  17.760  10.519 -0.1855 -0.2229  0.0363
  215loPI   GL2 3430   1.256  17.806  10.352  0.0733 -0.0065  0.3157
  215loPI   C1A 3431   1.702  17.961  10.072  0.1162  0.2615 -0.0259
  215loPI   C2A 3432   1.618  18.043   9.670 -0.1478  0.0757 -0.1990
  215loPI   C3A 3433   1.600  17.955   9.337 -0.0620 -0.3916  0.1993
  215loPI   C4A 3434   1.633  17.888   8.946  0.1021 -0.0847  0.0043
  215loPI   C5A 3435   1.842  17.752   8.599 -0.0420 -0.0441 -0.0887
  215loPI   C6A 3436   1.981  17.728   8.152 -0.1004  0.1077 -0.0805
  215loPI   C1B 3437   1.159  17.978   9.948 -0.0359  0.0428 -0.1712
  215loPI   C2B 3438   1.081  18.026   9.495  0.2855 -0.1682  0.1406
  215loPI   C3B 3439   1.135  18.030   9.108  0.0612  0.0320  0.0163
  215loPI   C4B 3440   1.078  18.107   8.727 -0.3164  0.0176 -0.0829
  216loPI    C1 3441  10.614   7.168  11.074 -0.0464 -0.0369  0.0944
  216loPI    C2 3442  10.894   6.885  11.036  0.1482  0.1650  0.0059
  216loPI    C3 3443  10.771   6.997  11.399 -0.2065 -0.2980  0.0381
  216loPI   PO4 3444  10.624   7.254  10.794  0.1353  0.1015 -0.2216
  216loPI   GL1 3445  10.521   7.611  10.608  0.0220  0.2808  0.0082
  216loPI   GL2 3446  10.217   7.661  10.521  0.0587  0.3110  0.2225
  216loPI   C1A 3447  10.617   7.487  10.213 -0.2815 -0.2890  0.0029
  216loPI   C2A 3448  10.683   7.400   9.767  0.1828  0.3411 -0.1952
  216loPI   C3A 3449  10.639   7.405   9.334  0.3080 -0.1661  0.0536
  216loPI   C4A 3450  10.645   7.297   8.906 -0.2921  0.1450 -0.0594
  216loPI   C5A 3451  10.690   7.515   8.664 -0.1424  0.1504 -0.1266
  216loPI   C6A 3452  10.866   7.433   8.222  0.2709 -0.0378 -0.3357
  216loPI   C1B 3453  10.145   7.562  10.138 -0.1123 -0.1097 -0.0179
  216loPI   C2B 3454  10.204   7.499   9.729 -0.1201  0.0165 -0.0071
  216loPI   C3B 3455  10.132   7.457   9.260 -0.0100  0.0417  0.2233
  216loPI   C4B 3456  10.197   7.423   8.802  0.1850 -0.2520 -0.1061
  217loPI    C1 3457  10.775  13.171  10.754  0.0305  0.4447  0.1761
  217loPI    C2 3458  10.657  13.178  11.136  0.0066  0.1802  0.1758
  217loPI    C3 3459  10.516  12.897  10.889  0.3372  0.0968  0.0763
  217loPI   PO4 3460  10.812  13.423  10.692 -0.0375 -0.0379  0.2808
  217loPI   GL1 3461  11.103  13.509  10.403 -0.1995 -0.0490 -0.0130
  217loPI   GL2 3462  11.274  13.722  10.245  0.0804  0.2993 -0.0254
  217loPI   C1A 3463  10.932  13.380  10.024 -0.3164  0.0082  0.3154
  217loPI   C2A 3464  10.914  13.284   9.545  0.0876 -0.0377  0.0585
  217loPI   C3A 3465  10.974  13.199   9.093 -0.2138 -0.0760 -0.0163
  217loPI   C4A 3466  10.897  13.241   8.678  0.2288  0.2483 -0.1789
  217loPI   C5A 3467  11.044  13.066   8.271  0.1656 -0.1422  0.3167
  217loPI   C6A 3468  11.279  13.023   7.926  0.1614  0.1347 -0.1656
  217loPI   C1B 3469  11.298  13.693   9.760  0.1944  0.0814  0.1328
  217loPI   C2B 3470  11.257  13.644   9.267 -0.1187 -0.2379 -0.1344
  217loPI   C3B 3471  11.324  13.696   8.896  0.1966  0.0560 -0.1241
  217loPI   C4B 3472  11.289  13.576   8.493 -0.0259  0.1296 -0.0285
  218loPI    C1 3473  14.914   0.719  11.507 -0.3306 -0.2043  0.0885
  218loPI    C2 3474  15.233   0.684  11.746 -0.0717  0.1496 -0.1914
  218loPI    C3 3475  14.890   0.833  11.889 -0.1089 -0.2038  0.1036
  218loPI   PO4 3476  14.805   0.608  11.325  0.0990 -0.0152  0.1330
  218loPI   GL1 3477  14.731   0.415  10.931  0.0767  0.2618  0.0871
  218loPI   GL2 3478  15.060   0.348  10.846 -0.0376 -0.1541 -0.1911
  218loPI   C1A 3479  14.697   0.413  10.531 -0.1357 -0.2749  0.0479
  218loPI   C2A 3480  14.699   0.513  10.148 -0.2245  0.0782  0.0706
  218loPI   C3A 3481  14.712   0.445   9.697  0.0648 -0.1020 -0.0785
  218loPI   C4A 3482  14.753   0.464   9.310 -0.1386  0.0563  0.1347
  218loPI   C5A 3483  14.749   0.290   8.911  0.0924  0.2841  0.0344
  218loPI   C6A 3484  14.714   0.385   8.457 -0.1425 -0.0200  0.3703
  218loPI   C1B 3485  15.179   0.407  10.372  0.2210 -0.0544 -0.0916
  218loPI   C2B 3486  15.230   0.468   9.943 -0.0257 -0.1481  0.2195
  218loPI   C3B 3487  15.247   0.451   9.506  0.1247  0.1447  0.1607
  218loPI   C4B 3488  15.277   0.339   9.083  0.1273 -0.0248 -0.1154
  219loPI    C1 3489  10.574   1.991  11.154 -0.0081 -0.0710 -0.0652
  219loPI    C2 3490  10.809   1.954  11.475  0.0007  0.1352 -0.0467
  219loPI    C3 3491  10.509   1.696  11.416  0.0384  0.0585  0.0933
  219loPI   PO4 3492  10.658   1.887  10.854 -0.3690 -0.2446 -0.3304
  219loPI   GL1 3493  10.892   1.967  10.494  0.1141  0.0093 -0.0313
  219loPI   GL2 3494  11.030   2.160  10.611  0.1297 -0.0668  0.0393
  219loPI   C1A 3495  10.903   1.969  10.048  0.1922 -0.0597 -0.0919
  219loPI   C2A 3496  10.876   2.000   9.630  0.2898  0.2060  0.0016
  219loPI   C3A 3497  10.872   1.978   9.214 -0.0514  0.0379 -0.0274
  219loPI   C4A 3498  10.893   1.999   8.820  0.2494  0.3393  0.0138
  219loPI   C5A 3499  10.590   2.084   8.487 -0.0475 -0.5408  0.2349
  219loPI   C6A 3500  10.645   1.929   8.036  0.1071 -0.1724 -0.2332
  219loPI   C1B 3501  11.091   2.448  10.343 -0.1950  0.2312 -0.0566
  219loPI   C2B 3502  11.107   2.518   9.905  0.1226  0.0089  0.0285
  219loPI   C3B 3503  11.217   2.437   9.439  0.2436 -0.1083 -0.2161
  219loPI   C4B 3504  11.237   2.445   8.973  0.2894 -0.2572 -0.1190
  220loPI    C1 3505   9.078  14.411  10.818 -0.0280 -0.0224 -0.0840
  220loPI    C2 3506   9.247  14.175  11.093  0.0784  0.1143 -0.0308
  220loPI    C3 3507   9.044  14.500  11.206  0.2477  0.2526 -0.1190
  220loPI   PO4 3508   9.231  14.368  10.611 -0.1142 -0.0946  0.1258
  220loPI   GL1 3509   9.339  14.543  10.126  0.1754 -0.3019  0.0220
  220loPI   GL2 3510   9.146  14.426   9.961  0.0183  0.1132  0.1466
  220loPI   C1A 3511   9.352  14.771   9.635 -0.1227 -0.1652 -0.0724
  220loPI   C2A 3512   9.356  14.821   9.167 -0.2324  0.0492 -0.1425
  220loPI   C3A 3513   9.465  14.825   8.806 -0.2344 -0.5121 -0.2694
  220loPI   C4A 3514   9.523  14.905   8.327  0.2115 -0.2645 -0.2222
  220loPI   C5A 3515   9.261  14.886   7.903 -0.0833  0.1546 -0.3128
  220loPI   C6A 3516   8.870  14.938   7.678 -0.0789 -0.0315  0.1438
  220loPI   C1B 3517   9.027  14.314   9.586 -0.2227  0.0088  0.0122
  220loPI   C2B 3518   8.960  14.258   9.073  0.0006 -0.0716 -0.0676
  220loPI   C3B 3519   8.873  14.269   8.632  0.1045  0.0264  0.0722
  220loPI   C4B 3520   8.910  14.266   8.232  0.0059 -0.0987  0.2418
  221loPI    C1 3521  14.262   5.639  11.089  0.2035  0.0068  0.0251
  221loPI    C2 3522  14.136   5.383  11.369 -0.1279  0.1223 -0.0130
  221loPI    C3 3523  13.893   5.485  11.068  0.0574  0.3593 -0.0858
  221loPI   PO4 3524  14.461   5.581  11.008  0.1915  0.1037  0.0037
  221loPI   GL1 3525  14.279   5.515  10.593  0.1200  0.1810 -0.1252
  221loPI   GL2 3526  14.013   5.717  10.619  0.0234  0.1507 -0.1921
  221loPI   C1A 3527  14.213   5.303  10.263 -0.1893  0.0271  0.2320
  221loPI   C2A 3528  14.272   5.252   9.857  0.1527  0.0023 -0.1354
  221loPI   C3A 3529  14.279   5.264   9.468 -0.1074 -0.0460 -0.2395
  221loPI   C4A 3530  14.133   5.374   9.102  0.0645  0.0249 -0.2221
  221loPI   C5A 3531  13.902   5.346   8.714  0.1641  0.2954 -0.0872
  221loPI   C6A 3532  13.941   4.998   8.528  0.0904  0.4195  0.1533
  221loPI   C1B 3533  14.069   5.793  10.123  0.0919 -0.0394 -0.1698
  221loPI   C2B 3534  14.058   5.721   9.576 -0.0025 -0.3676  0.3990
  221loPI   C3B 3535  13.968   5.845   9.183 -0.1189 -0.1727  0.1855
  221loPI   C4B 3536  13.835   5.807   8.823  0.1670  0.0860 -0.2015
  222loPI    C1 3537  11.430  12.785  11.045 -0.3094 -0.0960 -0.0839
  222loPI    C2 3538  11.670  12.714  11.357 -0.1055  0.0765 -0.1985
  222loPI    C3 3539  11.298  12.567  11.353 -0.1382  0.1401  0.1615
  222loPI   PO4 3540  11.564  12.678  10.820  0.0777 -0.0206 -0.0362
  222loPI   GL1 3541  11.365  12.514  10.472 -0.0297  0.1063 -0.1724
  222loPI   GL2 3542  11.149  12.306  10.463  0.2064 -0.0356  0.0635
  222loPI   C1A 3543  11.352  12.444   9.987  0.1247 -0.1180  0.1278
  222loPI   C2A 3544  11.344  12.380   9.476 -0.2450 -0.1707 -0.2107
  222loPI   C3A 3545  11.368  12.281   9.119  0.0142 -0.0393  0.0642
  222loPI   C4A 3546  11.321  12.272   8.668  0.2075  0.2842  0.0287
  222loPI   C5A 3547  11.153  11.992   8.366 -0.0864 -0.0442 -0.0002
  222loPI   C6A 3548  10.961  11.731   8.114  0.2157  0.0716 -0.0903
  222loPI   C1B 3549  11.152  11.971  10.121  0.1218 -0.2567 -0.0604
  222loPI   C2B 3550  11.122  11.933   9.755  0.1299 -0.3576  0.0622
  222loPI   C3B 3551  11.097  11.946   9.369  0.0549 -0.0395  0.3994
  222loPI   C4B 3552  11.081  11.912   8.917  0.1413  0.4306  0.3010
  223loPI    C1 3553   6.266   2.535  11.203 -0.0277 -0.2244  0.2556
  223loPI    C2 3554   5.892   2.621  11.314 -0.1030 -0.0116 -0.1415
  223loPI    C3 3555   6.198   2.830  11.465 -0.1640 -0.0167 -0.0084
  223loPI   PO4 3556   6.306   2.514  10.972  0.2453  0.2697  0.0030
  223loPI   GL1 3557   6.357   2.652  10.527  0.1478  0.0827 -0.1983
  223loPI   GL2 3558   6.099   2.803  10.587 -0.2583 -0.3034  0.0450
  223loPI   C1A 3559   6.404   2.604  10.162 -0.2102  0.2181  0.1221
  223loPI   C2A 3560   6.480   2.758   9.736  0.3435  0.1463  0.3342
  223loPI   C3A 3561   6.436   2.754   9.317 -0.0239 -0.0409 -0.2376
  223loPI   C4A 3562   6.435   2.557   8.866 -0.4177 -0.1873  0.1867
  223loPI   C5A 3563   6.558   2.450   8.477 -0.0448 -0.3255 -0.0217
  223loPI   C6A 3564   6.806   2.505   8.087 -0.1790 -0.4303 -0.2372
  223loPI   C1B 3565   5.939   2.599  10.241  0.0374 -0.3142 -0.2672
  223loPI   C2B 3566   5.929   2.712   9.784 -0.1279  0.2106  0.0135
  223loPI   C3B 3567   5.863   2.647   9.338  0.1752 -0.3027 -0.0268
  223loPI   C4B 3568   5.838   2.536   8.957 -0.0886 -0.0002  0.0475
  224loPI    C1 3569  11.738   0.594  10.918  0.0587 -0.0849  0.1668
  224loPI    C2 3570  12.034   0.337  10.997 -0.0058 -0.1793  0.1017
  224loPI    C3 3571  11.882   0.562  11.290  0.1147 -0.1473  0.1399
  224loPI   PO4 3572  11.828   0.613  10.642 -0.0303 -0.1559 -0.0566
  224loPI   GL1 3573  12.061   0.335  10.401 -0.5249 -0.1993 -0.1001
  224loPI   GL2 3574  12.164   0.626  10.182  0.0743 -0.1261 -0.1867
  224loPI   C1A 3575  11.847   0.153   9.991 -0.0031  0.0707  0.0659
  224loPI   C2A 3576  11.854   0.127   9.503 -0.0408 -0.0100  0.0080
  224loPI   C3A 3577  11.937   0.133   9.130  0.4314 -0.0313  0.0493
  224loPI   C4A 3578  11.780   0.055   8.672 -0.0782 -0.2265  0.0886
  224loPI   C5A 3579  11.714  -0.041   8.212 -0.1585  0.0179  0.0127
  224loPI   C6A 3580  11.269  -0.096   8.020 -0.1527 -0.2810 -0.1742
  224loPI   C1B 3581  12.279   0.544   9.791  0.0429  0.3745  0.1912
  224loPI   C2B 3582  12.113   0.546   9.352 -0.0633  0.1209 -0.1880
  224loPI   C3B 3583  12.205   0.564   8.887 -0.1782  0.3921  0.2693
  224loPI   C4B 3584  12.194   0.377   8.479  0.1451  0.3944 -0.1854
  225loPI    C1 3585   1.371   7.369  10.780 -0.0051  0.0480  0.1866
  225loPI    C2 3586   1.112   7.573  10.554 -0.0253 -0.1052  0.0703
  225loPI    C3 3587   1.050   7.539  10.948 -0.0720  0.0322  0.0753
  225loPI   PO4 3588   1.430   7.150  10.643  0.1385  0.0694  0.0263
  225loPI   GL1 3589   1.066   7.052  10.412 -0.0194 -0.0265  0.0674
  225loPI   GL2 3590   0.874   6.715  10.449 -0.3559  0.0538  0.0198
  225loPI   C1A 3591   1.092   6.874  10.018 -0.1475 -0.1951 -0.1447
  225loPI   C2A 3592   1.174   6.703   9.565 -0.0259 -0.0295 -0.0307
  225loPI   C3A 3593   1.160   6.772   9.170 -0.0153 -0.1004 -0.3658
  225loPI   C4A 3594   1.171   6.759   8.771 -0.0028  0.1223 -0.0383
  225loPI   C5A 3595   0.966   6.711   8.421 -0.1258 -0.0292 -0.0805
  225loPI   C6A 3596   0.626   6.645   8.138 -0.0312 -0.2480  0.0193
  225loPI   C1B 3597   0.633   6.804  10.004  0.0501  0.0003  0.0564
  225loPI   C2B 3598   0.673   6.873   9.513 -0.0269  0.2860 -0.0649
  225loPI   C3B 3599   0.691   6.855   9.058 -0.0703  0.3227 -0.0423
  225loPI   C4B 3600   0.517   6.891   8.592 -0.2728  0.2413 -0.2794
  226loPI    C1 3601  12.607   6.024  11.443 -0.0318 -0.1071  0.0177
  226loPI    C2 3602  12.921   5.853  11.623  0.0861  0.1257  0.0370
  226loPI    C3 3603  12.863   6.247  11.654 -0.1207  0.1077 -0.0988
  226loPI   PO4 3604  12.622   5.920  11.185 -0.0471  0.2659  0.0747
  226loPI   GL1 3605  12.791   5.644  10.828 -0.2711 -0.0606 -0.3074
  226loPI   GL2 3606  12.678   6.001  10.724 -0.0800  0.1542  0.3482
  226loPI   C1A 3607  12.729   5.505  10.477 -0.1727 -0.0163 -0.2099
  226loPI   C2A 3608  12.657   5.407  10.077  0.1181 -0.1152 -0.3528
  226loPI   C3A 3609  12.652   5.417   9.660 -0.0071  0.0070  0.1420
  226loPI   C4A 3610  12.671   5.463   9.227  0.0708 -0.0536  0.0866
  226loPI   C5A 3611  12.628   5.440   8.814  0.0102  0.0650  0.2447
  226loPI   C6A 3612  12.389   5.125   8.484  0.0820  0.1088 -0.2235
  226loPI   C1B 3613  12.457   5.913  10.356  0.2234 -0.2875  0.3786
  226loPI   C2B 3614  12.405   5.917   9.920 -0.0591  0.0804  0.0862
  226loPI   C3B 3615  12.406   5.903   9.482 -0.1659  0.1537 -0.0438
  226loPI   C4B 3616  12.392   5.959   9.002 -0.0003  0.0527  0.0053
  227loPI    C1 3617   0.188   2.288  11.730  0.2706 -0.0712 -0.0002
  227loPI    C2 3618  -0.106   2.474  11.926  0.0369 -0.0976 -0.3182
  227loPI    C3 3619   0.269   2.497  12.061 -0.0497  0.2647 -0.1272
  227loPI   PO4 3620   0.053   2.299  11.382 -0.1460  0.1453 -0.0076
  227loPI   GL1 3621  -0.038   2.191  10.914  0.2777  0.0537 -0.0279
  227loPI   GL2 3622  -0.118   2.473  10.834 -0.0791  0.1021  0.0977
  227loPI   C1A 3623   0.119   2.074  10.495 -0.1337 -0.2732  0.1696
  227loPI   C2A 3624   0.141   2.074  10.113  0.0940  0.2012 -0.0528
  227loPI   C3A 3625   0.141   2.068   9.622  0.0197 -0.1500 -0.0285
  227loPI   C4A 3626   0.044   1.999   9.225 -0.1629  0.1536  0.0525
  227loPI   C5A 3627  -0.024   2.163   8.828 -0.1914  0.2111 -0.0366
  227loPI   C6A 3628   0.050   2.599   8.704 -0.0964  0.2388 -0.0275
  227loPI   C1B 3629  -0.077   2.537  10.441  0.0001  0.2137  0.2353
  227loPI   C2B 3630  -0.049   2.546   9.974  0.0771  0.1209 -0.2254
  227loPI   C3B 3631  -0.094   2.541   9.547 -0.0217  0.2317 -0.1976
  227loPI   C4B 3632  -0.247   2.521   9.171  0.1234 -0.0407  0.0460
  228loPI    C1 3633   3.757   2.315  11.193  0.3581  0.1250 -0.1928
  228loPI    C2 3634   3.884   2.457  11.545  0.1658 -0.0846 -0.0361
  228loPI    C3 3635   3.644   2.678  11.314  0.2361  0.0257 -0.0038
  228loPI   PO4 3636   3.919   2.296  10.920  0.0673  0.1806 -0.1041
  228loPI   GL1 3637   3.895   2.133  10.543  0.2827 -0.0156 -0.1989
  228loPI   GL2 3638   3.722   1.812  10.508 -0.3187  0.1821  0.2182
  228loPI   C1A 3639   4.051   2.189  10.149  0.0616  0.0372  0.0507
  228loPI   C2A 3640   4.120   2.248   9.891  0.0490  0.0106 -0.0393
  228loPI   C3A 3641   4.105   2.295   9.445  0.2449  0.1577  0.1462
  228loPI   C4A 3642   4.117   2.333   8.992  0.0625  0.1708 -0.0965
  228loPI   C5A 3643   4.053   2.325   8.523 -0.1987  0.3275 -0.0996
  228loPI   C6A 3644   3.696   2.224   8.338  0.2505 -0.3186 -0.2645
  228loPI   C1B 3645   3.722   1.797  10.093 -0.1816 -0.2005 -0.2346
  228loPI   C2B 3646   3.768   1.889   9.648 -0.1448 -0.3324 -0.0375
  228loPI   C3B 3647   3.763   1.913   9.211 -0.2369  0.0773  0.1937
  228loPI   C4B 3648   3.857   1.913   8.716  0.0412  0.2344 -0.0614
  229loPI    C1 3649   3.370  14.515  10.780 -0.1218 -0.0611 -0.1928
  229loPI    C2 3650   3.642  14.655  11.037 -0.1292  0.0764 -0.2592
  229loPI    C3 3651   3.254  14.736  11.093 -0.1258  0.1542 -0.3440
  229loPI   PO4 3652   3.486  14.610  10.566  0.1891  0.1036  0.0013
  229loPI   GL1 3653   3.422  14.631  10.141 -0.1303  0.1782 -0.0123
  229loPI   GL2 3654   3.207  14.877  10.267  0.0654  0.1412  0.0598
  229loPI   C1A 3655   3.298  14.659   9.717 -0.2317  0.1641  0.0305
  229loPI   C2A 3656   3.356  14.778   9.306 -0.0447  0.1771 -0.1444
  229loPI   C3A 3657   3.246  14.738   8.859  0.0107  0.1838  0.1247
  229loPI   C4A 3658   3.301  14.863   8.517 -0.1129 -0.2880  0.0324
  229loPI   C5A 3659   3.153  15.183   8.133 -0.0662 -0.0361 -0.5306
  229loPI   C6A 3660   3.222  15.634   8.075  0.3784  0.0674  0.1631
  229loPI   C1B 3661   3.097  15.082   9.870  0.1569  0.3520  0.1651
  229loPI   C2B 3662   3.043  15.264   9.499  0.0586  0.1137 -0.4125
  229loPI   C3B 3663   3.066  15.155   9.094 -0.0694 -0.0186 -0.0153
  229loPI   C4B 3664   3.041  15.277   8.589 -0.1853  0.0914  0.0193
  230loPI    C1 3665  15.531  11.489  11.015 -0.0511  0.0612 -0.0258
  230loPI    C2 3666  15.458  11.800  11.255  0.0523  0.0226  0.0568
  230loPI    C3 3667  15.713  11.515  11.370  0.0117 -0.0570 -0.0488
  230loPI   PO4 3668  15.598  11.570  10.793  0.0261  0.2076  0.4951
  230loPI   GL1 3669  15.719  11.604  10.329  0.1056  0.0131 -0.0544
  230loPI   GL2 3670  15.395  11.401  10.283  0.2933  0.3077 -0.0408
  230loPI   C1A 3671  15.601  11.425   9.831  0.1798 -0.1887  0.0370
  230loPI   C2A 3672  15.648  11.430   9.367 -0.2473 -0.1658 -0.2539
  230loPI   C3A 3673  15.685  11.494   8.950  0.1107 -0.1361  0.3481
  230loPI   C4A 3674  15.709  11.558   8.522 -0.2618  0.1360 -0.0933
  230loPI   C5A 3675  15.750  11.532   8.156 -0.2485 -0.1648 -0.1494
  230loPI   C6A 3676  15.570  11.702   7.726 -0.0807  0.1060 -0.2626
  230loPI   C1B 3677  15.135  11.426   9.914  0.1602  0.0396  0.2317
  230loPI   C2B 3678  15.094  11.466   9.451 -0.2336  0.2200  0.0915
  230loPI   C3B 3679  15.060  11.543   9.011  0.0369  0.0368 -0.1724
  230loPI   C4B 3680  15.185  11.550   8.551 -0.0528 -0.3388 -0.1596
  231loPI    C1 3681   1.515  14.409  10.149 -0.0674  0.0083 -0.0063
  231loPI    C2 3682   1.542  14.175  10.473  0.1952  0.0719  0.0206
  231loPI    C3 3683   1.718  14.064  10.131 -0.1259 -0.0207 -0.1189
  231loPI   PO4 3684   1.262  14.481  10.153 -0.0736 -0.3421 -0.0946
  231loPI   GL1 3685   1.030  14.329   9.817  0.0859  0.1178  0.2601
  231loPI   GL2 3686   1.105  14.004   9.747  0.2584  0.3657  0.3465
  231loPI   C1A 3687   0.903  14.518   9.476  0.0326 -0.1818  0.0629
  231loPI   C2A 3688   0.905  14.461   9.032 -0.0627  0.2889 -0.1169
  231loPI   C3A 3689   0.897  14.585   8.604 -0.1672  0.2452  0.0979
  231loPI   C4A 3690   0.861  14.572   8.181  0.3400  0.1203 -0.1593
  231loPI   C5A 3691   1.014  14.707   7.917 -0.0654 -0.0793  0.2072
  231loPI   C6A 3692   1.349  14.806   7.723  0.2346  0.1664  0.1674
  231loPI   C1B 3693   1.091  14.058   9.317 -0.0553 -0.2592  0.1551
  231loPI   C2B 3694   1.161  14.072   8.834 -0.2151  0.3570  0.2448
  231loPI   C3B 3695   1.117  14.067   8.413 -0.2780  0.0196 -0.0266
  231loPI   C4B 3696   1.172  14.235   7.980  0.0578  0.2504  0.0809
  232loPI    C1 3697   2.578   2.873  11.308  0.1901 -0.1137  0.0356
  232loPI    C2 3698   2.925   2.712  11.426  0.3178  0.2717  0.2015
  232loPI    C3 3699   2.816   3.073  11.560 -0.0323  0.2628 -0.0452
  232loPI   PO4 3700   2.626   2.770  11.043 -0.0285 -0.1307  0.0799
  232loPI   GL1 3701   2.837   2.777  10.678  0.1364  0.1492 -0.1087
  232loPI   GL2 3702   3.019   2.594  10.781  0.1760  0.1619 -0.0011
  232loPI   C1A 3703   2.669   2.761  10.288 -0.2560  0.1695  0.0146
  232loPI   C2A 3704   2.822   2.780   9.840  0.0350  0.2822 -0.2081
  232loPI   C3A 3705   2.729   2.826   9.300 -0.1475  0.3140 -0.1390
  232loPI   C4A 3706   2.735   2.737   8.819 -0.3815  0.0262 -0.2685
  232loPI   C5A 3707   2.601   2.841   8.401 -0.0743 -0.1296  0.0755
  232loPI   C6A 3708   2.597   2.657   7.973 -0.0184 -0.2424  0.1358
  232loPI   C1B 3709   3.244   2.683  10.350  0.0777  0.1229 -0.0745
  232loPI   C2B 3710   3.388   2.749   9.960  0.0795 -0.0492 -0.0702
  232loPI   C3B 3711   3.346   2.745   9.578  0.3409 -0.1710 -0.1547
  232loPI   C4B 3712   3.241   2.713   9.172 -0.0800  0.0006  0.0321
  233loPI    C1 3713   9.372   1.971  11.061 -0.0830  0.2205 -0.0539
  233loPI    C2 3714   9.579   2.055  11.393  0.1044 -0.6463  0.0706
  233loPI    C3 3715   9.214   1.893  11.420 -0.1287 -0.1776 -0.1563
  233loPI   PO4 3716   9.485   2.222  10.910  0.4204 -0.1255 -0.0696
  233loPI   GL1 3717   9.565   2.215  10.571 -0.0109 -0.0791  0.2302
  233loPI   GL2 3718   9.810   2.058  10.271  0.2733 -0.0911  0.1009
  233loPI   C1A 3719   9.546   2.578  10.177  0.1876  0.0973  0.5014
  233loPI   C2A 3720   9.535   2.693   9.743  0.0397 -0.0508  0.0747
  233loPI   C3A 3721   9.543   2.623   9.288 -0.0545 -0.0577  0.1261
  233loPI   C4A 3722   9.695   2.523   8.849  0.2044 -0.2613 -0.2183
  233loPI   C5A 3723   9.919   2.229   8.532 -0.0382  0.0593 -0.0136
  233loPI   C6A 3724  10.088   1.850   8.449  0.1396 -0.0323  0.0421
  233loPI   C1B 3725   9.784   1.954   9.785 -0.0815  0.2771  0.2819
  233loPI   C2B 3726   9.686   1.805   9.464  0.0995 -0.1075  0.1392
  233loPI   C3B 3727   9.535   1.635   9.110 -0.1551  0.1039 -0.4872
  233loPI   C4B 3728   9.636   1.441   8.672 -0.1060  0.1160 -0.0444
  234loPI    C1 3729  15.089  17.285  11.227 -0.0113  0.0364  0.2120
  234loPI    C2 3730  15.124  17.619  11.444  0.1021  0.1454  0.0291
  234loPI    C3 3731  15.376  17.314  11.505  0.0679  0.1350  0.1207
  234loPI   PO4 3732  14.986  17.320  10.984 -0.1408 -0.2132 -0.1137
  234loPI   GL1 3733  14.863  17.351  10.608 -0.1666  0.2693 -0.0639
  234loPI   GL2 3734  14.836  17.725  10.606  0.0045  0.1986  0.1495
  234loPI   C1A 3735  14.741  17.378  10.190  0.1380 -0.2048  0.2004
  234loPI   C2A 3736  14.636  17.391   9.763 -0.0500 -0.0924 -0.0456
  234loPI   C3A 3737  14.687  17.399   9.306  0.0124 -0.0883 -0.0510
  234loPI   C4A 3738  14.746  17.343   8.805  0.0511  0.1236  0.1655
  234loPI   C5A 3739  14.609  17.172   8.428  0.0062  0.0611 -0.0811
  234loPI   C6A 3740  14.253  17.437   8.184  0.0543  0.3302  0.0581
  234loPI   C1B 3741  14.963  17.885  10.189  0.4120  0.1268 -0.1724
  234loPI   C2B 3742  14.964  17.871   9.705  0.2224 -0.0786 -0.0617
  234loPI   C3B 3743  14.966  17.831   9.326  0.1618  0.0201 -0.0472
  234loPI   C4B 3744  15.076  17.708   9.065 -0.3025 -0.0009 -0.3083
  235loPI    C1 3745  11.573   4.395  11.189  0.1189 -0.1258 -0.0132
  235loPI    C2 3746  11.858   4.675  11.198  0.1527 -0.1438 -0.3774
  235loPI    C3 3747  11.848   4.391  11.478 -0.0794  0.4051  0.1962
  235loPI   PO4 3748  11.574   4.241  10.909 -0.0996  0.1663  0.1356
  235loPI   GL1 3749  11.809   4.012  10.723  0.1066  0.1236 -0.1546
  235loPI   GL2 3750  11.830   4.140  10.479 -0.1065 -0.1282 -0.0107
  235loPI   C1A 3751  11.594   3.700  10.337 -0.0035  0.1848  0.0383
  235loPI   C2A 3752  11.490   3.778   9.900  0.0199 -0.0569 -0.3850
  235loPI   C3A 3753  11.536   3.821   9.507  0.0854  0.1344  0.0372
  235loPI   C4A 3754  11.608   3.788   9.071  0.0519 -0.0499 -0.1330
  235loPI   C5A 3755  11.616   3.741   8.651  0.1343 -0.2291  0.3405
  235loPI   C6A 3756  11.854   4.113   8.294 -0.0904  0.0259  0.0766
  235loPI   C1B 3757  11.794   4.188  10.071 -0.2551  0.1061  0.0388
  235loPI   C2B 3758  11.762   4.181   9.639 -0.4495 -0.3257 -0.4642
  235loPI   C3B 3759  11.769   4.179   9.232 -0.0518 -0.1055  0.2103
  235loPI   C4B 3760  11.929   4.150   8.839 -0.0064 -0.0085  0.1474
  236loPI    C1 3761   0.683  17.481  11.346 -0.0191 -0.0072 -0.0169
  236loPI    C2 3762   0.502  17.604  11.680  0.0063 -0.1974  0.0683
  236loPI    C3 3763   0.896  17.655  11.636  0.0394 -0.3646  0.1608
  236loPI   PO4 3764   0.618  17.629  11.099 -0.0084 -0.0276 -0.0236
  236loPI   GL1 3765   0.641  17.575  10.689  0.1551 -0.0366  0.1155
  236loPI   GL2 3766   0.858  17.463  10.604  0.0424 -0.0684  0.3075
  236loPI   C1A 3767   0.712  17.956  10.314 -0.1017  0.0056 -0.3159
  236loPI   C2A 3768   0.604  18.054   9.900 -0.0631 -0.0951 -0.0131
  236loPI   C3A 3769   0.580  18.102   9.499  0.0741  0.1443  0.1814
  236loPI   C4A 3770   0.674  18.113   9.148 -0.1109  0.1116 -0.1993
  236loPI   C5A 3771   0.558  18.069   8.756  0.0075  0.1418 -0.2102
  236loPI   C6A 3772   0.642  18.329   8.420  0.4905  0.2143 -0.1714
  236loPI   C1B 3773   0.956  17.486  10.167  0.1935 -0.1521 -0.3443
  236loPI   C2B 3774   0.884  17.604   9.760  0.0219  0.1269  0.1933
  236loPI   C3B 3775   0.813  17.634   9.347 -0.2627  0.2278  0.1812
  236loPI   C4B 3776   0.841  17.670   8.921  0.2309 -0.2073  0.1581
  237loPI    C1 3777  10.998  16.047  10.466  0.0745  0.0388 -0.0610
  237loPI    C2 3778  10.832  16.107  10.826 -0.0445  0.0908 -0.1238
  237loPI    C3 3779  11.227  16.047  10.794 -0.0266  0.1352  0.0105
  237loPI   PO4 3780  10.871  15.880  10.361  0.2491 -0.3390  0.0735
  237loPI   GL1 3781  10.871  15.726   9.991  0.2222  0.4252 -0.2678
  237loPI   GL2 3782  11.093  15.552   9.819 -0.0401  0.0872 -0.2143
  237loPI   C1A 3783  10.799  15.808   9.499 -0.0507 -0.1779 -0.0887
  237loPI   C2A 3784  10.935  15.645   9.083  0.0026 -0.1163 -0.3165
  237loPI   C3A 3785  10.942  15.631   8.747  0.1129  0.3765 -0.1971
  237loPI   C4A 3786  11.086  15.560   8.453  0.0954  0.1131  0.0608
  237loPI   C5A 3787  11.361  15.465   8.120 -0.2710 -0.1908 -0.3073
  237loPI   C6A 3788  11.348  15.528   7.695 -0.2842  0.3600  0.1351
  237loPI   C1B 3789  11.271  15.587   9.524 -0.1054 -0.0699 -0.2496
  237loPI   C2B 3790  11.388  15.611   9.111  0.0490 -0.1081  0.2500
  237loPI   C3B 3791  11.560  15.620   8.667 -0.1097 -0.1269  0.0944
  237loPI   C4B 3792  11.768  15.774   8.291  0.1761  0.3769 -0.3554
  238loPI    C1 3793   7.826  17.305  10.968 -0.1076  0.0162 -0.0449
  238loPI    C2 3794   8.191  17.424  11.081 -0.0109 -0.1465 -0.1823
  238loPI    C3 3795   7.953  17.236  11.341  0.0138 -0.0654 -0.1006
  238loPI   PO4 3796   7.863  17.392  10.706 -0.1405  0.2337  0.1369
  238loPI   GL1 3797   7.656  17.566  10.381 -0.0564  0.0096  0.1506
  238loPI   GL2 3798   7.461  17.540  10.143 -0.3255  0.0203 -0.3162
  238loPI   C1A 3799   7.830  17.689   9.897  0.2064 -0.1824 -0.0571
  238loPI   C2A 3800   7.788  17.701   9.482 -0.1506  0.1547  0.1089
  238loPI   C3A 3801   7.877  17.709   9.085  0.5530 -0.1218  0.0950
  238loPI   C4A 3802   7.893  17.617   8.612  0.2967 -0.0624 -0.1454
  238loPI   C5A 3803   8.009  17.465   8.294 -0.3138  0.0727 -0.1434
  238loPI   C6A 3804   8.111  17.168   8.039  0.0426 -0.0700 -0.1159
  238loPI   C1B 3805   7.306  17.765   9.798 -0.0528 -0.1310 -0.1528
  238loPI   C2B 3806   7.279  17.732   9.316  0.0764  0.1076  0.0724
  238loPI   C3B 3807   7.399  17.678   8.856  0.3080  0.4810 -0.1312
  238loPI   C4B 3808   7.314  17.651   8.474  0.0359 -0.2062 -0.0743
  239loPI    C1 3809  17.017   8.047  11.193  0.0089 -0.1802  0.1226
  239loPI    C2 3810  17.303   8.112  10.920 -0.2066 -0.0824 -0.0831
  239loPI    C3 3811  17.249   8.373  11.219 -0.1744 -0.0264 -0.1260
  239loPI   PO4 3812  16.829   7.899  11.027 -0.2689  0.0725 -0.1446
  239loPI   GL1 3813  16.908   7.967  10.623 -0.3563  0.2177  0.0019
  239loPI   GL2 3814  17.188   7.713  10.562 -0.0076  0.1793 -0.0418
  239loPI   C1A 3815  16.504   7.977  10.307 -0.0370 -0.3810  0.4090
  239loPI   C2A 3816  16.484   7.841   9.993  0.1202 -0.3102 -0.0719
  239loPI   C3A 3817  16.493   7.794   9.551 -0.0761  0.2437 -0.1556
  239loPI   C4A 3818  16.484   7.876   9.223  0.0970 -0.0253  0.1199
  239loPI   C5A 3819  16.420   7.851   8.737  0.1169  0.1881  0.0069
  239loPI   C6A 3820  16.367   8.001   8.397  0.3363  0.4007 -0.2065
  239loPI   C1B 3821  17.020   7.874  10.106 -0.0076 -0.0639 -0.2833
  239loPI   C2B 3822  17.027   7.820   9.711  0.1764 -0.3606 -0.2165
  239loPI   C3B 3823  16.974   7.815   9.255 -0.0127  0.1673  0.3157
  239loPI   C4B 3824  16.899   7.927   8.868 -0.3404  0.0275  0.3366
  240loPI    C1 3825   6.655   2.869  11.113  0.1267  0.1943  0.1550
  240loPI    C2 3826   6.965   2.941  11.356  0.1662  0.0703  0.1418
  240loPI    C3 3827   6.678   2.685  11.468  0.1696  0.0349  0.0704
  240loPI   PO4 3828   6.701   2.833  10.916 -0.1267  0.1098  0.1431
  240loPI   GL1 3829   6.861   2.804  10.552  0.1872  0.0508  0.1603
  240loPI   GL2 3830   7.019   2.651  10.273  0.3465 -0.2463 -0.1944
  240loPI   C1A 3831   6.753   3.041  10.109 -0.0818  0.0660  0.0290
  240loPI   C2A 3832   6.753   3.143   9.658  0.2822 -0.1547 -0.1778
  240loPI   C3A 3833   6.765   3.113   9.239 -0.1056  0.3080 -0.2517
  240loPI   C4A 3834   6.634   3.079   8.908  0.0431  0.1488 -0.2384
  240loPI   C5A 3835   6.575   3.065   8.435  0.0187  0.0783  0.0918
  240loPI   C6A 3836   6.721   3.139   8.073 -0.3195 -0.3792  0.1190
  240loPI   C1B 3837   6.958   2.579   9.907 -0.3366  0.1352  0.4143
  240loPI   C2B 3838   6.940   2.670   9.429 -0.1081  0.0198  0.3566
  240loPI   C3B 3839   6.940   2.709   9.002 -0.0060 -0.0967 -0.0430
  240loPI   C4B 3840   6.939   2.741   8.566  0.0716  0.0989  0.3291
  241loPI    C1 3841   9.974  13.728  11.003 -0.2063  0.2564 -0.3645
  241loPI    C2 3842   9.651  13.892  11.173  0.1352  0.1750  0.4025
  241loPI    C3 3843  10.003  14.082  11.187  0.2397  0.0164  0.0515
  241loPI   PO4 3844   9.916  13.643  10.734  0.0168  0.3364  0.0513
  241loPI   GL1 3845   9.990  13.676  10.394 -0.1102  0.2438  0.0682
  241loPI   GL2 3846   9.809  13.876  10.318 -0.0929  0.0511  0.0308
  241loPI   C1A 3847  10.012  13.413  10.073  0.2249  0.0613  0.0682
  241loPI   C2A 3848   9.980  13.373   9.569 -0.3221 -0.2827 -0.0557
  241loPI   C3A 3849   9.945  13.231   9.132 -0.1770 -0.0001  0.2111
  241loPI   C4A 3850   9.847  13.312   8.638  0.4851 -0.1735  0.1900
  241loPI   C5A 3851   9.663  13.342   8.349  0.3270 -0.2211 -0.1759
  241loPI   C6A 3852   9.461  13.635   8.127  0.1103  0.2061  0.3051
  241loPI   C1B 3853   9.717  13.845   9.912 -0.1220 -0.2097  0.0454
  241loPI   C2B 3854   9.641  13.838   9.448 -0.0203 -0.1416  0.0745
  241loPI   C3B 3855   9.597  13.896   9.004 -0.0826 -0.1549 -0.0749
  241loPI   C4B 3856   9.673  13.924   8.473  0.0473 -0.0952  0.3773
  242loPI    C1 3857  16.645  10.349  10.722 -0.0626  0.0513  0.0215
  242loPI    C2 3858  16.402  10.138  10.961  0.0173  0.1650  0.2056
  242loPI    C3 3859  16.418  10.537  10.994 -0.2066  0.2135 -0.2072
  242loPI   PO4 3860  16.629  10.274  10.447 -0.1210 -0.0051  0.1622
  242loPI   GL1 3861  16.664   9.983  10.103 -0.0725 -0.2700 -0.0262
  242loPI   GL2 3862  16.380  10.078   9.963  0.2402 -0.1157 -0.2285
  242loPI   C1A 3863  16.915  10.035   9.698  0.2779 -0.2905  0.1434
  242loPI   C2A 3864  16.824  10.017   9.361  0.2361  0.3908  0.0035
  242loPI   C3A 3865  16.863  10.077   8.892 -0.0070 -0.0519 -0.0351
  242loPI   C4A 3866  16.825  10.042   8.375  0.0738 -0.0905  0.0685
  242loPI   C5A 3867  16.572  10.016   7.947 -0.3203 -0.0155 -0.2709
  242loPI   C6A 3868  16.531  10.053   7.566  0.1182 -0.2742 -0.2158
  242loPI   C1B 3869  16.283  10.026   9.571 -0.0484  0.1138 -0.1675
  242loPI   C2B 3870  16.336  10.116   9.105 -0.1976 -0.0610 -0.0839
  242loPI   C3B 3871  16.389  10.173   8.693 -0.3849 -0.0693 -0.1101
  242loPI   C4B 3872  16.192  10.110   8.336  0.3887  0.1103  0.1282
  243loPI    C1 3873   6.818   1.869  10.924 -0.3306  0.0133  0.0562
  243loPI    C2 3874   6.858   1.613  11.229 -0.1019  0.1093  0.1085
  243loPI    C3 3875   7.065   1.955  11.226 -0.2165  0.1787 -0.0827
  243loPI   PO4 3876   6.837   1.762  10.713 -0.0136 -0.1439  0.0947
  243loPI   GL1 3877   6.943   1.549  10.304  0.0723 -0.1317 -0.0502
  243loPI   GL2 3878   6.896   1.738  10.132 -0.0997 -0.0419 -0.2057
  243loPI   C1A 3879   7.196   1.321   9.986 -0.3740 -0.2561 -0.0620
  243loPI   C2A 3880   7.200   1.278   9.522  0.1319  0.1698 -0.0010
  243loPI   C3A 3881   7.153   1.248   9.172 -0.2210 -0.1074 -0.0933
  243loPI   C4A 3882   7.042   1.166   8.788  0.1150  0.2748 -0.1699
  243loPI   C5A 3883   7.215   1.047   8.382  0.1370  0.2289  0.0440
  243loPI   C6A 3884   6.980   0.972   7.971  0.0582  0.2339 -0.1136
  243loPI   C1B 3885   7.024   1.704   9.747  0.1993 -0.2450  0.2437
  243loPI   C2B 3886   6.900   1.850   9.353 -0.1552 -0.0754  0.1780
  243loPI   C3B 3887   6.857   1.655   8.873 -0.0138  0.3744  0.2453
  243loPI   C4B 3888   6.819   1.506   8.500  0.1327 -0.1262 -0.1106
  244loPI    C1 3889   7.979   0.973  11.155 -0.2367  0.0340  0.0565
  244loPI    C2 3890   7.837   0.675  11.380 -0.1710  0.1850  0.3013
  244loPI    C3 3891   8.219   0.788  11.415 -0.1389  0.1589  0.0558
  244loPI   PO4 3892   7.900   0.960  10.977  0.0768  0.1794 -0.2541
  244loPI   GL1 3893   7.876   1.086  10.537  0.0108 -0.2378  0.0768
  244loPI   GL2 3894   8.145   1.344  10.457  0.1674 -0.3839  0.0035
  244loPI   C1A 3895   7.689   1.151  10.127 -0.2579 -0.3987  0.1217
  244loPI   C2A 3896   7.720   1.286   9.684 -0.4184  0.0271  0.2763
  244loPI   C3A 3897   7.659   1.346   9.235 -0.1689  0.2244  0.1009
  244loPI   C4A 3898   7.635   1.196   8.775  0.1125 -0.2511 -0.0198
  244loPI   C5A 3899   7.786   1.300   8.335  0.0834 -0.3690 -0.1300
  244loPI   C6A 3900   7.971   1.409   7.954 -0.0288 -0.0246  0.2252
  244loPI   C1B 3901   8.405   1.527  10.151 -0.1269 -0.4101 -0.0021
  244loPI   C2B 3902   8.434   1.686   9.803 -0.0902  0.0827 -0.0261
  244loPI   C3B 3903   8.522   1.710   9.411 -0.0844  0.0406  0.1371
  244loPI   C4B 3904   8.425   1.614   8.905  0.0955 -0.0089 -0.0277
  245loPI    C1 3905   5.147   5.532  11.034 -0.1557  0.1258 -0.0203
  245loPI    C2 3906   5.105   5.143  10.951  0.0125  0.1373 -0.1666
  245loPI    C3 3907   5.280   5.258  11.292 -0.1805  0.0864 -0.0492
  245loPI   PO4 3908   5.219   5.593  10.842 -0.0780 -0.2323 -0.2802
  245loPI   GL1 3909   5.227   5.293  10.532 -0.1211 -0.0706 -0.1715
  245loPI   GL2 3910   5.441   5.246  10.293  0.2170 -0.1912 -0.0844
  245loPI   C1A 3911   4.983   5.256  10.021  0.1147 -0.1712 -0.1847
  245loPI   C2A 3912   5.057   5.277   9.559  0.0377  0.2473  0.3571
  245loPI   C3A 3913   5.001   5.323   9.146  0.4884  0.2620 -0.0514
  245loPI   C4A 3914   4.979   5.376   8.661 -0.1231  0.1695  0.1313
  245loPI   C5A 3915   4.730   5.311   8.286  0.1344  0.0337  0.3099
  245loPI   C6A 3916   4.310   5.067   8.254  0.0112  0.1795 -0.0109
  245loPI   C1B 3917   5.511   5.246   9.867  0.1847 -0.1433  0.1196
  245loPI   C2B 3918   5.569   5.296   9.453  0.0934 -0.2196 -0.1303
  245loPI   C3B 3919   5.480   5.328   9.065 -0.0214  0.1995  0.2996
  245loPI   C4B 3920   5.441   5.249   8.611 -0.0388  0.0261  0.1920
  246loPI    C1 3921   4.052   0.207  11.256  0.1224  0.1316 -0.4120
  246loPI    C2 3922   4.431   0.308  11.179  0.2393  0.1027  0.0939
  246loPI    C3 3923   4.278   0.367  11.544 -0.2226  0.0412 -0.0827
  246loPI   PO4 3924   3.940   0.316  11.042 -0.1876 -0.1609 -0.2527
  246loPI   GL1 3925   3.801   0.211  10.649  0.3233  0.1562  0.0131
  246loPI   GL2 3926   3.695  -0.002  10.581  0.1236  0.0226  0.0582
  246loPI   C1A 3927   3.908   0.473  10.266 -0.2560  0.0496  0.2788
  246loPI   C2A 3928   3.967   0.533   9.781 -0.0615 -0.0686  0.0887
  246loPI   C3A 3929   3.878   0.521   9.364  0.2007  0.0898 -0.0304
  246loPI   C4A 3930   3.950   0.567   8.930 -0.3157 -0.0969 -0.1555
  246loPI   C5A 3931   3.936   0.289   8.564 -0.1453 -0.2362  0.0737
  246loPI   C6A 3932   3.698   0.096   8.266  0.0707  0.3289  0.0175
  246loPI   C1B 3933   3.607  -0.102  10.111  0.0567  0.0530  0.1183
  246loPI   C2B 3934   3.711  -0.026   9.682 -0.2074 -0.3182  0.0197
  246loPI   C3B 3935   3.704   0.044   9.252 -0.0344 -0.2223 -0.0613
  246loPI   C4B 3936   3.629   0.124   8.892 -0.2453 -0.3067  0.0484
  247loPI    C1 3937  14.121  16.115  10.980 -0.2514 -0.0818 -0.0440
  247loPI    C2 3938  13.858  16.153  11.278 -0.1069  0.0900  0.0637
  247loPI    C3 3939  14.216  16.328  11.304 -0.0357 -0.0207 -0.1453
  247loPI   PO4 3940  13.990  16.201  10.781 -0.1074  0.0572  0.1706
  247loPI   GL1 3941  13.919  16.499  10.471 -0.0985  0.1435 -0.0797
  247loPI   GL2 3942  14.183  16.505  10.460 -0.1057 -0.0160 -0.0635
  247loPI   C1A 3943  13.688  16.492  10.048 -0.1637 -0.2658  0.0997
  247loPI   C2A 3944  13.676  16.542   9.568 -0.1536 -0.2613  0.1399
  247loPI   C3A 3945  13.687  16.482   9.078  0.1319 -0.1192 -0.2349
  247loPI   C4A 3946  13.669  16.636   8.616 -0.0402  0.3472 -0.0435
  247loPI   C5A 3947  13.832  16.682   8.210 -0.3050 -0.0240  0.0916
  247loPI   C6A 3948  13.926  17.139   7.907  0.1103 -0.0193  0.0730
  247loPI   C1B 3949  14.195  16.520  10.052  0.1984  0.0487  0.1675
  247loPI   C2B 3950  14.281  16.446   9.610  0.2337 -0.0499 -0.1180
  247loPI   C3B 3951  14.181  16.574   9.182 -0.0960  0.1866  0.2102
  247loPI   C4B 3952  14.142  16.524   8.701  0.0208 -0.2067 -0.1001
  248loPI    C1 3953   5.142  16.788  11.190  0.0936 -0.1012 -0.0876
  248loPI    C2 3954   5.154  16.976  11.542  0.1949 -0.0436 -0.1212
  248loPI    C3 3955   5.290  16.601  11.511 -0.0695 -0.1486 -0.0392
  248loPI   PO4 3956   5.310  16.915  10.972 -0.1233 -0.4853  0.1013
  248loPI   GL1 3957   5.295  17.268  10.656 -0.1191 -0.2155  0.0855
  248loPI   GL2 3958   5.589  17.086  10.521 -0.0064  0.1565 -0.0620
  248loPI   C1A 3959   5.035  17.258  10.356  0.0839 -0.0092 -0.0317
  248loPI   C2A 3960   4.910  17.321   9.945  0.0166 -0.0728 -0.2232
  248loPI   C3A 3961   4.919  17.370   9.454  0.1271  0.0284 -0.2972
  248loPI   C4A 3962   4.937  17.287   9.095 -0.0644  0.1749 -0.1537
  248loPI   C5A 3963   4.526  17.350   8.834  0.0657 -0.1592 -0.1744
  248loPI   C6A 3964   4.224  17.124   8.521 -0.1793  0.1539 -0.1109
  248loPI   C1B 3965   5.589  17.341  10.174 -0.0919  0.2307  0.1317
  248loPI   C2B 3966   5.544  17.368   9.695 -0.0086  0.3130 -0.1577
  248loPI   C3B 3967   5.438  17.276   9.302 -0.0411  0.2582  0.2737
  248loPI   C4B 3968   5.437  17.373   8.841  0.0129  0.0745  0.0717
  249loPI    C1 3969   0.706   2.065  11.455 -0.0522 -0.0292  0.1274
  249loPI    C2 3970   0.733   2.408  11.660 -0.1156  0.2300 -0.2848
  249loPI    C3 3971   1.064   2.205  11.565 -0.0761  0.1874 -0.0633
  249loPI   PO4 3972   0.510   2.153  11.336  0.0776 -0.1393  0.0852
  249loPI   GL1 3973   0.474   2.248  10.850 -0.0489 -0.0063 -0.1573
  249loPI   GL2 3974   0.379   2.622  10.693 -0.1588 -0.1418 -0.0874
  249loPI   C1A 3975   0.571   1.930  10.511 -0.0734  0.0033  0.0160
  249loPI   C2A 3976   0.703   1.979  10.116  0.0889  0.2410 -0.0716
  249loPI   C3A 3977   0.654   1.964   9.693  0.2262  0.2419 -0.2911
  249loPI   C4A 3978   0.564   2.052   9.220  0.0732 -0.0075  0.1942
  249loPI   C5A 3979   0.762   1.938   8.813 -0.2665 -0.2836  0.1109
  249loPI   C6A 3980   0.955   1.956   8.356 -0.0825 -0.3101  0.0724
  249loPI   C1B 3981   0.482   2.469  10.356 -0.3050  0.1031  0.1784
  249loPI   C2B 3982   0.426   2.401   9.889  0.0381  0.0482 -0.2298
  249loPI   C3B 3983   0.442   2.462   9.492  0.0284 -0.2024 -0.0628
  249loPI   C4B 3984   0.234   2.459   9.145  0.4923  0.1474 -0.2735
  250loPI    C1 3985   2.456  11.259  10.260 -0.0627  0.1346 -0.0307
  250loPI    C2 3986   2.321  11.609  10.397  0.1163  0.2317 -0.0991
  250loPI    C3 3987   2.460  11.335  10.652  0.1349  0.2784 -0.0588
  250loPI   PO4 3988   2.461  11.323   9.978 -0.1890  0.2029 -0.2673
  250loPI   GL1 3989   2.683  11.355   9.547  0.1799 -0.0456  0.2130
  250loPI   GL2 3990   2.673  11.667   9.547  0.1232  0.0091 -0.1564
  250loPI   C1A 3991   2.856  11.158   9.249 -0.3153  0.2781  0.1460
  250loPI   C2A 3992   3.046  11.197   8.949  0.1012 -0.1390  0.2065
  250loPI   C3A 3993   2.988  11.386   8.457 -0.1639 -0.1157 -0.1029
  250loPI   C4A 3994   2.888  11.243   8.042 -0.1766 -0.1198 -0.2868
  250loPI   C5A 3995   2.872  10.936   7.738  0.1603  0.3137 -0.1371
  250loPI   C6A 3996   2.838  10.511   7.642 -0.2606 -0.0385  0.1037
  250loPI   C1B 3997   2.773  11.614   9.051  0.1780 -0.1507  0.2460
  250loPI   C2B 3998   2.744  11.762   8.617 -0.0794 -0.2962  0.0708
  250loPI   C3B 3999   2.652  11.746   8.157  0.1229 -0.0791 -0.0207
  250loPI   C4B 4000   2.559  12.065   7.839 -0.2536  0.2829 -0.0421
  251loPI    C1 4001  11.103   7.339  11.206 -0.0621  0.1470  0.1547
  251loPI    C2 4002  11.340   7.417  11.519 -0.1278 -0.1440  0.2803
  251loPI    C3 4003  10.959   7.539  11.520 -0.0854 -0.0097  0.2449
  251loPI   PO4 4004  11.300   7.383  10.974  0.0032  0.2704  0.3060
  251loPI   GL1 4005  11.101   7.237  10.646 -0.1734 -0.1963  0.2599
  251loPI   GL2 4006  10.968   6.987  10.508 -0.0061  0.2444 -0.0866
  251loPI   C1A 4007  11.112   7.584  10.281  0.1567  0.3612  0.0422
  251loPI   C2A 4008  10.947   7.829  10.012 -0.3355 -0.1533  0.3242
  251loPI   C3A 4009  10.934   7.816   9.626  0.1469  0.0391 -0.0720
  251loPI   C4A 4010  10.929   7.854   9.247 -0.2290 -0.2077  0.0781
  251loPI   C5A 4011  10.953   7.884   8.816 -0.2001 -0.0590 -0.1357
  251loPI   C6A 4012  10.910   7.924   8.370 -0.5136 -0.0982  0.1278
  251loPI   C1B 4013  10.943   7.001  10.049 -0.3493 -0.5015 -0.0397
  251loPI   C2B 4014  10.901   6.968   9.558  0.2080 -0.0193  0.0229
  251loPI   C3B 4015  10.848   6.856   9.151 -0.2467  0.0688  0.1987
  251loPI   C4B 4016  10.906   6.901   8.636  0.1090  0.1225  0.2277
  252loPI    C1 4017   6.878   5.997  11.314 -0.2211 -0.1544  0.0228
  252loPI    C2 4018   7.260   6.065  11.411 -0.1467 -0.0617 -0.3198
  252loPI    C3 4019   6.997   5.960  11.694  0.0722  0.1386 -0.0360
  252loPI   PO4 4020   6.882   5.911  11.076  0.0868 -0.1066  0.0472
  252loPI   GL1 4021   6.584   5.946  10.651 -0.1999 -0.2096  0.0549
  252loPI   GL2 4022   6.806   6.029  10.611  0.1652 -0.2706  0.1285
  252loPI   C1A 4023   6.458   6.107  10.312 -0.1661  0.1897 -0.1027
  252loPI   C2A 4024   6.479   6.082   9.918  0.1810  0.0816  0.1812
  252loPI   C3A 4025   6.540   6.120   9.521 -0.0606  0.1326  0.0540
  252loPI   C4A 4026   6.520   6.175   9.128  0.1107  0.1558 -0.0007
  252loPI   C5A 4027   6.564   6.069   8.697  0.0066  0.0394  0.2151
  252loPI   C6A 4028   6.486   6.107   8.318 -0.3275  0.1738 -0.0240
  252loPI   C1B 4029   6.953   6.011  10.254  0.0759  0.0525  0.1293
  252loPI   C2B 4030   6.959   5.993   9.808 -0.1350 -0.0243  0.0075
  252loPI   C3B 4031   6.913   5.847   9.378 -0.0190  0.0138 -0.0780
  252loPI   C4B 4032   6.776   5.729   8.971  0.1837  0.1913 -0.1424
  253loPI    C1 4033   1.044  12.438  10.236 -0.1580 -0.0129 -0.0214
  253loPI    C2 4034   0.988  12.072  10.085  0.1051 -0.0762  0.0298
  253loPI    C3 4035   0.976  12.129  10.481  0.2145 -0.0582  0.0310
  253loPI   PO4 4036   0.971  12.589  10.113  0.1103 -0.0598  0.1978
  253loPI   GL1 4037   0.653  12.593   9.828 -0.1373 -0.0911 -0.0866
  253loPI   GL2 4038   0.325  12.686   9.970  0.0258 -0.1271 -0.0565
  253loPI   C1A 4039   0.731  12.627   9.402 -0.0785  0.1095 -0.0028
  253loPI   C2A 4040   0.761  12.769   8.933  0.2358  0.0920 -0.1018
  253loPI   C3A 4041   0.827  12.717   8.606  0.2546 -0.0707  0.0361
  253loPI   C4A 4042   0.781  12.680   8.177 -0.0928 -0.0635 -0.0805
  253loPI   C5A 4043   1.020  12.480   7.856  0.0360  0.1138 -0.2909
  253loPI   C6A 4044   1.362  12.495   7.628 -0.0453 -0.2990 -0.2435
  253loPI   C1B 4045   0.206  12.677   9.544 -0.0836  0.1230  0.0323
  253loPI   C2B 4046   0.282  12.689   9.109  0.2499 -0.1569  0.0891
  253loPI   C3B 4047   0.335  12.852   8.645  0.4202  0.1395  0.0566
  253loPI   C4B 4048   0.260  12.770   8.262 -0.0310 -0.1908  0.1906
  254loPI    C1 4049   4.549  14.638  10.891  0.1841  0.3075 -0.1121
  254loPI    C2 4050   4.720  14.352  11.112  0.1331  0.2423 -0.1565
  254loPI    C3 4051   4.704  14.728  11.248  0.0167  0.1841 -0.0069
  254loPI   PO4 4052   4.636  14.631  10.590 -0.2319  0.1377  0.0784
  254loPI   GL1 4053   4.650  14.973  10.342  0.0446 -0.2862  0.1083
  254loPI   GL2 4054   4.214  14.927  10.278 -0.0935 -0.0396 -0.3966
  254loPI   C1A 4055   4.567  15.097   9.936  0.0509  0.2500 -0.2102
  254loPI   C2A 4056   4.576  15.106   9.459  0.0124 -0.1624  0.0227
  254loPI   C3A 4057   4.625  15.207   9.062  0.2503  0.1545  0.0939
  254loPI   C4A 4058   4.640  15.224   8.595 -0.1382 -0.1445 -0.3336
  254loPI   C5A 4059   4.617  15.014   8.188 -0.0391  0.0254 -0.0288
  254loPI   C6A 4060   4.757  14.508   8.124  0.0747  0.0860  0.0865
  254loPI   C1B 4061   4.088  15.062   9.791  0.0904  0.1305  0.0050
  254loPI   C2B 4062   4.122  15.169   9.310  0.1045  0.1285  0.0339
  254loPI   C3B 4063   4.108  15.204   8.827  0.2077 -0.2690 -0.0408
  254loPI   C4B 4064   4.147  15.263   8.403  0.3108 -0.1480  0.1926
  255loPI    C1 4065  17.758   3.480  11.325 -0.0891 -0.0337 -0.1554
  255loPI    C2 4066  18.023   3.239  11.503 -0.0832  0.0204 -0.0901
  255loPI    C3 4067  17.756   3.439  11.723 -0.0845  0.0779 -0.1435
  255loPI   PO4 4068  17.702   3.386  11.095 -0.1725 -0.2677 -0.1314
  255loPI   GL1 4069  17.837   3.477  10.692  0.1441 -0.1388  0.1340
  255loPI   GL2 4070  17.619   3.547  10.637  0.0645  0.0023 -0.1112
  255loPI   C1A 4071  17.930   3.375  10.275 -0.0578 -0.0666 -0.1933
  255loPI   C2A 4072  17.782   3.373   9.866  0.0132 -0.4938 -0.1834
  255loPI   C3A 4073  17.709   3.334   9.399  0.1851 -0.1272 -0.0577
  255loPI   C4A 4074  17.666   3.424   8.960 -0.0497 -0.3582  0.0069
  255loPI   C5A 4075  17.562   3.341   8.637 -0.1389 -0.0808 -0.0837
  255loPI   C6A 4076  17.814   3.346   8.207 -0.0809 -0.2819 -0.2605
  255loPI   C1B 4077  17.359   3.406  10.402  0.3575 -0.0604  0.0067
  255loPI   C2B 4078  17.263   3.375   9.978 -0.2851 -0.1784  0.1164
  255loPI   C3B 4079  17.144   3.310   9.529  0.2095  0.0226 -0.2561
  255loPI   C4B 4080  17.162   3.413   9.153  0.1785  0.2348  0.0575
  256loPI    C1 4081  14.251  12.417  10.907  0.1373 -0.3740  0.0041
  256loPI    C2 4082  14.618  12.497  11.043  0.1368  0.1515 -0.2771
  256loPI    C3 4083  14.298  12.635  11.239  0.1031  0.0658 -0.2715
  256loPI   PO4 4084  14.309  12.443  10.639 -0.0634  0.1929 -0.0452
  256loPI   GL1 4085  14.275  12.496  10.226 -0.1182  0.0838  0.3912
  256loPI   GL2 4086  14.421  12.163  10.278  0.1246 -0.1482 -0.2160
  256loPI   C1A 4087  14.250  12.552   9.838 -0.0873  0.0956 -0.3918
  256loPI   C2A 4088  14.311  12.480   9.505 -0.1594 -0.1267 -0.1547
  256loPI   C3A 4089  14.268  12.542   9.091 -0.4850  0.3637 -0.2609
  256loPI   C4A 4090  14.193  12.512   8.663 -0.1812 -0.0375 -0.1132
  256loPI   C5A 4091  14.287  12.583   8.232  0.0783 -0.0544  0.3121
  256loPI   C6A 4092  14.519  13.030   8.098 -0.2832 -0.1588 -0.2785
  256loPI   C1B 4093  14.409  12.063   9.863 -0.0808 -0.0267  0.1032
  256loPI   C2B 4094  14.514  12.020   9.351  0.2826  0.4279  0.1558
  256loPI   C3B 4095  14.441  12.048   9.045 -0.0463 -0.0738 -0.0724
  256loPI   C4B 4096  14.466  12.077   8.634  0.1575 -0.2671 -0.2348
  257loPI    C1 4097  12.757   1.462  11.140 -0.0680 -0.1307 -0.0738
  257loPI    C2 4098  13.070   1.376  11.373 -0.0675  0.0644 -0.0006
  257loPI    C3 4099  12.698   1.325  11.511 -0.0683 -0.0765 -0.0537
  257loPI   PO4 4100  12.874   1.555  10.886  0.3021 -0.1860 -0.2821
  257loPI   GL1 4101  13.070   1.702  10.552  0.0453  0.1098 -0.3946
  257loPI   GL2 4102  13.238   1.453  10.444 -0.2734 -0.0776  0.1241
  257loPI   C1A 4103  13.013   1.880  10.170  0.2093 -0.1962 -0.3938
  257loPI   C2A 4104  13.014   1.878   9.773  0.0931  0.2357  0.1166
  257loPI   C3A 4105  12.986   1.842   9.346 -0.0136  0.0381  0.2085
  257loPI   C4A 4106  12.986   1.856   8.890  0.2165 -0.0174 -0.1739
  257loPI   C5A 4107  12.959   1.955   8.471 -0.0830  0.0424  0.1519
  257loPI   C6A 4108  12.992   2.197   8.184 -0.1454  0.3095  0.2957
  257loPI   C1B 4109  13.234   1.455  10.006  0.0759 -0.2189  0.1952
  257loPI   C2B 4110  13.221   1.453   9.575  0.0625  0.1359 -0.2093
  257loPI   C3B 4111  13.319   1.417   9.153 -0.0523 -0.0992  0.1087
  257loPI   C4B 4112  13.260   1.357   8.787  0.3199 -0.2166 -0.1688
  258loPI    C1 4113  11.115  16.542  10.666  0.1305 -0.0487 -0.0046
  258loPI    C2 4114  11.441  16.532  10.898 -0.0325 -0.1832  0.2235
  258loPI    C3 4115  11.149  16.794  10.976  0.1275  0.1097 -0.1319
  258loPI   PO4 4116  11.253  16.462  10.407 -0.3096 -0.0395  0.0343
  258loPI   GL1 4117  11.091  16.485  10.072 -0.0429 -0.0385  0.0144
  258loPI   GL2 4118  10.826  16.340  10.006  0.1901 -0.0201  0.3727
  258loPI   C1A 4119  11.107  16.730   9.804  0.0913 -0.2015 -0.1890
  258loPI   C2A 4120  11.052  16.649   9.380 -0.0548 -0.2951 -0.1982
  258loPI   C3A 4121  11.093  16.649   9.019  0.2085  0.0134  0.0806
  258loPI   C4A 4122  10.909  16.588   8.619 -0.1163 -0.0567  0.0008
  258loPI   C5A 4123  10.701  16.672   8.265  0.2676 -0.0690  0.3727
  258loPI   C6A 4124  10.853  16.863   7.941 -0.1466  0.0211 -0.0587
  258loPI   C1B 4125  10.779  16.305   9.597 -0.1487  0.3539  0.0863
  258loPI   C2B 4126  10.745  16.245   9.136 -0.0156  0.2584 -0.0391
  258loPI   C3B 4127  10.728  16.054   8.782  0.1337 -0.1508  0.1547
  258loPI   C4B 4128  10.818  16.099   8.440  0.2812  0.0440 -0.1697
  259loPI    C1 4129   6.449   7.075  10.983 -0.2695 -0.0778 -0.2263
  259loPI    C2 4130   6.461   7.443  10.826 -0.2386  0.1091  0.2027
  259loPI    C3 4131   6.111   7.253  10.863 -0.2424  0.0489 -0.1163
  259loPI   PO4 4132   6.618   6.952  10.848  0.0962 -0.2462  0.3835
  259loPI   GL1 4133   6.576   7.062  10.439 -0.0639  0.0430  0.0245
  259loPI   GL2 4134   6.291   7.115  10.363 -0.2047 -0.0114  0.1415
  259loPI   C1A 4135   6.556   6.931   9.937 -0.2136  0.2800  0.3366
  259loPI   C2A 4136   6.601   7.006   9.503  0.0415 -0.0430  0.1471
  259loPI   C3A 4137   6.592   7.022   9.053  0.0274  0.0983 -0.2939
  259loPI   C4A 4138   6.636   6.988   8.580 -0.1717  0.1931 -0.0283
  259loPI   C5A 4139   6.823   7.163   8.222 -0.1295 -0.0617  0.0417
  259loPI   C6A 4140   6.652   7.461   7.974  0.3905  0.0112 -0.2909
  259loPI   C1B 4141   6.054   7.036   9.982  0.0540  0.0157 -0.2961
  259loPI   C2B 4142   6.099   7.014   9.598  0.2686 -0.0361 -0.1234
  259loPI   C3B 4143   6.123   7.023   9.175 -0.2293 -0.0441  0.1930
  259loPI   C4B 4144   6.129   7.012   8.688 -0.0247 -0.0015 -0.2482
  260loPI    C1 4145   4.077   7.099  10.922 -0.1389  0.1000 -0.0129
  260loPI    C2 4146   3.904   7.015  11.272 -0.0474  0.1763  0.0508
  260loPI    C3 4147   4.295   7.098  11.257 -0.0085 -0.0252 -0.0967
  260loPI   PO4 4148   3.922   7.281  10.820  0.1199 -0.0125 -0.1139
  260loPI   GL1 4149   3.661   7.113  10.448  0.0291 -0.0811  0.1111
  260loPI   GL2 4150   3.969   7.047  10.394 -0.0808 -0.1994 -0.1380
  260loPI   C1A 4151   3.505   7.209  10.042  0.2333  0.0702  0.1190
  260loPI   C2A 4152   3.505   7.096   9.578 -0.1457 -0.2858  0.1992
  260loPI   C3A 4153   3.456   7.142   9.129  0.1067  0.0534  0.0104
  260loPI   C4A 4154   3.483   7.175   8.787  0.1871 -0.0477  0.0591
  260loPI   C5A 4155   3.573   7.143   8.317 -0.1671 -0.2671  0.1998
  260loPI   C6A 4156   3.907   7.151   7.968  0.0451  0.1356  0.0719
  260loPI   C1B 4157   4.003   7.111   9.974  0.1461 -0.0278 -0.2338
  260loPI   C2B 4158   4.066   7.019   9.494 -0.0461  0.1533 -0.0883
  260loPI   C3B 4159   4.016   7.097   9.050 -0.1799  0.0302 -0.0489
  260loPI   C4B 4160   4.002   7.162   8.651 -0.0641 -0.0499 -0.1144
  261loPI    C1 4161  17.142   9.338  10.890  0.0138 -0.1735 -0.0047
  261loPI    C2 4162  17.438   9.507  11.099 -0.0016 -0.1374 -0.0120
  261loPI    C3 4163  17.437   9.112  11.039 -0.0011 -0.1490  0.0629
  261loPI   PO4 4164  17.108   9.484  10.657  0.2706  0.1309  0.4826
  261loPI   GL1 4165  16.909   9.510  10.252 -0.1639 -0.0138 -0.1236
  261loPI   GL2 4166  16.813   9.224  10.280  0.1014  0.0202 -0.0909
  261loPI   C1A 4167  17.124   9.641   9.835  0.3499  0.0538 -0.2858
  261loPI   C2A 4168  17.105   9.563   9.419 -0.6043  0.0751  0.0044
  261loPI   C3A 4169  16.963   9.583   9.011  0.1252  0.1447  0.2820
  261loPI   C4A 4170  17.039   9.665   8.557 -0.1829  0.0318  0.1580
  261loPI   C5A 4171  17.079   9.698   8.113  0.1537 -0.0807 -0.2636
  261loPI   C6A 4172  17.080   9.991   7.785  0.0151  0.1076  0.0641
  261loPI   C1B 4173  16.855   9.186   9.881  0.0541 -0.3794  0.2925
  261loPI   C2B 4174  16.769   9.113   9.477  0.2885 -0.2144 -0.2215
  261loPI   C3B 4175  16.712   9.163   9.087  0.0302 -0.1881 -0.0400
  261loPI   C4B 4176  16.796   9.216   8.719 -0.0464 -0.0871  0.0048
  262loPI    C1 4177  14.015   7.949  11.298 -0.0262  0.0779  0.1814
  262loPI    C2 4178  14.256   8.255  11.389 -0.0136  0.0528  0.2333
  262loPI    C3 4179  14.174   7.976  11.664  0.0238 -0.0235  0.1675
  262loPI   PO4 4180  14.082   7.867  11.026 -0.4382 -0.1024 -0.0302
  262loPI   GL1 4181  14.103   7.991  10.651  0.1634 -0.1955  0.1616
  262loPI   GL2 4182  14.227   8.150  10.461 -0.1813 -0.1435 -0.0874
  262loPI   C1A 4183  14.021   7.794  10.300 -0.2063 -0.1115  0.1331
  262loPI   C2A 4184  14.026   7.686   9.918  0.3891 -0.0649 -0.0637
  262loPI   C3A 4185  14.130   7.584   9.528 -0.2367 -0.0135  0.1606
  262loPI   C4A 4186  14.090   7.499   9.096  0.0211 -0.0348 -0.3819
  262loPI   C5A 4187  14.146   7.598   8.726 -0.3039  0.0556 -0.2154
  262loPI   C6A 4188  14.444   7.449   8.387 -0.1187 -0.0004  0.1089
  262loPI   C1B 4189  14.290   8.117  10.059  0.3158  0.0847 -0.1412
  262loPI   C2B 4190  14.399   8.020   9.604  0.1834 -0.1444  0.0421
  262loPI   C3B 4191  14.395   7.969   9.143 -0.0013  0.1408  0.2345
  262loPI   C4B 4192  14.444   8.017   8.656 -0.0570  0.1932  0.1617
  263loPI    C1 4193   7.304   3.862  11.295 -0.0439  0.0015 -0.0981
  263loPI    C2 4194   7.306   3.650  11.634  0.1138  0.1113 -0.0289
  263loPI    C3 4195   7.049   3.953  11.589  0.0431  0.0506 -0.0376
  263loPI   PO4 4196   7.219   3.781  10.902  0.1287  0.2234  0.0923
  263loPI   GL1 4197   7.346   3.887  10.499 -0.1115  0.0091  0.3722
  263loPI   GL2 4198   6.982   4.042  10.510  0.0667  0.0076  0.1277
  263loPI   C1A 4199   7.384   4.210  10.167  0.3458  0.0968 -0.1098
  263loPI   C2A 4200   7.303   4.062   9.742 -0.1870  0.2337 -0.1719
  263loPI   C3A 4201   7.279   4.039   9.357 -0.0403  0.0433 -0.1048
  263loPI   C4A 4202   7.267   3.939   8.947 -0.0236  0.1019  0.0204
  263loPI   C5A 4203   7.070   3.821   8.488 -0.2422  0.2585  0.0699
  263loPI   C6A 4204   7.053   3.755   8.031 -0.4573 -0.2648 -0.0282
  263loPI   C1B 4205   6.867   4.023  10.076  0.0498 -0.0653 -0.1957
  263loPI   C2B 4206   6.771   4.057   9.722  0.0109  0.3294  0.0040
  263loPI   C3B 4207   6.777   3.990   9.330 -0.1607  0.2296 -0.0635
  263loPI   C4B 4208   6.734   3.951   8.901 -0.1151 -0.3095 -0.0315
  264loPI    C1 4209  11.168  14.394  10.752  0.0568  0.1060  0.0734
  264loPI    C2 4210  11.106  14.563  11.109  0.0446  0.0472  0.0994
  264loPI    C3 4211  10.992  14.185  11.045 -0.0605  0.0958 -0.0039
  264loPI   PO4 4212  11.063  14.506  10.528  0.0594 -0.2447  0.0367
  264loPI   GL1 4213  11.015  14.141  10.216  0.0825 -0.0626  0.0285
  264loPI   GL2 4214  10.888  13.981  10.094  0.0302  0.1927 -0.2219
  264loPI   C1A 4215  11.369  14.170  10.034  0.0167 -0.3023  0.1341
  264loPI   C2A 4216  11.559  14.183   9.600  0.0722  0.0039 -0.1295
  264loPI   C3A 4217  11.624  14.159   9.186  0.1464  0.0502 -0.1082
  264loPI   C4A 4218  11.843  14.359   8.858  0.3810 -0.3913 -0.2886
  264loPI   C5A 4219  11.711  14.595   8.440 -0.1527  0.0979 -0.0517
  264loPI   C6A 4220  11.649  14.930   8.177 -0.1255 -0.2573 -0.1907
  264loPI   C1B 4221  10.754  13.717   9.661 -0.0620 -0.0879  0.0571
  264loPI   C2B 4222  10.720  13.644   9.278 -0.2207  0.3346  0.3797
  264loPI   C3B 4223  10.742  13.681   8.818 -0.1304  0.0751  0.2399
  264loPI   C4B 4224  10.587  13.903   8.412 -0.0605 -0.1237  0.2168
  265loPI    C1 4225   9.757   9.838  10.943 -0.0586  0.1188 -0.1623
  265loPI    C2 4226   9.461  10.106  10.967  0.0021  0.1668  0.0805
  265loPI    C3 4227   9.729  10.078  11.262 -0.0400 -0.2051  0.0881
  265loPI   PO4 4228   9.887   9.859  10.721 -0.0114  0.1253  0.0646
  265loPI   GL1 4229   9.916   9.601  10.399 -0.2924  0.1826 -0.1179
  265loPI   GL2 4230   9.975   9.360  10.250  0.3622  0.1629 -0.2282
  265loPI   C1A 4231   9.699   9.883  10.059 -0.0587  0.0260 -0.0061
  265loPI   C2A 4232   9.641   9.785   9.615  0.1092  0.2862 -0.2295
  265loPI   C3A 4233   9.615   9.755   9.182  0.2697  0.2237 -0.2508
  265loPI   C4A 4234   9.601   9.769   8.760  0.1762 -0.2009  0.1588
  265loPI   C5A 4235   9.589   9.814   8.368 -0.2131 -0.0071 -0.0538
  265loPI   C6A 4236   9.483   9.656   7.972 -0.0858  0.0812 -0.2339
  265loPI   C1B 4237   9.787   9.347   9.755 -0.4881  0.1236 -0.0508
  265loPI   C2B 4238   9.935   9.318   9.331 -0.1553  0.1335  0.0634
  265loPI   C3B 4239   9.822   9.292   8.955  0.1351 -0.0139 -0.1768
  265loPI   C4B 4240   9.745   9.267   8.459  0.1292 -0.0094 -0.2935
  266loPI    C1 4241   6.210  15.689  10.777 -0.0498 -0.0491 -0.0028
  266loPI    C2 4242   6.296  15.995  11.020 -0.2007  0.0728 -0.1009
  266loPI    C3 4243   6.009  15.735  11.120  0.0013 -0.1010  0.0342
  266loPI   PO4 4244   6.496  15.627  10.644  0.3908 -0.1696  0.1364
  266loPI   GL1 4245   6.747  15.474  10.241 -0.0465  0.1418  0.0870
  266loPI   GL2 4246   7.037  15.349   9.988 -0.0745  0.0013  0.0340
  266loPI   C1A 4247   6.470  15.423   9.994 -0.2070 -0.0332 -0.0640
  266loPI   C2A 4248   6.425  15.404   9.585  0.2401  0.4088 -0.1586
  266loPI   C3A 4249   6.357  15.505   9.121  0.1309 -0.1720  0.0329
  266loPI   C4A 4250   6.384  15.479   8.608  0.0676 -0.0009 -0.0135
  266loPI   C5A 4251   6.364  15.260   8.147 -0.0834 -0.0500  0.3082
  266loPI   C6A 4252   6.243  14.874   7.878  0.1389 -0.0775  0.2100
  266loPI   C1B 4253   6.952  15.337   9.630 -0.1536  0.2932  0.0733
  266loPI   C2B 4254   6.866  15.420   9.259  0.0788 -0.0015 -0.1638
  266loPI   C3B 4255   6.956  15.440   8.854  0.2976  0.0444 -0.0389
  266loPI   C4B 4256   6.831  15.365   8.410 -0.1134  0.1852  0.1503
  267loPI    C1 4257   5.257   6.123  10.785  0.1244 -0.0761 -0.2144
  267loPI    C2 4258   5.500   6.142  11.102 -0.0722  0.4059 -0.0824
  267loPI    C3 4259   5.123   6.018  11.146 -0.0526  0.3170 -0.1602
  267loPI   PO4 4260   5.312   6.049  10.628  0.1128 -0.0951  0.0740
  267loPI   GL1 4261   5.325   5.811  10.319  0.0638 -0.1312  0.1177
  267loPI   GL2 4262   4.992   5.775  10.311  0.0206 -0.2446  0.1292
  267loPI   C1A 4263   5.246   5.763   9.807  0.1084 -0.2974  0.0604
  267loPI   C2A 4264   5.287   5.787   9.363  0.1452  0.1274 -0.0152
  267loPI   C3A 4265   5.279   5.800   8.967  0.1726 -0.2757 -0.1324
  267loPI   C4A 4266   5.278   5.736   8.542 -0.0899 -0.2386 -0.0336
  267loPI   C5A 4267   5.761   5.897   8.285 -0.0361  0.0951 -0.3128
  267loPI   C6A 4268   6.122   6.073   7.995 -0.2003 -0.0026  0.0021
  267loPI   C1B 4269   4.745   5.673   9.962  0.1198  0.0093 -0.3333
  267loPI   C2B 4270   4.713   5.782   9.577  0.0921  0.1769 -0.0659
  267loPI   C3B 4271   4.766   5.732   9.162 -0.1355  0.1086 -0.0460
  267loPI   C4B 4272   4.734   5.772   8.647  0.0721  0.0735 -0.2235
  268loPI    C1 4273   6.232   1.991  10.882 -0.3257 -0.1652 -0.1561
  268loPI    C2 4274   6.174   1.613  10.765 -0.2499 -0.1940 -0.1019
  268loPI    C3 4275   6.379   1.690  11.100 -0.1680 -0.1012 -0.1727
  268loPI   PO4 4276   6.217   2.112  10.641  0.0689  0.0301 -0.1209
  268loPI   GL1 4277   6.414   1.951  10.352  0.0919  0.1902  0.3688
  268loPI   GL2 4278   6.426   1.622  10.250  0.1321  0.0493  0.2986
  268loPI   C1A 4279   6.205   2.202  10.001  0.1682 -0.0435 -0.0729
  268loPI   C2A 4280   6.206   2.330   9.542  0.3009 -0.0319  0.2233
  268loPI   C3A 4281   6.116   2.140   9.121 -0.2562  0.1216  0.1107
  268loPI   C4A 4282   6.127   2.178   8.656  0.0060 -0.0132  0.1574
  268loPI   C5A 4283   6.215   2.182   8.184  0.2204  0.0496  0.2243
  268loPI   C6A 4284   6.373   2.400   7.906 -0.1894  0.2338 -0.1533
  268loPI   C1B 4285   6.463   1.751   9.806  0.0171  0.3019  0.1229
  268loPI   C2B 4286   6.439   1.815   9.412  0.3275 -0.0767 -0.1766
  268loPI   C3B 4287   6.375   1.730   8.994 -0.0385  0.2093  0.1897
  268loPI   C4B 4288   6.248   1.586   8.615  0.1174 -0.0790  0.1043
  269loPI    C1 4289   6.741   8.352  11.269 -0.1337 -0.1168  0.0365
  269loPI    C2 4290   6.491   8.665  11.271  0.2527  0.1999 -0.0891
  269loPI    C3 4291   6.795   8.650  11.530  0.3522  0.0242 -0.2133
  269loPI   PO4 4292   6.873   8.241  10.995 -0.0535 -0.2524  0.0702
  269loPI   GL1 4293   6.890   8.153  10.535 -0.1447 -0.0985  0.1913
  269loPI   GL2 4294   7.090   8.390  10.512 -0.2522 -0.1529  0.0207
  269loPI   C1A 4295   6.966   8.289  10.047  0.1989 -0.0563 -0.0524
  269loPI   C2A 4296   6.991   8.290   9.659  0.2024 -0.0730  0.3969
  269loPI   C3A 4297   6.916   8.308   9.266  0.0321  0.2044 -0.0032
  269loPI   C4A 4298   6.860   8.255   8.791 -0.2140  0.1602  0.2002
  269loPI   C5A 4299   7.057   8.149   8.504  0.4455  0.0348  0.1115
  269loPI   C6A 4300   7.348   8.004   8.255  0.1659  0.2695  0.1869
  269loPI   C1B 4301   7.308   8.663  10.191  0.3131  0.0199  0.0507
  269loPI   C2B 4302   7.346   8.687   9.769 -0.0891  0.3297  0.0632
  269loPI   C3B 4303   7.170   8.704   9.370  0.1019  0.1448  0.2146
  269loPI   C4B 4304   7.260   8.679   8.924  0.1456 -0.0290 -0.1700
  270loPI    C1 4305   1.355  16.152  11.087  0.1248  0.0236  0.0641
  270loPI    C2 4306   1.001  15.966  11.077  0.0772  0.1028  0.2360
  270loPI    C3 4307   1.051  16.290  11.307  0.2351  0.1470  0.1410
  270loPI   PO4 4308   1.448  16.099  10.764 -0.3198  0.2075  0.2245
  270loPI   GL1 4309   1.437  16.403  10.434  0.1718  0.1701 -0.0055
  270loPI   GL2 4310   1.208  16.542  10.280  0.3160  0.1529  0.0943
  270loPI   C1A 4311   1.831  16.507  10.081  0.1489  0.3061  0.0336
  270loPI   C2A 4312   1.899  16.607   9.748 -0.2746 -0.0600  0.1115
  270loPI   C3A 4313   1.789  16.607   9.302 -0.2452 -0.1795  0.0662
  270loPI   C4A 4314   1.924  16.591   8.904  0.0734 -0.2862 -0.3311
  270loPI   C5A 4315   1.731  16.573   8.471  0.0379 -0.1394  0.2143
  270loPI   C6A 4316   1.947  16.503   8.153 -0.0302 -0.3443 -0.3064
  270loPI   C1B 4317   1.366  16.545   9.928  0.2963 -0.0089 -0.0312
  270loPI   C2B 4318   1.357  16.554   9.509 -0.1403  0.0781  0.1805
  270loPI   C3B 4319   1.319  16.649   9.039  0.2723 -0.0308  0.0775
  270loPI   C4B 4320   1.215  16.666   8.590 -0.1301 -0.1992 -0.0567
  271loPI    C1 4321   8.914  10.162  11.059  0.1429 -0.1098 -0.1418
  271loPI    C2 4322   8.515  10.189  11.059  0.1501  0.0033 -0.1090
  271loPI    C3 4323   8.723  10.308  11.379  0.2153  0.0260 -0.1598
  271loPI   PO4 4324   8.937   9.938  10.806 -0.2226 -0.0133 -0.2632
  271loPI   GL1 4325   8.914   9.944  10.336  0.3141 -0.0714 -0.0163
  271loPI   GL2 4326   8.535   9.889  10.231  0.1478 -0.0473 -0.1656
  271loPI   C1A 4327   9.097   9.887   9.954 -0.1697  0.1210  0.1830
  271loPI   C2A 4328   9.079   9.859   9.520 -0.0860 -0.0648 -0.0215
  271loPI   C3A 4329   9.165   9.850   9.069  0.2319 -0.3297  0.1398
  271loPI   C4A 4330   9.043   9.750   8.633 -0.1738 -0.3222 -0.3402
  271loPI   C5A 4331   8.718   9.494   8.372  0.2513 -0.0232 -0.0143
  271loPI   C6A 4332   8.228   9.417   8.247  0.0761  0.0765 -0.0038
  271loPI   C1B 4333   8.624   9.844   9.845  0.0003  0.0868  0.1301
  271loPI   C2B 4334   8.561   9.918   9.331 -0.0990  0.1290 -0.1715
  271loPI   C3B 4335   8.596   9.860   8.923 -0.1136  0.0441 -0.0676
  271loPI   C4B 4336   8.530   9.915   8.443  0.1745 -0.0183 -0.0505
  272loPI    C1 4337   1.288   1.973  11.189  0.0922 -0.0106  0.2148
  272loPI    C2 4338   1.410   1.601  11.273  0.0300 -0.0413  0.1702
  272loPI    C3 4339   1.034   1.711  11.353 -0.0106 -0.0506 -0.0051
  272loPI   PO4 4340   1.269   2.035  10.928  0.0686 -0.2216 -0.0785
  272loPI   GL1 4341   0.933   2.213  10.588 -0.3694  0.2034 -0.0791
  272loPI   GL2 4342   1.044   1.944  10.476  0.1147 -0.1396 -0.1656
  272loPI   C1A 4343   0.958   2.454  10.259  0.3483 -0.1223  0.1553
  272loPI   C2A 4344   0.943   2.373   9.800  0.2756 -0.4282 -0.0833
  272loPI   C3A 4345   0.973   2.446   9.343  0.0199 -0.1899 -0.1387
  272loPI   C4A 4346   0.739   2.543   8.995 -0.1788  0.0845 -0.0362
  272loPI   C5A 4347   0.524   2.358   8.635 -0.2397 -0.0113  0.0833
  272loPI   C6A 4348   0.450   2.025   8.395  0.0476  0.1844  0.3133
  272loPI   C1B 4349   1.252   1.990  10.004 -0.1079  0.0501 -0.1364
  272loPI   C2B 4350   1.127   1.988   9.549 -0.0119  0.2636 -0.3481
  272loPI   C3B 4351   1.227   1.932   9.088 -0.2298  0.0522  0.2457
  272loPI   C4B 4352   1.384   2.004   8.687  0.1758  0.0075 -0.0420
  273loPI    C1 4353   6.015  14.417  10.838  0.2059  0.1512 -0.0509
  273loPI    C2 4354   6.150  14.688  11.099  0.0761  0.1872 -0.0207
  273loPI    C3 4355   5.887  14.795  10.818 -0.1718  0.0389  0.1500
  273loPI   PO4 4356   6.202  14.333  10.692  0.0882 -0.3697 -0.0492
  273loPI   GL1 4357   6.302  14.518  10.283 -0.2704  0.0018 -0.2035
  273loPI   GL2 4358   5.983  14.539  10.300  0.1484 -0.1110  0.0807
  273loPI   C1A 4359   6.454  14.568   9.895  0.1624  0.0147 -0.2410
  273loPI   C2A 4360   6.331  14.529   9.536 -0.1975  0.1697 -0.1443
  273loPI   C3A 4361   6.288  14.512   9.057  0.1016 -0.2328 -0.1921
  273loPI   C4A 4362   6.292  14.588   8.685 -0.2020  0.0384  0.0543
  273loPI   C5A 4363   6.227  14.703   8.327  0.1162 -0.2176  0.2032
  273loPI   C6A 4364   6.222  14.405   8.004  0.1710 -0.0455 -0.2375
  273loPI   C1B 4365   5.973  14.576   9.891  0.0496 -0.0289  0.0411
  273loPI   C2B 4366   5.810  14.559   9.514 -0.0306  0.0233  0.2444
  273loPI   C3B 4367   5.792  14.616   9.061  0.2587  0.1275  0.3001
  273loPI   C4B 4368   5.815  14.570   8.607  0.1788 -0.1096  0.0597
  274loPI    C1 4369  15.060  11.551  11.177 -0.0108 -0.0637  0.0604
  274loPI    C2 4370  14.893  11.807  11.436  0.1163  0.0005  0.0801
  274loPI    C3 4371  14.875  11.413  11.503  0.1178  0.0155  0.1683
  274loPI   PO4 4372  15.016  11.778  10.866 -0.0948 -0.3992  0.0298
  274loPI   GL1 4373  14.825  11.597  10.442  0.1717  0.0593 -0.0336
  274loPI   GL2 4374  14.811  11.225  10.315  0.0670 -0.1094  0.2263
  274loPI   C1A 4375  14.637  11.588  10.049 -0.0161  0.1245 -0.1476
  274loPI   C2A 4376  14.609  11.547   9.566  0.0705  0.0096  0.4435
  274loPI   C3A 4377  14.596  11.571   9.161 -0.0480  0.0743 -0.0140
  274loPI   C4A 4378  14.684  11.589   8.698  0.1247 -0.0755 -0.2104
  274loPI   C5A 4379  14.762  11.648   8.253  0.2216  0.6138 -0.3192
  274loPI   C6A 4380  14.871  11.393   7.912 -0.1904 -0.0573  0.0648
  274loPI   C1B 4381  14.884  11.002  10.007  0.0162 -0.0014  0.1984
  274loPI   C2B 4382  14.828  11.092   9.628  0.1811 -0.1039 -0.1872
  274loPI   C3B 4383  14.805  11.071   9.183  0.0173 -0.0822 -0.0370
  274loPI   C4B 4384  14.815  11.087   8.783  0.1321 -0.0189  0.0046
  275loPI    C1 4385   9.949   4.951  11.167 -0.0470 -0.0487 -0.1406
  275loPI    C2 4386  10.122   5.236  11.389 -0.0671  0.0652 -0.2703
  275loPI    C3 4387  10.269   4.864  11.391 -0.0460  0.0740 -0.0934
  275loPI   PO4 4388   9.880   5.099  10.916 -0.0682  0.3729 -0.2540
  275loPI   GL1 4389  10.189   5.264  10.490  0.0848 -0.0833  0.2039
  275loPI   GL2 4390  10.104   5.533  10.438  0.0503  0.0443 -0.0350
  275loPI   C1A 4391  10.419   5.239  10.101 -0.1613 -0.2164 -0.0621
  275loPI   C2A 4392  10.371   5.254   9.704 -0.1224 -0.0996 -0.1167
  275loPI   C3A 4393  10.312   5.192   9.332 -0.0659 -0.1461 -0.1748
  275loPI   C4A 4394  10.190   5.217   8.923 -0.1081 -0.2372 -0.0709
  275loPI   C5A 4395  10.074   5.301   8.505 -0.0761 -0.0797 -0.2588
  275loPI   C6A 4396   9.925   5.183   8.134  0.0674  0.1264  0.2246
  275loPI   C1B 4397  10.051   5.596  10.020 -0.1469 -0.3157  0.1533
  275loPI   C2B 4398  10.141   5.687   9.614  0.1388  0.1811  0.0021
  275loPI   C3B 4399  10.106   5.661   9.251 -0.2241  0.2824  0.1355
  275loPI   C4B 4400   9.967   5.686   8.810 -0.2423  0.0954  0.0409
  276loPI    C1 4401  14.340   3.880  11.761  0.0612 -0.0860  0.2434
  276loPI    C2 4402  14.074   4.173  11.823 -0.1709 -0.1947 -0.1993
  276loPI    C3 4403  14.074   3.851  12.059 -0.3616 -0.1438 -0.1279
  276loPI   PO4 4404  14.338   3.872  11.491  0.2107  0.1135 -0.2061
  276loPI   GL1 4405  14.522   3.665  11.022  0.0464  0.2497 -0.0152
  276loPI   GL2 4406  14.281   3.940  10.767  0.1034 -0.0431 -0.1009
  276loPI   C1A 4407  14.559   3.609  10.536 -0.0153  0.0260 -0.0754
  276loPI   C2A 4408  14.678   3.557  10.098 -0.1831  0.0581  0.1572
  276loPI   C3A 4409  14.645   3.541   9.615  0.3026  0.2310  0.1669
  276loPI   C4A 4410  14.607   3.606   9.203  0.0654 -0.1483  0.0153
  276loPI   C5A 4411  14.583   3.616   8.684 -0.1050 -0.1714  0.1152
  276loPI   C6A 4412  14.440   3.566   8.317 -0.1407 -0.0150  0.1201
  276loPI   C1B 4413  14.318   4.029  10.367  0.0700 -0.1771  0.0528
  276loPI   C2B 4414  14.440   3.951   9.914 -0.1847  0.1561  0.2132
  276loPI   C3B 4415  14.375   3.973   9.459 -0.1438 -0.0267 -0.3716
  276loPI   C4B 4416  14.339   3.942   8.979  0.1227 -0.1863  0.1362
  277loPI    C1 4417   0.931   3.569  11.247 -0.0349  0.1536  0.0242
  277loPI    C2 4418   0.595   3.528  11.461  0.0605 -0.0099  0.1448
  277loPI    C3 4419   0.929   3.660  11.637  0.0980  0.0099  0.0593
  277loPI   PO4 4420   0.880   3.516  11.056  0.2197  0.1844 -0.1737
  277loPI   GL1 4421   1.035   3.398  10.691  0.5905  0.0746 -0.1246
  277loPI   GL2 4422   1.210   3.637  10.539 -0.0193 -0.4070 -0.2075
  277loPI   C1A 4423   1.081   3.320  10.227  0.0074  0.1930  0.1501
  277loPI   C2A 4424   1.008   3.269   9.802  0.2884 -0.1075 -0.1266
  277loPI   C3A 4425   0.995   3.253   9.405  0.0406  0.1413 -0.0065
  277loPI   C4A 4426   0.870   3.361   9.003 -0.1964 -0.0532 -0.1698
  277loPI   C5A 4427   0.884   3.067   8.624 -0.0965 -0.0684 -0.0995
  277loPI   C6A 4428   0.720   2.725   8.364  0.0716  0.2942  0.0591
  277loPI   C1B 4429   1.319   3.796  10.222 -0.2018  0.0542  0.1855
  277loPI   C2B 4430   1.298   3.742   9.781 -0.2267 -0.0655  0.1467
  277loPI   C3B 4431   1.212   3.716   9.355  0.0354  0.1328  0.1848
  277loPI   C4B 4432   1.202   3.722   8.891 -0.0417  0.0319  0.2523
  278loPI    C1 4433  10.494  10.373  11.018 -0.1252 -0.2956  0.0914
  278loPI    C2 4434  10.794  10.167  11.185  0.0642  0.0660  0.2068
  278loPI    C3 4435  10.448  10.210  11.381  0.0174 -0.1530  0.1748
  278loPI   PO4 4436  10.655  10.530  10.823  0.0962 -0.0421  0.0863
  278loPI   GL1 4437  10.829  10.681  10.397  0.1508 -0.0506 -0.2244
  278loPI   GL2 4438  11.140  10.696  10.471  0.0631  0.0603  0.1657
  278loPI   C1A 4439  10.735  10.714  10.012 -0.2105 -0.3450 -0.1782
  278loPI   C2A 4440  10.758  10.560   9.602 -0.3222 -0.1583 -0.2680
  278loPI   C3A 4441  10.680  10.694   9.111 -0.0509 -0.1001 -0.1521
  278loPI   C4A 4442  10.687  10.671   8.762  0.0078  0.0688 -0.1192
  278loPI   C5A 4443  10.614  10.563   8.361 -0.5353  0.2346  0.1810
  278loPI   C6A 4444  10.581  10.371   7.913  0.0043 -0.1483 -0.0557
  278loPI   C1B 4445  11.242  10.594  10.073  0.1994  0.0515 -0.0587
  278loPI   C2B 4446  11.252  10.610   9.629  0.2628 -0.1258  0.1938
  278loPI   C3B 4447  11.186  10.621   9.197  0.0505 -0.0222  0.2202
  278loPI   C4B 4448  11.186  10.589   8.786  0.1055 -0.1795  0.1450
  279loPI    C1 4449  11.935  16.392  10.785 -0.1176  0.1051 -0.1371
  279loPI    C2 4450  11.739  16.092  10.963  0.1925  0.0666  0.1504
  279loPI    C3 4451  11.851  16.412  11.176  0.3067  0.1576 -0.0432
  279loPI   PO4 4452  11.814  16.500  10.552  0.1463  0.1702 -0.1179
  279loPI   GL1 4453  11.655  16.500  10.115  0.0131 -0.0622  0.0837
  279loPI   GL2 4454  11.584  16.715  10.008  0.1290  0.0048  0.1194
  279loPI   C1A 4455  11.728  16.212   9.680  0.0698 -0.1516 -0.3251
  279loPI   C2A 4456  11.716  16.207   9.276 -0.1285  0.1102  0.2236
  279loPI   C3A 4457  11.832  16.145   8.739  0.3055 -0.2390 -0.2045
  279loPI   C4A 4458  11.737  16.303   8.405 -0.0816  0.2914 -0.1810
  279loPI   C5A 4459  11.583  16.277   7.936 -0.0625  0.0356  0.0757
  279loPI   C6A 4460  11.445  16.216   7.427 -0.0558 -0.2101  0.0090
  279loPI   C1B 4461  11.548  16.680   9.578 -0.1939 -0.1831  0.3084
  279loPI   C2B 4462  11.544  16.679   9.142 -0.0116 -0.2796 -0.0016
  279loPI   C3B 4463  11.458  16.603   8.693 -0.1886 -0.0216 -0.1470
  279loPI   C4B 4464  11.244  16.512   8.242 -0.1441  0.1306  0.1774
  280loPI    C1 4465  14.802   3.898  11.426 -0.1006 -0.2423  0.1979
  280loPI    C2 4466  14.957   3.991  11.783 -0.1884 -0.0004  0.1747
  280loPI    C3 4467  14.704   4.243  11.603 -0.0811 -0.0825 -0.0962
  280loPI   PO4 4468  14.990   3.815  11.157  0.1874  0.1840  0.1882
  280loPI   GL1 4469  14.998   3.593  10.783  0.0389 -0.1077 -0.1552
  280loPI   GL2 4470  15.323   3.500  10.665  0.0066  0.3222 -0.1172
  280loPI   C1A 4471  14.869   3.216  10.550 -0.1093 -0.1020 -0.1039
  280loPI   C2A 4472  14.863   3.057  10.276  0.2484  0.1099  0.0500
  280loPI   C3A 4473  14.837   3.116   9.812  0.0163  0.0770 -0.0214
  280loPI   C4A 4474  14.812   3.081   9.425  0.0294  0.1961  0.1273
  280loPI   C5A 4475  14.879   3.089   8.919 -0.1740 -0.2145 -0.2316
  280loPI   C6A 4476  14.661   3.141   8.581 -0.0727  0.1991 -0.0767
  280loPI   C1B 4477  15.222   3.497  10.278  0.1684 -0.3612 -0.2526
  280loPI   C2B 4478  15.146   3.479   9.837  0.0637 -0.1507  0.0386
  280loPI   C3B 4479  15.107   3.483   9.370 -0.2315  0.2047 -0.2591
  280loPI   C4B 4480  15.057   3.562   8.953  0.0687 -0.0486 -0.1031
  281loPI    C1 4481   0.933  15.244  10.878 -0.0757 -0.1379  0.2363
  281loPI    C2 4482   1.040  14.859  10.892 -0.2234 -0.1810  0.1914
  281loPI    C3 4483   0.682  14.972  11.031 -0.2029 -0.0684  0.1531
  281loPI   PO4 4484   1.038  15.306  10.595  0.4657  0.1943  0.0945
  281loPI   GL1 4485   0.852  15.544  10.294 -0.0083 -0.1034  0.1870
  281loPI   GL2 4486   0.964  15.308  10.089 -0.0023 -0.3333 -0.0897
  281loPI   C1A 4487   0.777  15.748   9.861  0.0189  0.1667 -0.0271
  281loPI   C2A 4488   0.816  15.821   9.421  0.1498  0.1387 -0.1224
  281loPI   C3A 4489   0.779  15.847   9.000 -0.1231  0.2383  0.1601
  281loPI   C4A 4490   0.714  15.971   8.524  0.2072 -0.0472 -0.2250
  281loPI   C5A 4491   0.589  16.060   8.190 -0.1242 -0.0254  0.1480
  281loPI   C6A 4492   0.423  16.371   7.971  0.3124 -0.1556  0.0919
  281loPI   C1B 4493   0.990  15.271   9.617 -0.0075  0.2893  0.0535
  281loPI   C2B 4494   0.990  15.380   9.119 -0.3019 -0.0440 -0.0418
  281loPI   C3B 4495   0.956  15.458   8.712 -0.0874  0.0241  0.0877
  281loPI   C4B 4496   0.939  15.534   8.315 -0.0837 -0.2267  0.1459
  282loPI    C1 4497   5.284  11.514  10.672  0.2337  0.0482  0.0190
  282loPI    C2 4498   5.164  11.810  10.913  0.0467 -0.0016 -0.0116
  282loPI    C3 4499   5.243  11.448  11.064  0.1409  0.0260  0.0057
  282loPI   PO4 4500   5.087  11.492  10.435  0.0242  0.1341  0.3840
  282loPI   GL1 4501   5.217  11.259  10.082  0.0731 -0.0542 -0.2888
  282loPI   GL2 4502   5.120  11.050  10.102  0.1907 -0.1574  0.1594
  282loPI   C1A 4503   5.286  11.551   9.742  0.2595  0.1304 -0.0734
  282loPI   C2A 4504   5.343  11.468   9.286 -0.0574 -0.4090  0.0703
  282loPI   C3A 4505   5.403  11.518   8.879 -0.0421 -0.0793  0.1815
  282loPI   C4A 4506   5.289  11.489   8.396  0.1949 -0.2845  0.4885
  282loPI   C5A 4507   5.225  11.632   7.967  0.0147 -0.0665 -0.1433
  282loPI   C6A 4508   5.557  11.841   7.819  0.1336 -0.0225 -0.1172
  282loPI   C1B 4509   5.140  11.071   9.582 -0.0796 -0.1010 -0.3589
  282loPI   C2B 4510   5.044  11.094   9.119  0.0207  0.0648  0.0065
  282loPI   C3B 4511   5.080  11.143   8.719 -0.2735 -0.0552  0.3219
  282loPI   C4B 4512   4.963  11.022   8.239  0.2297 -0.1108 -0.1912
  283loPI    C1 4513   9.556   0.346  10.492 -0.0965  0.1671  0.0328
  283loPI    C2 4514   9.283   0.634  10.445 -0.1659  0.0946 -0.0113
  283loPI    C3 4515   9.197   0.258  10.339 -0.1873 -0.0009  0.3336
  283loPI   PO4 4516   9.803   0.459  10.449  0.0715 -0.3355  0.2655
  283loPI   GL1 4517   9.846   0.737  10.182  0.1258  0.4258 -0.0681
  283loPI   GL2 4518   9.540   0.867  10.122 -0.1185 -0.0075  0.0289
  283loPI   C1A 4519  10.122   0.621   9.872  0.0995 -0.1581 -0.2432
  283loPI   C2A 4520  10.112   0.575   9.539 -0.0187 -0.2196 -0.2193
  283loPI   C3A 4521  10.076   0.752   9.181 -0.0396  0.2327  0.1118
  283loPI   C4A 4522  10.100   0.792   8.691 -0.0004 -0.1044 -0.4103
  283loPI   C5A 4523  10.009   0.857   8.275 -0.0936 -0.2179  0.1947
  283loPI   C6A 4524  10.393   0.965   8.021 -0.0503 -0.0728 -0.1019
  283loPI   C1B 4525   9.695   0.881   9.739  0.2112  0.0492 -0.2475
  283loPI   C2B 4526   9.599   0.778   9.387 -0.1342  0.2715 -0.1079
  283loPI   C3B 4527   9.514   0.688   8.874 -0.3634  0.1365 -0.0860
  283loPI   C4B 4528   9.512   0.796   8.385  0.0305  0.3786  0.2858
  284loPI    C1 4529   6.069   6.198  10.911  0.1883  0.1843  0.1611
  284loPI    C2 4530   5.965   6.016  11.252  0.0563  0.0518  0.0510
  284loPI    C3 4531   6.345   6.003  11.126  0.0990  0.0742  0.1766
  284loPI   PO4 4532   5.836   6.292  10.777 -0.1518 -0.1351 -0.0031
  284loPI   GL1 4533   5.678   6.192  10.351 -0.0003 -0.1890 -0.0818
  284loPI   GL2 4534   5.901   6.036  10.352 -0.1093 -0.5104 -0.1300
  284loPI   C1A 4535   5.504   6.209   9.957  0.0054  0.1127 -0.0974
  284loPI   C2A 4536   5.515   6.200   9.581 -0.0860 -0.2192 -0.0462
  284loPI   C3A 4537   5.518   6.207   9.134 -0.0406 -0.2570  0.0942
  284loPI   C4A 4538   5.542   6.192   8.624 -0.1079  0.1469 -0.2053
  284loPI   C5A 4539   5.369   6.176   8.186  0.0899 -0.0905 -0.1708
  284loPI   C6A 4540   5.071   6.532   7.935 -0.0995 -0.3279  0.0126
  284loPI   C1B 4541   6.008   6.180   9.916 -0.0685 -0.0976  0.3602
  284loPI   C2B 4542   6.087   6.171   9.420  0.0359 -0.3295 -0.2809
  284loPI   C3B 4543   6.022   6.145   9.071  0.0307 -0.2095  0.0665
  284loPI   C4B 4544   6.023   6.217   8.645  0.1604  0.1670  0.0524
  285loPI    C1 4545  16.653  15.507  10.784 -0.1960  0.1369 -0.1846
  285loPI    C2 4546  16.567  15.156  10.954 -0.0611  0.1427 -0.1026
  285loPI    C3 4547  16.785  15.426  11.153  0.0172  0.1877 -0.2482
  285loPI   PO4 4548  16.739  15.508  10.571 -0.0317 -0.1598 -0.1050
  285loPI   GL1 4549  16.885  15.465  10.207  0.2127  0.1461 -0.0771
  285loPI   GL2 4550  16.633  15.411  10.065 -0.1757 -0.0031  0.0840
  285loPI   C1A 4551  17.242  15.462   9.845  0.0593  0.1918 -0.0629
  285loPI   C2A 4552  17.317  15.381   9.379  0.0243 -0.1283  0.1288
  285loPI   C3A 4553  17.256  15.501   8.937 -0.1371 -0.1261  0.4511
  285loPI   C4A 4554  17.242  15.572   8.428  0.0077 -0.0354 -0.0262
  285loPI   C5A 4555  16.992  15.459   8.046 -0.1068 -0.1833 -0.0781
  285loPI   C6A 4556  16.997  15.651   7.708 -0.0433  0.0178 -0.0016
  285loPI   C1B 4557  16.764  15.420   9.656 -0.1501 -0.0243 -0.0925
  285loPI   C2B 4558  16.700  15.554   9.204  0.1106  0.0860 -0.0957
  285loPI   C3B 4559  16.732  15.501   8.709 -0.0213 -0.2561 -0.0258
  285loPI   C4B 4560  16.593  15.457   8.282  0.2311  0.0312  0.2797
  286loPI    C1 4561   1.721   5.224  11.424  0.1088 -0.2031 -0.1404
  286loPI    C2 4562   1.767   4.982  11.739 -0.0832 -0.0889 -0.0232
  286loPI    C3 4563   1.807   5.377  11.783 -0.4973 -0.0386 -0.0549
  286loPI   PO4 4564   1.913   5.075  11.149  0.0655  0.1618 -0.0769
  286loPI   GL1 4565   2.021   5.009  10.735 -0.3115  0.1427 -0.0295
  286loPI   GL2 4566   1.790   5.026  10.628  0.1100 -0.0647 -0.2048
  286loPI   C1A 4567   2.182   5.079  10.307  0.0024  0.0902  0.0156
  286loPI   C2A 4568   2.134   4.999   9.918  0.3097 -0.3166  0.0051
  286loPI   C3A 4569   2.088   4.991   9.468  0.0276  0.0290  0.0515
  286loPI   C4A 4570   2.074   4.944   9.095 -0.0166 -0.0283  0.3571
  286loPI   C5A 4571   2.139   5.053   8.728 -0.1457  0.0481  0.0881
  286loPI   C6A 4572   1.891   4.975   8.310 -0.3260 -0.0381  0.0316
  286loPI   C1B 4573   1.717   5.032  10.171  0.1977  0.2917  0.1015
  286loPI   C2B 4574   1.573   5.013   9.820 -0.0457 -0.0215  0.0364
  286loPI   C3B 4575   1.495   5.026   9.418 -0.0458 -0.0095  0.3309
  286loPI   C4B 4576   1.582   5.014   8.944  0.1415 -0.1398  0.1084
  287loPI    C1 4577   2.837   0.642  11.195  0.2562  0.2405  0.0683
  287loPI    C2 4578   2.771   0.692  11.586 -0.0359  0.0378  0.0480
  287loPI    C3 4579   2.466   0.607  11.341  0.0743  0.5780 -0.2933
  287loPI   PO4 4580   2.946   0.905  11.108 -0.1316 -0.0234  0.0808
  287loPI   GL1 4581   2.992   1.030  10.697 -0.0312  0.1481  0.1388
  287loPI   GL2 4582   3.284   0.934  10.726 -0.4222 -0.0287 -0.2908
  287loPI   C1A 4583   2.976   1.392  10.315 -0.1227 -0.2666 -0.0410
  287loPI   C2A 4584   2.973   1.455   9.880 -0.0359 -0.1106  0.1617
  287loPI   C3A 4585   2.970   1.468   9.425  0.0919 -0.0750  0.4171
  287loPI   C4A 4586   2.933   1.526   8.955  0.1141  0.0763  0.3255
  287loPI   C5A 4587   3.106   1.357   8.475  0.0160  0.0264  0.1298
  287loPI   C6A 4588   3.126   0.849   8.374 -0.4821 -0.0395  0.0827
  287loPI   C1B 4589   3.294   0.928  10.190 -0.1602  0.1756  0.0883
  287loPI   C2B 4590   3.207   0.960   9.773 -0.1165 -0.2572  0.1393
  287loPI   C3B 4591   3.230   0.962   9.366 -0.0702  0.0772  0.2573
  287loPI   C4B 4592   3.263   1.130   8.912 -0.1272  0.0105  0.3458
  288loPI    C1 4593  12.160   1.929  11.136  0.0457  0.1029  0.2279
  288loPI    C2 4594  12.171   2.037  11.520  0.2819 -0.1159  0.2854
  288loPI    C3 4595  12.418   1.752  11.386  0.2829  0.0413 -0.0545
  288loPI   PO4 4596  12.101   2.131  10.956  0.0089 -0.1713 -0.0547
  288loPI   GL1 4597  12.200   2.293  10.546 -0.0048 -0.2412  0.1477
  288loPI   GL2 4598  12.033   2.511  10.582  0.2622 -0.1502 -0.0642
  288loPI   C1A 4599  12.291   2.375  10.058 -0.0871  0.1937 -0.0153
  288loPI   C2A 4600  12.245   2.494   9.633 -0.1215 -0.0111  0.1330
  288loPI   C3A 4601  12.339   2.383   9.195 -0.1368  0.0388 -0.2269
  288loPI   C4A 4602  12.256   2.250   8.802 -0.2599 -0.0812 -0.1177
  288loPI   C5A 4603  12.033   2.555   8.491 -0.4030 -0.0491 -0.0889
  288loPI   C6A 4604  11.859   2.760   8.299  0.2820  0.2698 -0.1206
  288loPI   C1B 4605  11.957   2.753  10.245 -0.4070  0.0236 -0.3036
  288loPI   C2B 4606  11.906   2.843   9.903 -0.0548 -0.1943 -0.2310
  288loPI   C3B 4607  11.961   2.884   9.491 -0.1654 -0.3532  0.2465
  288loPI   C4B 4608  12.043   2.790   9.081 -0.1462 -0.0617 -0.1782
  289loPI    C1 4609   7.171  15.380  10.543 -0.1179 -0.3418 -0.0315
  289loPI    C2 4610   7.147  15.223  10.910 -0.0252  0.0722  0.1571
  289loPI    C3 4611   6.930  15.546  10.816  0.1798  0.1505 -0.0564
  289loPI   PO4 4612   7.195  15.108  10.423  0.2599 -0.0905 -0.1650
  289loPI   GL1 4613   7.452  14.822  10.296 -0.1883  0.3579 -0.0451
  289loPI   GL2 4614   7.613  14.557  10.216 -0.2395  0.0368  0.0265
  289loPI   C1A 4615   7.292  14.881   9.832 -0.0470  0.0013  0.1595
  289loPI   C2A 4616   7.151  14.884   9.426 -0.0602 -0.0672  0.0076
  289loPI   C3A 4617   7.074  15.033   9.073 -0.0472  0.1878 -0.3681
  289loPI   C4A 4618   7.047  14.924   8.704  0.1476  0.2268 -0.0002
  289loPI   C5A 4619   7.237  14.910   8.302 -0.0629 -0.5617  0.1199
  289loPI   C6A 4620   7.561  15.126   8.095 -0.1000 -0.0219 -0.2306
  289loPI   C1B 4621   7.431  14.390   9.839 -0.0811 -0.0829  0.0306
  289loPI   C2B 4622   7.300  14.427   9.427 -0.1319  0.0298 -0.0994
  289loPI   C3B 4623   7.280  14.493   8.952  0.2747  0.0940  0.2923
  289loPI   C4B 4624   7.431  14.544   8.620 -0.2544 -0.0039 -0.1740
  290loPI    C1 4625   3.106  10.271  10.686 -0.0703  0.0433 -0.0734
  290loPI    C2 4626   3.450  10.437  10.566 -0.0793  0.0917 -0.0323
  290loPI    C3 4627   3.196  10.644  10.796  0.0079 -0.0528  0.1977
  290loPI   PO4 4628   3.048  10.194  10.478 -0.0119 -0.2494  0.1560
  290loPI   GL1 4629   2.919  10.162   9.890  0.0526 -0.3700  0.0778
  290loPI   GL2 4630   2.686  10.036   9.792 -0.1782  0.3148 -0.0608
  290loPI   C1A 4631   3.103   9.967   9.483  0.2209 -0.0461 -0.2804
  290loPI   C2A 4632   3.069   9.796   9.029 -0.0837 -0.2081 -0.1517
  290loPI   C3A 4633   3.155   9.827   8.628 -0.0087  0.2805 -0.2234
  290loPI   C4A 4634   2.932  10.001   8.268  0.4695 -0.2023 -0.2543
  290loPI   C5A 4635   2.848  10.388   8.118 -0.1459  0.1971 -0.0233
  290loPI   C6A 4636   2.597  10.783   8.074 -0.2578 -0.1139 -0.2994
  290loPI   C1B 4637   2.601   9.916   9.380  0.1662  0.0909  0.1171
  290loPI   C2B 4638   2.569   9.835   8.947  0.0388 -0.1697  0.0964
  290loPI   C3B 4639   2.619   9.670   8.575 -0.1409 -0.3639 -0.0241
  290loPI   C4B 4640   2.596   9.634   8.202  0.0184 -0.1969 -0.0287
  291loPI    C1 4641   8.641   3.915  11.140  0.3327 -0.1244 -0.1421
  291loPI    C2 4642   8.492   4.010  11.499  0.1279 -0.1340 -0.2234
  291loPI    C3 4643   8.872   3.890  11.466  0.1525 -0.1178 -0.0123
  291loPI   PO4 4644   8.570   4.140  11.031  0.0959  0.0700 -0.0032
  291loPI   GL1 4645   8.764   4.273  10.565  0.2115  0.2441 -0.0674
  291loPI   GL2 4646   8.719   3.884  10.637  0.0767  0.3865 -0.1674
  291loPI   C1A 4647   8.731   4.490  10.216  0.1477  0.0778 -0.2822
  291loPI   C2A 4648   8.728   4.449   9.817 -0.2305 -0.1457 -0.2256
  291loPI   C3A 4649   8.584   4.426   9.393 -0.1715  0.0304  0.0554
  291loPI   C4A 4650   8.639   4.422   8.865  0.1187 -0.1248 -0.1399
  291loPI   C5A 4651   8.592   4.442   8.429  0.0532 -0.0209 -0.0119
  291loPI   C6A 4652   8.621   4.232   8.053 -0.1338  0.0610  0.0881
  291loPI   C1B 4653   8.906   3.918  10.207 -0.1624 -0.0253  0.3799
  291loPI   C2B 4654   8.990   3.980   9.775 -0.2387  0.2260 -0.0560
  291loPI   C3B 4655   8.864   4.019   9.369  0.1540  0.3162  0.1346
  291loPI   C4B 4656   8.915   3.915   8.891 -0.0147 -0.0129 -0.2000
  292loPI    C1 4657  10.453  13.709  10.814  0.0690  0.0316  0.0837
  292loPI    C2 4658  10.454  13.968  11.119  0.0908  0.1928 -0.0517
  292loPI    C3 4659  10.740  13.690  11.091 -0.0564  0.0103  0.2133
  292loPI   PO4 4660  10.450  13.806  10.596 -0.2121  0.1123 -0.0450
  292loPI   GL1 4661  10.514  13.558  10.171 -0.2116  0.1626  0.0797
  292loPI   GL2 4662  10.554  13.177  10.234 -0.0747 -0.1524 -0.0271
  292loPI   C1A 4663  10.431  13.359   9.758  0.0807  0.0363  0.0072
  292loPI   C2A 4664  10.458  13.226   9.305  0.1188  0.1802 -0.2457
  292loPI   C3A 4665  10.490  13.292   8.978 -0.0466 -0.2386 -0.1480
  292loPI   C4A 4666  10.330  13.413   8.580  0.2072  0.1133  0.2533
  292loPI   C5A 4667  10.117  13.662   8.348  0.1067 -0.1870  0.0724
  292loPI   C6A 4668   9.813  13.989   8.008 -0.2526 -0.1863  0.1834
  292loPI   C1B 4669  10.638  12.908   9.948 -0.1433  0.0680  0.2548
  292loPI   C2B 4670  10.639  12.853   9.556  0.2326  0.1626  0.2593
  292loPI   C3B 4671  10.601  12.819   9.154 -0.0058 -0.0054  0.2653
  292loPI   C4B 4672  10.638  12.806   8.704  0.1544 -0.3166  0.2862
  293loPI    C1 4673   8.095  13.503  11.129  0.0853  0.0091  0.2214
  293loPI    C2 4674   8.264  13.866  11.139  0.0834  0.0128  0.1307
  293loPI    C3 4675   8.102  13.711  11.470  0.1160  0.0796  0.1780
  293loPI   PO4 4676   8.255  13.390  10.863  0.0037 -0.3226  0.1305
  293loPI   GL1 4677   8.254  13.227  10.358 -0.0745 -0.0393  0.1318
  293loPI   GL2 4678   8.317  13.468  10.271  0.1768  0.1797 -0.0081
  293loPI   C1A 4679   8.122  13.094   9.903  0.0109 -0.0480  0.2305
  293loPI   C2A 4680   8.030  13.017   9.519 -0.3795 -0.4099  0.0191
  293loPI   C3A 4681   8.086  13.038   9.123  0.2809 -0.1080 -0.0143
  293loPI   C4A 4682   7.998  13.099   8.779  0.1330 -0.0067 -0.3545
  293loPI   C5A 4683   7.929  13.150   8.344 -0.1454  0.0601  0.0768
  293loPI   C6A 4684   8.036  13.362   8.065  0.1612 -0.1209 -0.1164
  293loPI   C1B 4685   8.409  13.555   9.872  0.1357 -0.0824  0.1322
  293loPI   C2B 4686   8.375  13.460   9.434  0.2685  0.1055 -0.1590
  293loPI   C3B 4687   8.306  13.522   9.051 -0.3893  0.1982 -0.0490
  293loPI   C4B 4688   8.271  13.520   8.618  0.0255 -0.0497 -0.2594
  294loPI    C1 4689   9.081   8.486  11.175  0.1838  0.0080  0.0245
  294loPI    C2 4690   9.302   8.815  11.230 -0.2250  0.3321 -0.2119
  294loPI    C3 4691   9.008   8.725  11.486 -0.0938  0.1287 -0.1297
  294loPI   PO4 4692   8.987   8.492  10.949 -0.2092  0.0422  0.1205
  294loPI   GL1 4693   8.886   8.717  10.536  0.0781 -0.1407 -0.0234
  294loPI   GL2 4694   8.729   8.516  10.391  0.3962 -0.1857  0.0773
  294loPI   C1A 4695   9.256   8.524  10.231 -0.0134  0.0679 -0.1919
  294loPI   C2A 4696   9.253   8.417   9.782  0.0772 -0.2677 -0.0512
  294loPI   C3A 4697   9.245   8.577   9.395  0.0246 -0.0540 -0.1023
  294loPI   C4A 4698   9.188   8.511   8.987  0.2233  0.0324  0.2207
  294loPI   C5A 4699   9.242   8.455   8.545  0.0223 -0.2257  0.1066
  294loPI   C6A 4700   9.474   8.074   8.249  0.0378 -0.1347  0.0711
  294loPI   C1B 4701   8.826   8.434  10.007 -0.0168 -0.0458 -0.2150
  294loPI   C2B 4702   8.787   8.604   9.665 -0.2732  0.1238 -0.0394
  294loPI   C3B 4703   8.695   8.557   9.154 -0.0007  0.0964  0.2063
  294loPI   C4B 4704   8.711   8.513   8.676 -0.1276  0.2217  0.1906
  295loPI    C1 4705   0.750  10.914  10.670  0.0330  0.1175  0.0826
  295loPI    C2 4706   1.091  10.704  10.683 -0.0186  0.0206 -0.0971
  295loPI    C3 4707   0.983  10.931  10.994  0.2045  0.0439 -0.0356
  295loPI   PO4 4708   0.694  10.829  10.410  0.2305  0.3456 -0.0682
  295loPI   GL1 4709   0.516  10.836  10.024 -0.1616 -0.2531 -0.1289
  295loPI   GL2 4710   0.791  10.904   9.906  0.0542  0.2493 -0.1661
  295loPI   C1A 4711   0.315  10.562   9.772 -0.0090  0.0471 -0.1560
  295loPI   C2A 4712   0.271  10.472   9.313  0.0344 -0.1523 -0.1565
  295loPI   C3A 4713   0.288  10.414   8.835 -0.0850  0.0355  0.0194
  295loPI   C4A 4714   0.384  10.497   8.527 -0.3504  0.0138  0.2061
  295loPI   C5A 4715   0.432  10.376   8.092 -0.2858  0.0003  0.3642
  295loPI   C6A 4716   0.636  10.261   7.692  0.0816  0.4897  0.1412
  295loPI   C1B 4717   0.710  10.716   9.440 -0.0714  0.2715 -0.1958
  295loPI   C2B 4718   0.719  10.666   9.042  0.0840 -0.2327 -0.1128
  295loPI   C3B 4719   0.707  10.845   8.665  0.2596 -0.3465 -0.0612
  295loPI   C4B 4720   0.550  10.888   8.201  0.0777  0.2116 -0.1634
  296loPI    C1 4721   4.745   2.656  11.441 -0.0648 -0.0456 -0.0025
  296loPI    C2 4722   4.713   2.403  11.749  0.2391  0.2313  0.2636
  296loPI    C3 4723   5.074   2.504  11.610  0.1047  0.1029 -0.1946
  296loPI   PO4 4724   4.654   2.617  11.248 -0.0680 -0.0458 -0.1221
  296loPI   GL1 4725   4.588   2.453  10.870  0.1451 -0.0485  0.0967
  296loPI   GL2 4726   4.882   2.551  10.684  0.0740  0.0080 -0.1514
  296loPI   C1A 4727   4.307   2.617  10.581  0.2882 -0.0537 -0.3743
  296loPI   C2A 4728   4.414   2.738  10.161 -0.2413  0.0727 -0.3024
  296loPI   C3A 4729   4.389   2.738   9.720 -0.3268 -0.0761  0.3110
  296loPI   C4A 4730   4.327   2.717   9.339 -0.2230  0.0076  0.0048
  296loPI   C5A 4731   4.388   2.748   8.894 -0.1793 -0.1274 -0.0764
  296loPI   C6A 4732   4.408   2.642   8.360  0.1352 -0.3329  0.0753
  296loPI   C1B 4733   4.916   2.698  10.356  0.0947  0.1686  0.0571
  296loPI   C2B 4734   4.841   2.778   9.939 -0.0815 -0.1554 -0.0627
  296loPI   C3B 4735   4.888   2.661   9.505 -0.0119 -0.0799  0.1593
  296loPI   C4B 4736   4.909   2.674   9.030  0.1558  0.0104 -0.1334
  297loPI    C1 4737   7.063   0.427  11.025 -0.1076 -0.0998 -0.1100
  297loPI    C2 4738   7.378   0.594  11.207  0.0014 -0.2856 -0.1250
  297loPI    C3 4739   7.054   0.814  11.126  0.2978  0.0237 -0.5122
  297loPI   PO4 4740   7.141   0.318  10.793 -0.2601 -0.0000  0.0046
  297loPI   GL1 4741   7.193   0.432  10.400 -0.1007  0.0966 -0.0965
  297loPI   GL2 4742   7.380   0.635  10.295  0.1901 -0.1709  0.2140
  297loPI   C1A 4743   7.025   0.402  10.065  0.1375 -0.1333 -0.0247
  297loPI   C2A 4744   7.053   0.360   9.637  0.1363 -0.0390 -0.1292
  297loPI   C3A 4745   7.104   0.342   9.237  0.2330  0.1190 -0.1653
  297loPI   C4A 4746   7.114   0.210   8.759  0.2474 -0.1914 -0.1069
  297loPI   C5A 4747   7.258   0.318   8.359 -0.0951  0.1380  0.0912
  297loPI   C6A 4748   7.204   0.538   7.970 -0.2261  0.0511 -0.1064
  297loPI   C1B 4749   7.344   0.784   9.925  0.4164 -0.1776  0.1821
  297loPI   C2B 4750   7.321   0.787   9.542  0.3054  0.1820  0.3420
  297loPI   C3B 4751   7.430   0.807   9.116 -0.1502 -0.2488 -0.0346
  297loPI   C4B 4752   7.329   0.685   8.771  0.0591  0.2794 -0.0190
  298loPI    C1 4753  16.678   4.241  11.259  0.0619 -0.1807  0.1048
  298loPI    C2 4754  16.578   4.467  11.572  0.0143 -0.2215  0.1191
  298loPI    C3 4755  16.895   4.225  11.594  0.0963 -0.1177  0.0858
  298loPI   PO4 4756  16.417   4.302  11.113 -0.0388 -0.1741  0.1043
  298loPI   GL1 4757  16.263   4.383  10.748 -0.3416 -0.2832 -0.2329
  298loPI   GL2 4758  16.264   4.686  10.776  0.1497  0.0557 -0.1520
  298loPI   C1A 4759  16.261   4.338  10.272  0.0263  0.0547 -0.1967
  298loPI   C2A 4760  16.246   4.345   9.942  0.0252  0.0300 -0.0390
  298loPI   C3A 4761  16.149   4.326   9.466  0.4216  0.3280  0.0145
  298loPI   C4A 4762  16.160   4.341   9.019  0.1756 -0.0531 -0.3089
  298loPI   C5A 4763  16.322   4.162   8.599  0.2416 -0.2845 -0.0693
  298loPI   C6A 4764  16.384   4.164   8.239 -0.0047 -0.0145 -0.0238
  298loPI   C1B 4765  15.996   4.741  10.339 -0.1175 -0.2567  0.2525
  298loPI   C2B 4766  15.927   4.737   9.871  0.0163  0.1165 -0.0724
  298loPI   C3B 4767  16.005   4.786   9.381 -0.0538  0.0727 -0.0475
  298loPI   C4B 4768  15.960   4.820   9.072  0.0192 -0.0212 -0.1979
  299loPI    C1 4769  12.500   1.058  11.090  0.0602 -0.0862  0.3826
  299loPI    C2 4770  12.113   0.963  11.115  0.0245 -0.0068  0.1533
  299loPI    C3 4771  12.254   1.279  11.314 -0.0559  0.0432  0.1313
  299loPI   PO4 4772  12.549   1.124  10.819  0.1226  0.0132 -0.0329
  299loPI   GL1 4773  12.569   1.018  10.405 -0.1637  0.0795  0.0206
  299loPI   GL2 4774  12.905   1.087  10.386  0.3081 -0.1223 -0.1046
  299loPI   C1A 4775  12.473   1.049  10.081 -0.0484  0.2703  0.0854
  299loPI   C2A 4776  12.510   1.074   9.668  0.0435 -0.0304 -0.5332
  299loPI   C3A 4777  12.423   0.970   9.234 -0.2406 -0.2762  0.1672
  299loPI   C4A 4778  12.451   1.012   8.818 -0.4767 -0.0171  0.2181
  299loPI   C5A 4779  12.254   0.850   8.474  0.2454 -0.0959  0.0058
  299loPI   C6A 4780  11.953   0.531   8.090  0.1691 -0.0241 -0.1496
  299loPI   C1B 4781  12.994   1.073   9.969  0.2423  0.2054  0.1381
  299loPI   C2B 4782  12.964   1.001   9.516 -0.1912 -0.0506  0.3506
  299loPI   C3B 4783  12.993   1.019   8.997  0.0252  0.0783 -0.3393
  299loPI   C4B 4784  12.902   1.117   8.567 -0.0661 -0.0699 -0.2146
  300loPI    C1 4785  10.698  11.062  11.054 -0.0726 -0.0872 -0.0084
  300loPI    C2 4786  10.422  10.836  11.235  0.0457 -0.0003  0.2873
  300loPI    C3 4787  10.808  10.735  11.256  0.0660  0.0402  0.1252
  300loPI   PO4 4788  10.606  11.064  10.769  0.0427  0.2109  0.0605
  300loPI   GL1 4789  10.491  11.116  10.349  0.2649 -0.2680  0.3515
  300loPI   GL2 4790  10.454  11.451  10.437 -0.0322 -0.0395 -0.1465
  300loPI   C1A 4791  10.474  11.222   9.960  0.0711  0.2751 -0.0853
  300loPI   C2A 4792  10.562  11.153   9.527  0.2099 -0.1237 -0.1774
  300loPI   C3A 4793  10.376  11.078   9.074 -0.2873 -0.0280  0.1589
  300loPI   C4A 4794  10.440  11.135   8.729 -0.0549 -0.4593 -0.1176
  300loPI   C5A 4795  10.645  11.412   8.343 -0.0860  0.1557  0.0925
  300loPI   C6A 4796  10.650  11.329   7.991 -0.3873  0.1405 -0.0596
  300loPI   C1B 4797  10.270  11.626  10.115  0.0363 -0.2644 -0.1450
  300loPI   C2B 4798  10.248  11.669   9.750 -0.0857  0.1392 -0.1622
  300loPI   C3B 4799  10.205  11.560   9.352 -0.1475  0.1343  0.2130
  300loPI   C4B 4800  10.181  11.525   8.981 -0.1719 -0.0316 -0.0493
  301loPI    C1 4801  15.276   1.145  11.583  0.2166 -0.2188  0.0202
  301loPI    C2 4802  15.377   1.488  11.763  0.0220 -0.2137  0.1226
  301loPI    C3 4803  15.227   1.186  11.978 -0.0006 -0.2892  0.0017
  301loPI   PO4 4804  15.404   1.098  11.384 -0.1870  0.1987 -0.3129
  301loPI   GL1 4805  15.455   1.243  10.984 -0.0157 -0.2411  0.1171
  301loPI   GL2 4806  15.565   1.467  10.863 -0.0150  0.3112  0.0442
  301loPI   C1A 4807  15.261   1.244  10.510  0.3679 -0.1932 -0.1961
  301loPI   C2A 4808  15.307   1.384  10.144  0.0310  0.0042  0.1652
  301loPI   C3A 4809  15.333   1.390   9.669  0.1675  0.2742 -0.1631
  301loPI   C4A 4810  15.303   1.319   9.254 -0.1689 -0.2607 -0.2407
  301loPI   C5A 4811  15.269   1.305   8.868  0.0947  0.0021  0.0689
  301loPI   C6A 4812  15.011   1.469   8.558 -0.0803  0.0537 -0.1659
  301loPI   C1B 4813  15.638   1.725  10.451  0.2992  0.3082 -0.0952
  301loPI   C2B 4814  15.589   1.771  10.047 -0.1403 -0.0891 -0.3562
  301loPI   C3B 4815  15.662   1.775   9.589 -0.0771  0.0731  0.2148
  301loPI   C4B 4816  15.570   1.736   9.142 -0.2696 -0.0189 -0.0212
  302loPI    C1 4817   5.985  13.286  11.075 -0.1879 -0.1911  0.0751
  302loPI    C2 4818   5.837  13.546  11.340 -0.0860 -0.0075 -0.0452
  302loPI    C3 4819   5.632  13.214  11.249 -0.3084  0.1236 -0.0317
  302loPI   PO4 4820   6.072  13.476  10.821  0.2888 -0.1469  0.2628
  302loPI   GL1 4821   6.201  13.356  10.365 -0.0078  0.3386 -0.1422
  302loPI   GL2 4822   6.266  13.027  10.291 -0.1144 -0.1507 -0.1909
  302loPI   C1A 4823   6.249  13.544   9.999  0.0734  0.2853 -0.0474
  302loPI   C2A 4824   6.411  13.668   9.669 -0.0425 -0.1210 -0.0174
  302loPI   C3A 4825   6.254  13.603   9.243  0.2486  0.0109  0.1070
  302loPI   C4A 4826   6.239  13.692   8.840 -0.0871  0.1727 -0.1462
  302loPI   C5A 4827   6.216  13.785   8.461  0.0695 -0.1779 -0.0218
  302loPI   C6A 4828   6.445  13.811   8.094 -0.3903  0.1449  0.0141
  302loPI   C1B 4829   6.228  12.822   9.940 -0.0415  0.0255  0.1719
  302loPI   C2B 4830   6.233  12.751   9.392  0.3574  0.0862 -0.2755
  302loPI   C3B 4831   6.206  12.817   8.928 -0.0674 -0.1338 -0.0555
  302loPI   C4B 4832   6.066  12.880   8.474  0.0669 -0.3270  0.0066
  303loPI    C1 4833   7.206   2.298  10.881  0.0148  0.0128 -0.0747
  303loPI    C2 4834   6.986   2.479  11.162 -0.1214 -0.0969 -0.1101
  303loPI    C3 4835   7.385   2.495  11.181 -0.1306 -0.0214  0.0357
  303loPI   PO4 4836   7.218   2.413  10.638 -0.0430  0.2637  0.2848
  303loPI   GL1 4837   7.133   2.150  10.383 -0.0693 -0.3190 -0.0706
  303loPI   GL2 4838   6.752   2.243  10.212 -0.0714  0.2580  0.2184
  303loPI   C1A 4839   7.231   2.137   9.951  0.0926 -0.3905 -0.1332
  303loPI   C2A 4840   7.159   2.226   9.558  0.1057 -0.0475  0.0411
  303loPI   C3A 4841   7.182   2.232   9.065 -0.0223 -0.2176  0.0945
  303loPI   C4A 4842   7.142   2.264   8.587  0.1291 -0.2362  0.1175
  303loPI   C5A 4843   7.273   2.535   8.237  0.0550 -0.0766  0.1223
  303loPI   C6A 4844   7.179   3.050   8.110 -0.0889  0.1058 -0.0255
  303loPI   C1B 4845   6.712   2.147   9.776 -0.3876 -0.4127 -0.0362
  303loPI   C2B 4846   6.670   2.265   9.321 -0.4496 -0.1360 -0.2730
  303loPI   C3B 4847   6.731   2.178   8.894 -0.3347 -0.1679 -0.0464
  303loPI   C4B 4848   6.596   1.969   8.576 -0.3627  0.4219 -0.0459
  304loPI    C1 4849  13.786  11.746  11.081  0.2389  0.0104  0.0853
  304loPI    C2 4850  13.484  11.674  11.333 -0.0054  0.1064 -0.1746
  304loPI    C3 4851  13.817  11.454  11.353 -0.1297 -0.0659  0.0508
  304loPI   PO4 4852  13.756  11.707  10.765 -0.1041  0.2349  0.0565
  304loPI   GL1 4853  13.567  11.510  10.389  0.0231  0.3934 -0.2735
  304loPI   GL2 4854  13.414  11.165  10.444 -0.0783 -0.3041 -0.0937
  304loPI   C1A 4855  13.675  11.653   9.979  0.2973  0.0720 -0.0945
  304loPI   C2A 4856  13.687  11.706   9.622  0.1382  0.1488  0.0357
  304loPI   C3A 4857  13.649  11.656   9.274 -0.1678 -0.2334  0.0652
  304loPI   C4A 4858  13.632  11.662   8.817 -0.0035  0.0126 -0.0643
  304loPI   C5A 4859  13.529  11.630   8.382 -0.0318  0.0477 -0.2942
  304loPI   C6A 4860  13.334  11.582   8.061  0.0214  0.3316  0.1409
  304loPI   C1B 4861  13.337  11.258  10.004 -0.0745  0.1477 -0.2859
  304loPI   C2B 4862  13.367  11.295   9.623  0.3633  0.1808  0.1912
  304loPI   C3B 4863  13.223  11.270   9.224  0.1056  0.3352 -0.1808
  304loPI   C4B 4864  13.198  11.267   8.821 -0.2147 -0.0251  0.5775
  305loPI    C1 4865  15.192  15.649  10.900 -0.1358 -0.1540  0.1708
  305loPI    C2 4866  15.057  15.953  10.678 -0.0371 -0.1156  0.1627
  305loPI    C3 4867  15.273  16.026  11.006  0.2393 -0.1821 -0.0012
  305loPI   PO4 4868  15.284  15.522  10.695  0.1329 -0.0988 -0.0168
  305loPI   GL1 4869  15.161  15.661  10.297 -0.0405  0.0040 -0.0582
  305loPI   GL2 4870  14.977  16.019  10.203  0.0061  0.0751 -0.3297
  305loPI   C1A 4871  15.332  15.597   9.849 -0.0924 -0.1189 -0.0079
  305loPI   C2A 4872  15.338  15.571   9.412  0.2371 -0.2471  0.3236
  305loPI   C3A 4873  15.280  15.554   9.046 -0.2152 -0.2006 -0.1659
  305loPI   C4A 4874  15.199  15.529   8.648  0.1203 -0.0418 -0.0904
  305loPI   C5A 4875  14.973  15.321   8.286 -0.2225  0.1050  0.0278
  305loPI   C6A 4876  15.131  14.950   8.064  0.3952  0.3343  0.0317
  305loPI   C1B 4877  14.992  15.989   9.832 -0.1055  0.2715  0.4875
  305loPI   C2B 4878  15.020  16.020   9.338  0.5951 -0.1749 -0.2120
  305loPI   C3B 4879  15.057  15.982   8.921 -0.2631 -0.0491 -0.1473
  305loPI   C4B 4880  15.029  15.950   8.448 -0.0615  0.1049 -0.1396
  306loPI    C1 4881   9.666  12.023  11.077 -0.1380  0.0006  0.1194
  306loPI    C2 4882   9.681  11.871  11.446  0.1330 -0.0575  0.0863
  306loPI    C3 4883   9.962  12.128  11.324  0.0630 -0.0635 -0.0905
  306loPI   PO4 4884   9.590  11.884  10.817  0.0412 -0.3117 -0.1150
  306loPI   GL1 4885   9.695  11.954  10.435 -0.0311 -0.1290  0.0306
  306loPI   GL2 4886   9.873  11.641  10.432  0.2904  0.0635  0.0330
  306loPI   C1A 4887   9.533  12.024  10.084 -0.0365  0.0824 -0.1040
  306loPI   C2A 4888   9.448  12.051   9.754 -0.2910 -0.0835  0.2444
  306loPI   C3A 4889   9.510  12.016   9.335 -0.0081  0.0049 -0.2715
  306loPI   C4A 4890   9.527  11.989   8.900  0.2582 -0.0806 -0.0188
  306loPI   C5A 4891   9.424  11.987   8.476  0.0511  0.1502 -0.0143
  306loPI   C6A 4892   9.572  12.013   8.148 -0.0960  0.1996 -0.0366
  306loPI   C1B 4893   9.759  11.638   9.974  0.4069  0.1418  0.0384
  306loPI   C2B 4894   9.715  11.545   9.547 -0.0560 -0.2705 -0.0013
  306loPI   C3B 4895   9.697  11.531   9.145 -0.2403  0.0629  0.0785
  306loPI   C4B 4896   9.748  11.460   8.687  0.0448  0.1387 -0.0731
  307loPI    C1 4897  15.395  17.737  11.070 -0.0728 -0.2065  0.0906
  307loPI    C2 4898  15.794  17.759  11.055 -0.0803 -0.0815  0.0667
  307loPI    C3 4899  15.608  17.731  11.408 -0.0537 -0.0712  0.0816
  307loPI   PO4 4900  15.332  17.733  10.824  0.0229  0.1167  0.1680
  307loPI   GL1 4901  15.653  17.671  10.512 -0.3112 -0.0119  0.0131
  307loPI   GL2 4902  15.972  17.768  10.579 -0.1931  0.1326 -0.1373
  307loPI   C1A 4903  15.497  17.870  10.203 -0.2262 -0.2242 -0.2953
  307loPI   C2A 4904  15.463  17.883   9.833  0.1053 -0.1289  0.0814
  307loPI   C3A 4905  15.513  17.746   9.442  0.2541  0.1931 -0.1174
  307loPI   C4A 4906  15.543  17.758   8.951 -0.0096 -0.2037  0.1203
  307loPI   C5A 4907  15.400  17.638   8.569 -0.2202  0.1030 -0.0026
  307loPI   C6A 4908  15.019  17.640   8.442 -0.1280 -0.2520  0.3933
  307loPI   C1B 4909  16.012  17.819  10.125 -0.2739 -0.2972 -0.0586
  307loPI   C2B 4910  15.981  17.809   9.668 -0.0482  0.1416 -0.1831
  307loPI   C3B 4911  16.004  17.784   9.248 -0.1458  0.0969  0.2433
  307loPI   C4B 4912  16.036  17.742   8.889 -0.1670  0.1090  0.1948
  308loPI    C1 4913   6.259  15.233  10.988 -0.2351 -0.2599 -0.0852
  308loPI    C2 4914   5.943  15.221  11.233 -0.2071 -0.0069 -0.0338
  308loPI    C3 4915   6.304  15.116  11.368 -0.2170 -0.0061 -0.0065
  308loPI   PO4 4916   6.240  15.180  10.806 -0.1380 -0.0800 -0.1253
  308loPI   GL1 4917   6.119  15.339  10.440  0.2042  0.2177  0.1148
  308loPI   GL2 4918   6.234  15.088  10.319 -0.2249  0.3448  0.1182
  308loPI   C1A 4919   5.971  15.405  10.068 -0.0386  0.1978 -0.1052
  308loPI   C2A 4920   5.864  15.388   9.616 -0.1311 -0.0007  0.0164
  308loPI   C3A 4921   5.859  15.485   9.180 -0.5992  0.3407 -0.1945
  308loPI   C4A 4922   5.849  15.476   8.844  0.0131 -0.2751  0.2110
  308loPI   C5A 4923   5.855  15.672   8.503 -0.1537  0.0771 -0.3055
  308loPI   C6A 4924   5.766  15.729   8.064  0.1736 -0.0219 -0.1002
  308loPI   C1B 4925   6.237  14.993   9.805  0.1165  0.1868  0.0502
  308loPI   C2B 4926   6.067  14.971   9.390 -0.1944  0.0372  0.2010
  308loPI   C3B 4927   6.057  14.970   8.862 -0.1313  0.0218 -0.0967
  308loPI   C4B 4928   6.034  15.165   8.450  0.4231 -0.1758  0.1596
  309loPI    C1 4929   7.502  11.784  11.145  0.0223  0.2589  0.1079
  309loPI    C2 4930   7.186  11.722  11.382 -0.0808  0.0976 -0.0694
  309loPI    C3 4931   7.336  12.091  11.341 -0.2558  0.1778  0.0028
  309loPI   PO4 4932   7.413  11.717  10.911 -0.1100 -0.1481 -0.0564
  309loPI   GL1 4933   7.669  11.704  10.573  0.0945 -0.1806  0.0460
  309loPI   GL2 4934   7.345  11.663  10.385  0.1412  0.1591 -0.2270
  309loPI   C1A 4935   7.701  11.769  10.117 -0.2529 -0.1736 -0.1587
  309loPI   C2A 4936   7.704  11.704   9.706 -0.0855 -0.1591 -0.2481
  309loPI   C3A 4937   7.713  11.792   9.336  0.1495 -0.0363  0.0670
  309loPI   C4A 4938   7.609  11.786   8.936  0.1958  0.3399 -0.0937
  309loPI   C5A 4939   7.624  11.698   8.430  0.4525 -0.0561  0.0408
  309loPI   C6A 4940   7.505  11.728   8.078 -0.1072 -0.0490  0.1756
  309loPI   C1B 4941   7.378  11.377   9.975  0.1180  0.0165 -0.5016
  309loPI   C2B 4942   7.425  11.272   9.592 -0.2552 -0.3151  0.0412
  309loPI   C3B 4943   7.377  11.367   9.122 -0.0759 -0.1927 -0.0012
  309loPI   C4B 4944   7.451  11.303   8.696  0.1413  0.0196 -0.0511
  310loPI    C1 4945  13.843   9.336  10.915  0.0557  0.1044 -0.1001
  310loPI    C2 4946  13.600   9.581  11.118  0.0622  0.1427 -0.1384
  310loPI    C3 4947  13.748   9.253  11.295 -0.1429  0.0351 -0.1635
  310loPI   PO4 4948  13.753   9.291  10.704  0.0338  0.2296  0.0736
  310loPI   GL1 4949  13.711   9.470  10.318 -0.0199  0.0362 -0.0484
  310loPI   GL2 4950  13.353   9.508  10.267 -0.1218 -0.2063  0.2639
  310loPI   C1A 4951  13.693   9.456   9.836 -0.0193  0.1486 -0.2336
  310loPI   C2A 4952  13.695   9.337   9.398 -0.1075 -0.2452  0.0364
  310loPI   C3A 4953  13.580   9.414   9.000  0.0792  0.0155  0.3777
  310loPI   C4A 4954  13.602   9.416   8.549  0.0592 -0.4022  0.0328
  310loPI   C5A 4955  13.284   9.167   8.272  0.3253 -0.0024  0.0531
  310loPI   C6A 4956  13.330   8.780   8.106 -0.2398 -0.0639  0.1508
  310loPI   C1B 4957  13.135   9.514   9.862 -0.0054 -0.1550  0.2942
  310loPI   C2B 4958  13.226   9.528   9.372  0.2396  0.0163 -0.2533
  310loPI   C3B 4959  13.091   9.491   8.926  0.2195  0.0482  0.4160
  310loPI   C4B 4960  12.972   9.555   8.463  0.1858 -0.0888  0.0178
  311loPI    C1 4961   2.488  16.181  10.890 -0.0188  0.0809 -0.2398
  311loPI    C2 4962   2.871  16.109  10.982 -0.0151 -0.0732 -0.3715
  311loPI    C3 4963   2.583  16.025  11.246  0.0273 -0.1346 -0.3448
  311loPI   PO4 4964   2.474  16.107  10.622 -0.0781 -0.0656 -0.2301
  311loPI   GL1 4965   2.371  15.891  10.298 -0.2901 -0.0914 -0.4541
  311loPI   GL2 4966   2.137  15.946  10.168 -0.2669  0.0470  0.0791
  311loPI   C1A 4967   2.585  15.956   9.944  0.1706 -0.2425 -0.2659
  311loPI   C2A 4968   2.550  16.125   9.482  0.3778  0.3264  0.0220
  311loPI   C3A 4969   2.669  16.217   9.080 -0.3061  0.0465 -0.0942
  311loPI   C4A 4970   2.699  16.202   8.671 -0.5453 -0.2117 -0.0858
  311loPI   C5A 4971   2.646  16.090   8.264 -0.1974 -0.4350  0.0697
  311loPI   C6A 4972   2.229  15.999   8.125 -0.0354  0.0541  0.1571
  311loPI   C1B 4973   2.104  16.121   9.880 -0.0780  0.0640 -0.2558
  311loPI   C2B 4974   2.044  16.184   9.423 -0.2895 -0.1255 -0.3451
  311loPI   C3B 4975   2.065  16.132   9.010  0.2392 -0.0909 -0.0863
  311loPI   C4B 4976   2.158  16.200   8.599 -0.0501  0.1436  0.1021
  312loPI    C1 4977  12.579   7.413  11.277  0.1077 -0.2830 -0.0693
  312loPI    C2 4978  12.562   7.149  11.577  0.3514 -0.3793 -0.1378
  312loPI    C3 4979  12.916   7.285  11.450  0.2246  0.0679 -0.0299
  312loPI   PO4 4980  12.387   7.303  11.131 -0.1350  0.3222  0.4171
  312loPI   GL1 4981  12.109   7.394  10.791  0.1015  0.1137  0.4161
  312loPI   GL2 4982  12.420   7.581  10.722 -0.0663  0.0738  0.0455
  312loPI   C1A 4983  12.132   7.252  10.419  0.1114  0.0468  0.1332
  312loPI   C2A 4984  12.157   7.342  10.030 -0.0117 -0.2593  0.1133
  312loPI   C3A 4985  12.181   7.386   9.533  0.1152 -0.0506  0.0824
  312loPI   C4A 4986  12.208   7.274   9.143 -0.0552 -0.0610 -0.0998
  312loPI   C5A 4987  12.389   7.251   8.802  0.2923 -0.1402  0.1202
  312loPI   C6A 4988  12.470   7.679   8.552  0.1499  0.1952 -0.2210
  312loPI   C1B 4989  12.477   7.786  10.326  0.0653 -0.0244 -0.2644
  312loPI   C2B 4990  12.496   7.741   9.919  0.1240  0.0438 -0.1061
  312loPI   C3B 4991  12.597   7.701   9.514 -0.3675 -0.0552  0.1205
  312loPI   C4B 4992  12.493   7.700   9.130 -0.1053  0.0513 -0.2299
  313loPI    C1 4993   5.471  14.979  11.068 -0.1570 -0.1203 -0.0671
  313loPI    C2 4994   5.129  15.051  11.262 -0.1290 -0.0621 -0.0393
  313loPI    C3 4995   5.480  15.111  11.445 -0.0958  0.3371 -0.2227
  313loPI   PO4 4996   5.405  14.975  10.837  0.2339  0.2326  0.0021
  313loPI   GL1 4997   5.472  14.908  10.461 -0.0212  0.1184 -0.2848
  313loPI   GL2 4998   5.716  14.912  10.351  0.4327  0.0052 -0.1731
  313loPI   C1A 4999   5.193  15.003  10.101 -0.0127  0.0599  0.2004
  313loPI   C2A 5000   5.058  15.077   9.711  0.0862 -0.0729 -0.3090
  313loPI   C3A 5001   5.066  15.065   9.279 -0.2366 -0.2877 -0.1571
  313loPI   C4A 5002   5.081  15.067   8.854 -0.0832  0.1425 -0.0403
  313loPI   C5A 5003   5.107  15.140   8.373  0.1740 -0.0534 -0.0023
  313loPI   C6A 5004   5.049  15.259   8.014 -0.0954  0.1114 -0.0091
  313loPI   C1B 5005   5.680  15.028   9.903  0.0188  0.1681  0.0140
  313loPI   C2B 5006   5.539  15.027   9.528  0.1148  0.0736  0.1205
  313loPI   C3B 5007   5.617  15.056   9.114  0.3629 -0.3016 -0.3489
  313loPI   C4B 5008   5.553  15.023   8.712 -0.0805 -0.1294 -0.0830
  314loPI    C1 5009   7.711   3.934  11.006 -0.0550  0.0117  0.0158
  314loPI    C2 5010   8.039   4.145  11.097 -0.0311 -0.0018 -0.0380
  314loPI    C3 5011   7.678   4.274  11.214 -0.0267  0.1250 -0.1627
  314loPI   PO4 5012   7.751   3.807  10.810 -0.1110  0.0486  0.0779
  314loPI   GL1 5013   7.895   3.874  10.410 -0.0379  0.2432  0.1628
  314loPI   GL2 5014   7.713   3.644  10.275  0.0516 -0.0114 -0.0530
  314loPI   C1A 5015   7.820   4.051  10.028  0.0372 -0.0409  0.1975
  314loPI   C2A 5016   7.801   4.112   9.654 -0.1130  0.1416  0.1084
  314loPI   C3A 5017   7.772   3.964   9.239  0.0157  0.0084  0.3541
  314loPI   C4A 5018   7.745   3.964   8.778  0.1885 -0.1359  0.3274
  314loPI   C5A 5019   7.569   4.026   8.445 -0.1092  0.0570  0.0147
  314loPI   C6A 5020   7.247   4.263   8.238 -0.1256 -0.0427 -0.0139
  314loPI   C1B 5021   7.552   3.580   9.874  0.0327  0.0866 -0.0903
  314loPI   C2B 5022   7.602   3.561   9.438  0.0681 -0.0779 -0.2252
  314loPI   C3B 5023   7.570   3.506   9.066  0.2224  0.0838  0.0753
  314loPI   C4B 5024   7.445   3.517   8.634  0.0481 -0.2318  0.0791
  315loPI    C1 5025   2.901  12.623  10.501 -0.0219  0.0951 -0.1154
  315loPI    C2 5026   2.566  12.510  10.688  0.0979  0.0693  0.0861
  315loPI    C3 5027   2.839  12.730  10.881  0.2160  0.0564 -0.0638
  315loPI   PO4 5028   2.796  12.749  10.252  0.1403 -0.0563 -0.1358
  315loPI   GL1 5029   2.909  12.886   9.886  0.1473  0.1444  0.3351
  315loPI   GL2 5030   2.794  12.576   9.654  0.1631 -0.3099  0.0407
  315loPI   C1A 5031   3.098  12.996   9.513  0.1230  0.3047 -0.3439
  315loPI   C2A 5032   3.099  13.065   8.956 -0.0492  0.0230  0.1523
  315loPI   C3A 5033   3.018  13.112   8.531 -0.1557 -0.3199 -0.2483
  315loPI   C4A 5034   2.620  13.196   8.200  0.1725  0.2883 -0.0293
  315loPI   C5A 5035   2.343  13.418   7.795  0.1675  0.0836 -0.0363
  315loPI   C6A 5036   2.368  13.797   7.604  0.0632  0.1707  0.3213
  315loPI   C1B 5037   2.757  12.672   9.238  0.1766  0.0927 -0.0440
  315loPI   C2B 5038   2.767  12.690   8.822 -0.2006  0.0549  0.0093
  315loPI   C3B 5039   2.716  12.723   8.461  0.0737  0.2132 -0.1090
  315loPI   C4B 5040   2.705  12.651   7.997 -0.0782  0.2760  0.0058
  316loPI    C1 5041   2.254  14.601  10.900  0.0612  0.3099 -0.2396
  316loPI    C2 5042   2.030  14.880  11.079 -0.0393  0.0642  0.0254
  316loPI    C3 5043   2.310  14.685  11.288  0.0798  0.0168 -0.1765
  316loPI   PO4 5044   2.294  14.705  10.664  0.1256  0.2041 -0.0850
  316loPI   GL1 5045   2.058  14.617  10.222 -0.1962  0.3746 -0.1037
  316loPI   GL2 5046   2.111  14.899  10.104 -0.0384 -0.1214 -0.3633
  316loPI   C1A 5047   1.934  14.400   9.892  0.0970 -0.0529  0.0991
  316loPI   C2A 5048   1.880  14.425   9.457 -0.1662  0.0354 -0.0855
  316loPI   C3A 5049   1.845  14.444   9.026 -0.1784 -0.1245  0.0876
  316loPI   C4A 5050   1.929  14.436   8.629 -0.0650  0.2631  0.0348
  316loPI   C5A 5051   2.135  14.460   8.252  0.4010  0.1041  0.5819
  316loPI   C6A 5052   2.355  14.789   8.063 -0.0746 -0.2110  0.2215
  316loPI   C1B 5053   2.255  14.777   9.767  0.0567  0.0527 -0.0718
  316loPI   C2B 5054   2.199  14.780   9.326 -0.1375 -0.1645 -0.0557
  316loPI   C3B 5055   2.234  14.853   8.950  0.0054 -0.1973 -0.3091
  316loPI   C4B 5056   2.313  14.856   8.547 -0.1460  0.1914  0.0539
  317loPI    C1 5057   2.258   2.451  11.354  0.0684  0.1790 -0.0771
  317loPI    C2 5058   1.950   2.672  11.480  0.1555  0.1546  0.1843
  317loPI    C3 5059   1.987   2.292  11.601  0.1058  0.0513 -0.1173
  317loPI   PO4 5060   2.226   2.407  11.087  0.1998 -0.1941 -0.0011
  317loPI   GL1 5061   2.551   2.382  10.740  0.0797 -0.3187 -0.0808
  317loPI   GL2 5062   2.313   2.640  10.608 -0.3029 -0.0216 -0.0313
  317loPI   C1A 5063   2.556   2.287  10.291 -0.0223 -0.0090 -0.2504
  317loPI   C2A 5064   2.586   2.342   9.860 -0.0561 -0.1612  0.2448
  317loPI   C3A 5065   2.512   2.377   9.476 -0.2885 -0.2692  0.1450
  317loPI   C4A 5066   2.470   2.320   9.009  0.0716  0.0018  0.0850
  317loPI   C5A 5067   2.368   2.286   8.615  0.3088 -0.2861  0.0501
  317loPI   C6A 5068   2.217   2.451   8.270 -0.0556  0.1011 -0.1482
  317loPI   C1B 5069   2.231   2.799  10.143  0.0432 -0.0716  0.0170
  317loPI   C2B 5070   2.281   2.801   9.626 -0.3246  0.0935  0.2981
  317loPI   C3B 5071   2.246   2.812   9.165 -0.0993  0.2363 -0.2795
  317loPI   C4B 5072   2.196   2.813   8.754  0.0675 -0.0541  0.2429
  318loPI    C1 5073   4.707  15.708  11.042 -0.2367 -0.1694 -0.3073
  318loPI    C2 5074   4.782  15.811  11.422  0.0166 -0.0267 -0.3935
  318loPI    C3 5075   4.406  15.816  11.283 -0.0528  0.1284 -0.2054
  318loPI   PO4 5076   4.872  15.852  10.894  0.1439 -0.1869  0.1467
  318loPI   GL1 5077   5.005  15.931  10.457 -0.1846 -0.1714 -0.1129
  318loPI   GL2 5078   5.060  16.192  10.583 -0.1369  0.2006 -0.0599
  318loPI   C1A 5079   5.080  15.987  10.005 -0.1730 -0.2915 -0.0033
  318loPI   C2A 5080   5.099  15.996   9.617 -0.0531 -0.1362  0.1927
  318loPI   C3A 5081   5.154  15.994   9.160 -0.1141  0.0183  0.3765
  318loPI   C4A 5082   5.168  15.981   8.719 -0.2689 -0.2898  0.1978
  318loPI   C5A 5083   5.389  15.982   8.345 -0.0189  0.1588  0.0652
  318loPI   C6A 5084   5.248  15.698   7.999 -0.3345 -0.0939  0.1099
  318loPI   C1B 5085   4.827  16.411  10.249 -0.2476 -0.2342 -0.1275
  318loPI   C2B 5086   4.894  16.400   9.828  0.1732 -0.0094 -0.0204
  318loPI   C3B 5087   4.906  16.425   9.374  0.1358  0.0267  0.0492
  318loPI   C4B 5088   4.950  16.425   8.944  0.0857 -0.0174 -0.0273
  319loPI    C1 5089   3.141   7.807  10.997  0.1650  0.0114  0.0436
  319loPI    C2 5090   3.438   8.050  10.884  0.0375  0.1188 -0.0647
  319loPI    C3 5091   3.129   8.196  11.090  0.0180  0.0242 -0.0264
  319loPI   PO4 5092   3.075   7.651  10.815 -0.2400 -0.1631 -0.1074
  319loPI   GL1 5093   3.160   7.473  10.347  0.1827  0.0235 -0.0159
  319loPI   GL2 5094   2.950   7.286  10.133 -0.0395 -0.1794  0.0298
  319loPI   C1A 5095   3.291   7.702   9.999 -0.3560 -0.0110  0.1068
  319loPI   C2A 5096   3.339   7.578   9.621  0.1790 -0.0812 -0.1119
  319loPI   C3A 5097   3.220   7.567   9.182  0.1348  0.0610  0.0184
  319loPI   C4A 5098   3.219   7.590   8.734 -0.3142  0.0217 -0.1377
  319loPI   C5A 5099   3.135   7.461   8.300 -0.1646  0.2370 -0.2419
  319loPI   C6A 5100   3.223   7.560   7.981  0.0980  0.0060  0.3725
  319loPI   C1B 5101   2.995   7.181   9.764 -0.1900  0.0740 -0.1187
  319loPI   C2B 5102   2.927   7.164   9.311 -0.2217  0.2211 -0.1327
  319loPI   C3B 5103   2.951   7.112   8.830  0.0431 -0.1400 -0.1825
  319loPI   C4B 5104   2.983   7.017   8.501  0.0328 -0.1995 -0.1391
  320loPI    C1 5105   9.010  13.635  10.790 -0.0864 -0.1897 -0.0193
  320loPI    C2 5106   9.060  13.729  11.176  0.0520 -0.0189 -0.0774
  320loPI    C3 5107   8.712  13.577  11.050  0.0122 -0.0914  0.1174
  320loPI   PO4 5108   9.060  13.801  10.679  0.1117 -0.0094 -0.1653
  320loPI   GL1 5109   9.174  13.937  10.294 -0.1457  0.3042 -0.1401
  320loPI   GL2 5110   9.338  14.064  10.220 -0.0539 -0.1435  0.0540
  320loPI   C1A 5111   8.850  14.018  10.088 -0.0221 -0.0223  0.2632
  320loPI   C2A 5112   8.681  13.965   9.732 -0.1331  0.1419  0.2806
  320loPI   C3A 5113   8.585  13.876   9.334  0.0068  0.1800  0.0677
  320loPI   C4A 5114   8.589  13.962   8.904  0.2454 -0.0901  0.0266
  320loPI   C5A 5115   8.631  13.913   8.409 -0.0672  0.2750  0.0610
  320loPI   C6A 5116   8.531  13.517   8.179 -0.0129  0.2003  0.1232
  320loPI   C1B 5117   9.258  13.842   9.759  0.0021 -0.1061  0.1663
  320loPI   C2B 5118   9.162  13.920   9.316 -0.0029  0.3546  0.1496
  320loPI   C3B 5119   9.129  13.798   8.932  0.1323 -0.1074  0.0216
  320loPI   C4B 5120   9.118  13.827   8.500  0.1762  0.0870  0.1745
  321loPI    C1 5121   9.781   9.339  11.172  0.1163 -0.1443 -0.3566
  321loPI    C2 5122  10.036   9.046  11.267  0.1205  0.0687  0.3504
  321loPI    C3 5123  10.171   9.418  11.208  0.0268  0.0843  0.2305
  321loPI   PO4 5124   9.627   9.231  11.009  0.3967  0.0180  0.1459
  321loPI   GL1 5125   9.581   9.315  10.630  0.0921  0.0723 -0.1713
  321loPI   GL2 5126   9.636   8.981  10.539  0.1418 -0.0942  0.0036
  321loPI   C1A 5127   9.445   9.451  10.226 -0.0792 -0.2795  0.2373
  321loPI   C2A 5128   9.327   9.364   9.784 -0.2439  0.2506 -0.1828
  321loPI   C3A 5129   9.412   9.361   9.370 -0.3360 -0.1470 -0.0984
  321loPI   C4A 5130   9.311   9.348   8.844 -0.2242  0.0501  0.0072
  321loPI   C5A 5131   9.202   9.371   8.385  0.2544  0.0722  0.2299
  321loPI   C6A 5132   9.042   9.877   8.160  0.1046  0.1437 -0.0271
  321loPI   C1B 5133   9.602   8.946  10.109  0.2814 -0.2812  0.3098
  321loPI   C2B 5134   9.579   8.910   9.588 -0.0380  0.0058  0.1658
  321loPI   C3B 5135   9.488   8.952   9.070  0.1043 -0.1773  0.0553
  321loPI   C4B 5136   9.431   8.876   8.676  0.0084  0.0830 -0.3294
  322loPI    C1 5137  14.576  13.017  11.290 -0.1497  0.1289  0.2133
  322loPI    C2 5138  14.687  12.808  11.613 -0.2094  0.0449  0.1798
  322loPI    C3 5139  14.465  13.138  11.655  0.0453  0.2105  0.2468
  322loPI   PO4 5140  14.816  12.951  11.094  0.1001  0.0825  0.2620
  322loPI   GL1 5141  14.760  12.842  10.618  0.0752  0.0805 -0.0679
  322loPI   GL2 5142  14.734  12.581  10.374  0.0748 -0.2401 -0.1910
  322loPI   C1A 5143  14.557  13.001  10.224  0.0810 -0.3421  0.1924
  322loPI   C2A 5144  14.537  12.939   9.843  0.0828 -0.3679  0.2652
  322loPI   C3A 5145  14.521  12.951   9.406  0.1083 -0.1949  0.1228
  322loPI   C4A 5146  14.549  12.901   8.923  0.0203  0.1056 -0.1106
  322loPI   C5A 5147  14.578  12.875   8.547 -0.0498 -0.2366  0.0465
  322loPI   C6A 5148  14.953  12.705   8.406  0.1277 -0.1173  0.2204
  322loPI   C1B 5149  14.700  12.421  10.005 -0.0478  0.0583  0.1262
  322loPI   C2B 5150  14.753  12.354   9.639  0.1029  0.1531  0.0213
  322loPI   C3B 5151  14.757  12.429   9.250  0.0381  0.1425 -0.0645
  322loPI   C4B 5152  14.731  12.440   8.852  0.0578 -0.2790  0.1014
  323loPI    C1 5153   4.483   3.921  11.336 -0.1469 -0.0894 -0.0652
  323loPI    C2 5154   4.120   3.883  11.499 -0.1907 -0.0652 -0.1570
  323loPI    C3 5155   4.400   4.102  11.683 -0.1974 -0.1491 -0.0459
  323loPI   PO4 5156   4.438   3.877  11.066  0.3657  0.2237  0.1653
  323loPI   GL1 5157   4.648   3.839  10.673  0.3220  0.1492 -0.2791
  323loPI   GL2 5158   4.381   3.513  10.697  0.4088  0.0449  0.2428
  323loPI   C1A 5159   4.660   4.020  10.290  0.2304 -0.1028  0.1062
  323loPI   C2A 5160   4.650   4.042   9.846 -0.0362  0.1082 -0.1538
  323loPI   C3A 5161   4.767   4.050   9.405 -0.1916  0.0599  0.1661
  323loPI   C4A 5162   4.606   4.012   8.928 -0.0826 -0.1498  0.2682
  323loPI   C5A 5163   4.328   3.771   8.611 -0.0131  0.3257  0.3833
  323loPI   C6A 5164   4.153   3.852   8.258  0.0505  0.1510  0.0554
  323loPI   C1B 5165   4.367   3.569  10.260  0.0138  0.0561  0.1717
  323loPI   C2B 5166   4.477   3.610   9.784  0.1626 -0.0029 -0.4505
  323loPI   C3B 5167   4.399   3.662   9.380 -0.0992  0.1011 -0.0048
  323loPI   C4B 5168   4.262   3.575   9.069 -0.2713 -0.0938 -0.0143
  324loPI    C1 5169  12.866  16.819  10.785  0.0729  0.1706  0.0295
  324loPI    C2 5170  12.551  16.987  10.967  0.1520  0.2949  0.0525
  324loPI    C3 5171  12.810  16.766  11.178 -0.0781 -0.0520 -0.0200
  324loPI   PO4 5172  12.751  16.694  10.595  0.1724  0.1884  0.1326
  324loPI   GL1 5173  12.625  16.818  10.219  0.2198  0.0676  0.1457
  324loPI   GL2 5174  12.613  16.522   9.958 -0.0299  0.0928  0.0091
  324loPI   C1A 5175  12.813  16.961   9.796 -0.0491  0.3592  0.1812
  324loPI   C2A 5176  12.876  17.081   9.384 -0.1160  0.3680 -0.0168
  324loPI   C3A 5177  12.854  17.052   8.943  0.1461  0.1988 -0.1447
  324loPI   C4A 5178  12.799  17.088   8.438  0.0753 -0.0759  0.1646
  324loPI   C5A 5179  12.755  16.887   8.008 -0.1782  0.2104 -0.2131
  324loPI   C6A 5180  12.828  16.888   7.589 -0.0459  0.0481 -0.1846
  324loPI   C1B 5181  12.636  16.617   9.529  0.0764  0.0370  0.0525
  324loPI   C2B 5182  12.540  16.631   9.028  0.0018 -0.1144 -0.0496
  324loPI   C3B 5183  12.652  16.604   8.619 -0.0943 -0.0615 -0.1092
  324loPI   C4B 5184  12.954  16.507   8.239  0.2181  0.1616  0.1156
  325loPI    C1 5185   5.870  14.015  11.247 -0.1294 -0.1302  0.1822
  325loPI    C2 5186   6.230  14.185  11.212 -0.2139  0.0020 -0.0686
  325loPI    C3 5187   5.988  14.291  11.512  0.0339 -0.2378  0.2229
  325loPI   PO4 5188   5.927  13.901  10.983  0.2834 -0.2073 -0.0226
  325loPI   GL1 5189   5.813  14.037  10.558 -0.1713  0.1793  0.1991
  325loPI   GL2 5190   6.020  13.791  10.436 -0.0307  0.0458 -0.2723
  325loPI   C1A 5191   5.715  14.154  10.091 -0.1063  0.0178 -0.0540
  325loPI   C2A 5192   5.578  14.110   9.612 -0.4159  0.6096 -0.0457
  325loPI   C3A 5193   5.573  14.121   9.157  0.1288 -0.0637 -0.0275
  325loPI   C4A 5194   5.493  14.201   8.681 -0.4797 -0.0552  0.0061
  325loPI   C5A 5195   5.646  14.215   8.234 -0.2439  0.1317  0.6232
  325loPI   C6A 5196   5.576  14.442   7.785 -0.1630  0.0021 -0.2011
  325loPI   C1B 5197   6.214  14.089   9.985  0.0045 -0.0299  0.0910
  325loPI   C2B 5198   6.093  14.021   9.622 -0.2908 -0.0261  0.0504
  325loPI   C3B 5199   6.056  14.047   9.218 -0.0215  0.1809 -0.0140
  325loPI   C4B 5200   5.998  14.141   8.740 -0.0752  0.1341 -0.1631
  326loPI    C1 5201  15.847   3.965  11.391 -0.1034  0.1778  0.2125
  326loPI    C2 5202  16.121   4.209  11.551  0.2098 -0.1451  0.1797
  326loPI    C3 5203  16.044   3.855  11.721 -0.1410 -0.0879  0.1485
  326loPI   PO4 5204  15.961   4.017  11.137  0.0678 -0.0095  0.1064
  326loPI   GL1 5205  15.816   4.058  10.852 -0.1037  0.2870  0.2177
  326loPI   GL2 5206  15.759   4.413  10.612  0.1733  0.0906  0.0099
  326loPI   C1A 5207  16.057   3.994  10.509  0.1952 -0.2064 -0.1270
  326loPI   C2A 5208  15.980   3.882  10.179 -0.0182  0.0343  0.5246
  326loPI   C3A 5209  15.925   3.872   9.761  0.0808 -0.0369  0.1220
  326loPI   C4A 5210  15.898   3.895   9.291  0.1762  0.1119 -0.1373
  326loPI   C5A 5211  15.832   3.996   8.849  0.0242  0.2440 -0.1896
  326loPI   C6A 5212  15.769   4.071   8.450  0.1014  0.0846  0.0209
  326loPI   C1B 5213  15.732   4.293  10.208  0.0552 -0.1341  0.2423
  326loPI   C2B 5214  15.616   4.312   9.759 -0.3439 -0.0589  0.1391
  326loPI   C3B 5215  15.717   4.398   9.291  0.4024 -0.0037  0.0461
  326loPI   C4B 5216  15.685   4.466   8.928  0.0227 -0.0598  0.0691
  327loPI    C1 5217   9.011   0.730  10.876  0.0281 -0.1271 -0.2578
  327loPI    C2 5218   9.094   0.577  11.236  0.0360  0.3141 -0.0662
  327loPI    C3 5219   9.362   0.550  10.940  0.0829  0.0650 -0.0026
  327loPI   PO4 5220   8.795   0.670  10.745  0.1319  0.0584 -0.0975
  327loPI   GL1 5221   8.798   0.576  10.315 -0.2615  0.1878 -0.0270
  327loPI   GL2 5222   8.548   0.597  10.254  0.3142 -0.0765  0.0280
  327loPI   C1A 5223   9.098   0.659   9.987 -0.3568 -0.0423  0.4472
  327loPI   C2A 5224   9.190   0.540   9.635  0.2063  0.0391  0.0005
  327loPI   C3A 5225   9.116   0.555   9.269 -0.2478 -0.1501 -0.2979
  327loPI   C4A 5226   9.024   0.738   8.829 -0.2764  0.0270  0.0639
  327loPI   C5A 5227   9.013   0.802   8.431 -0.1425  0.1955 -0.3862
  327loPI   C6A 5228   9.162   1.152   8.249 -0.2361 -0.2067 -0.2460
  327loPI   C1B 5229   8.398   0.611   9.770 -0.4702  0.0208  0.2350
  327loPI   C2B 5230   8.264   0.556   9.397  0.0534 -0.0828  0.0790
  327loPI   C3B 5231   8.154   0.287   9.013  0.1645  0.1756  0.2772
  327loPI   C4B 5232   8.111   0.272   8.529 -0.1589  0.0657 -0.1495
  328loPI    C1 5233   6.665   4.931  11.232  0.0791  0.0587  0.0910
  328loPI    C2 5234   6.721   5.239  11.482 -0.0455  0.0606  0.1172
  328loPI    C3 5235   7.011   4.968  11.430  0.1460  0.2956 -0.0655
  328loPI   PO4 5236   6.460   5.053  10.906 -0.0396 -0.0520  0.1570
  328loPI   GL1 5237   6.711   4.898  10.515  0.0728  0.2752  0.2680
  328loPI   GL2 5238   6.364   4.977  10.393 -0.0149  0.0271 -0.1894
  328loPI   C1A 5239   6.828   4.976  10.145 -0.2477  0.1488  0.0056
  328loPI   C2A 5240   6.924   5.052   9.673 -0.0801  0.0006 -0.1800
  328loPI   C3A 5241   6.808   4.858   9.281  0.2637 -0.3121 -0.1117
  328loPI   C4A 5242   6.790   4.851   8.847  0.0068 -0.0526  0.0821
  328loPI   C5A 5243   6.741   5.193   8.522  0.5738  0.0358 -0.2664
  328loPI   C6A 5244   6.597   5.384   8.171  0.0411 -0.1343 -0.1929
  328loPI   C1B 5245   6.347   4.927   9.978  0.0503 -0.1360  0.4048
  328loPI   C2B 5246   6.256   4.904   9.497  0.0272  0.2210  0.0520
  328loPI   C3B 5247   6.288   4.874   9.079  0.0596  0.0800  0.0512
  328loPI   C4B 5248   6.310   4.772   8.643 -0.2706  0.1295 -0.1705
  329loPI    C1 5249   4.804   2.021  11.195  0.0992  0.0186  0.0539
  329loPI    C2 5250   4.932   2.106  10.826  0.0075  0.2726  0.0787
  329loPI    C3 5251   5.037   2.341  11.132  0.0984  0.0526  0.2182
  329loPI   PO4 5252   4.563   1.869  11.073 -0.0305  0.0880 -0.3613
  329loPI   GL1 5253   4.392   2.008  10.714 -0.1182  0.2482 -0.0728
  329loPI   GL2 5254   4.320   1.690  10.611 -0.0310 -0.1418  0.1808
  329loPI   C1A 5255   4.542   2.231  10.389  0.1135  0.0600 -0.3454
  329loPI   C2A 5256   4.652   2.297  10.031  0.2565  0.0454  0.0983
  329loPI   C3A 5257   4.651   2.189   9.577 -0.2307 -0.1315  0.1082
  329loPI   C4A 5258   4.609   2.293   9.200  0.2463  0.0243 -0.1300
  329loPI   C5A 5259   4.645   2.322   8.762  0.1095 -0.3787  0.0204
  329loPI   C6A 5260   4.489   2.088   8.429  0.3147  0.1462 -0.1386
  329loPI   C1B 5261   4.300   1.802  10.237 -0.1081 -0.0062 -0.0530
  329loPI   C2B 5262   4.210   1.785   9.848  0.0443 -0.0112  0.1875
  329loPI   C3B 5263   4.245   1.834   9.399  0.0305  0.1633  0.1926
  329loPI   C4B 5264   4.372   1.882   9.010 -0.1454 -0.0753  0.2601
  330loPI    C1 5265  16.372   5.317  11.343 -0.1162 -0.1394 -0.1688
  330loPI    C2 5266  16.132   5.091  11.117 -0.1926 -0.1072 -0.1202
  330loPI    C3 5267  15.999   5.239  11.464 -0.2024  0.1580 -0.2345
  330loPI   PO4 5268  16.511   5.409  11.103 -0.0673 -0.3520 -0.0651
  330loPI   GL1 5269  16.676   5.100  10.814 -0.2400 -0.1440  0.0826
  330loPI   GL2 5270  16.790   5.347  10.655  0.0103  0.1898 -0.0117
  330loPI   C1A 5271  16.337   5.085  10.467 -0.2518 -0.0927 -0.0978
  330loPI   C2A 5272  16.249   5.217  10.118  0.1061  0.0394 -0.1127
  330loPI   C3A 5273  16.269   5.139   9.697  0.2683  0.0656  0.0892
  330loPI   C4A 5274  16.236   5.180   9.244 -0.0829 -0.3442  0.1499
  330loPI   C5A 5275  16.219   5.176   8.758 -0.1893  0.0221  0.0817
  330loPI   C6A 5276  16.595   5.130   8.505  0.2854  0.1037  0.0128
  330loPI   C1B 5277  16.842   5.178  10.264  0.0432 -0.0934  0.1363
  330loPI   C2B 5278  16.740   5.154   9.829 -0.2345  0.3910 -0.0940
  330loPI   C3B 5279  16.823   5.196   9.393  0.0808 -0.1380  0.2398
  330loPI   C4B 5280  16.680   5.266   8.983 -0.1296  0.2739  0.0548
  331loPI    C1 5281   6.796   4.436  10.917 -0.1596  0.0877  0.0336
  331loPI    C2 5282   6.732   4.425  11.311  0.0445 -0.0562  0.0646
  331loPI    C3 5283   6.856   4.096  11.120 -0.3682 -0.0786 -0.1772
  331loPI   PO4 5284   6.893   4.597  10.879 -0.2061 -0.0787 -0.0185
  331loPI   GL1 5285   7.217   4.804  10.578 -0.0640  0.0438 -0.1099
  331loPI   GL2 5286   7.082   4.540  10.395 -0.0009 -0.1754  0.1938
  331loPI   C1A 5287   7.339   4.938  10.099  0.2389  0.1065  0.0860
  331loPI   C2A 5288   7.474   5.117   9.682  0.1584  0.3439 -0.1096
  331loPI   C3A 5289   7.409   4.913   9.207 -0.0035 -0.0176  0.0376
  331loPI   C4A 5290   7.245   4.833   8.725 -0.1609  0.1404  0.3648
  331loPI   C5A 5291   7.225   5.189   8.445 -0.1169 -0.0287  0.4314
  331loPI   C6A 5292   7.387   5.135   8.006 -0.1377 -0.2884 -0.3547
  331loPI   C1B 5293   7.037   4.512   9.938  0.2309  0.0987 -0.2083
  331loPI   C2B 5294   7.104   4.575   9.562  0.1699 -0.1304  0.1216
  331loPI   C3B 5295   6.979   4.415   9.097  0.1548 -0.0742  0.3228
  331loPI   C4B 5296   7.059   4.341   8.662  0.3351  0.1204 -0.0719
  332loPI    C1 5297  17.584  10.240  10.438 -0.1580  0.2284  0.1712
  332loPI    C2 5298  17.793  10.257  10.778  0.3353 -0.0926 -0.1032
  332loPI    C3 5299  17.640  10.591  10.621  0.1209  0.0619  0.4144
  332loPI   PO4 5300  17.681  10.101  10.297  0.3193 -0.1159 -0.3507
  332loPI   GL1 5301  17.909  10.069   9.962 -0.2433 -0.0914 -0.0061
  332loPI   GL2 5302  17.627   9.977   9.842  0.3050  0.3370  0.0173
  332loPI   C1A 5303  17.862   9.984   9.418  0.0050  0.3261  0.3650
  332loPI   C2A 5304  17.799  10.002   8.936  0.0061  0.0326  0.1320
  332loPI   C3A 5305  17.801  10.052   8.540  0.2322 -0.1824  0.2187
  332loPI   C4A 5306  17.811  10.165   8.137 -0.3482 -0.1758  0.2731
  332loPI   C5A 5307  17.551   9.962   7.761  0.0513 -0.1894 -0.0825
  332loPI   C6A 5308  17.508   9.513   7.710 -0.1222 -0.1226  0.3269
  332loPI   C1B 5309  17.387   9.955   9.546 -0.1286 -0.2728  0.1566
  332loPI   C2B 5310  17.323   9.998   9.125 -0.3885  0.0329 -0.0011
  332loPI   C3B 5311  17.335  10.065   8.699  0.0813 -0.0147 -0.0091
  332loPI   C4B 5312  17.325  10.106   8.237 -0.1676 -0.1402 -0.3453
  333loPI    C1 5313   2.251   4.683  11.065  0.0395 -0.0454 -0.3229
  333loPI    C2 5314   2.506   4.593  11.359  0.0361 -0.0837 -0.3316
  333loPI    C3 5315   2.206   4.848  11.426  0.1201  0.0183 -0.3418
  333loPI   PO4 5316   2.377   4.694  10.867  0.3215 -0.2127  0.0291
  333loPI   GL1 5317   2.375   4.599  10.444 -0.2526 -0.0541 -0.1699
  333loPI   GL2 5318   2.036   4.635  10.399 -0.1030  0.2048  0.1279
  333loPI   C1A 5319   2.403   4.538   9.999 -0.0472 -0.0685 -0.0127
  333loPI   C2A 5320   2.321   4.571   9.600 -0.0167 -0.0477 -0.1143
  333loPI   C3A 5321   2.316   4.570   9.232 -0.2647  0.1129 -0.0976
  333loPI   C4A 5322   2.384   4.567   8.799 -0.2383  0.0203  0.0674
  333loPI   C5A 5323   2.546   4.382   8.377 -0.0209  0.1913 -0.0559
  333loPI   C6A 5324   2.710   4.586   8.074  0.1443  0.0020 -0.1497
  333loPI   C1B 5325   1.873   4.557   9.985  0.1612  0.2891  0.3073
  333loPI   C2B 5326   1.738   4.636   9.482  0.0461  0.0935  0.1230
  333loPI   C3B 5327   1.776   4.497   9.085 -0.2844  0.1030 -0.2205
  333loPI   C4B 5328   1.911   4.626   8.672 -0.0745  0.0302 -0.0589
  334loPI    C1 5329  11.669  12.152  11.430  0.2844  0.2960 -0.0415
  334loPI    C2 5330  11.967  11.910  11.542 -0.0693 -0.0446  0.1866
  334loPI    C3 5331  11.600  11.859  11.693 -0.2852  0.2616 -0.2168
  334loPI   PO4 5332  11.728  12.265  11.193  0.2636  0.0225 -0.0412
  334loPI   GL1 5333  11.702  12.138  10.810 -0.5862  0.0138 -0.1016
  334loPI   GL2 5334  11.894  12.420  10.572  0.3701  0.7352  0.0165
  334loPI   C1A 5335  11.584  12.038  10.392 -0.1763 -0.0155  0.0065
  334loPI   C2A 5336  11.620  11.996   9.969 -0.0430  0.0233 -0.0073
  334loPI   C3A 5337  11.598  11.872   9.556 -0.1613  0.3797  0.2071
  334loPI   C4A 5338  11.567  11.869   9.175  0.3089 -0.0675 -0.0510
  334loPI   C5A 5339  11.620  11.875   8.769 -0.1987 -0.0206 -0.0721
  334loPI   C6A 5340  11.998  11.767   8.519 -0.0961 -0.0684 -0.2302
  334loPI   C1B 5341  11.924  12.359  10.128  0.3149  0.1264 -0.0650
  334loPI   C2B 5342  11.768  12.362   9.714  0.2338  0.3184  0.1022
  334loPI   C3B 5343  11.849  12.254   9.246  0.0193  0.0676 -0.2445
  334loPI   C4B 5344  11.894  12.296   8.790 -0.1273  0.1750  0.0970
  335loPI    C1 5345   4.243  14.200  11.048 -0.2103  0.0036 -0.1708
  335loPI    C2 5346   4.145  14.579  11.131 -0.0287  0.0154 -0.0006
  335loPI    C3 5347   3.933  14.278  11.289  0.0107  0.0437  0.1065
  335loPI   PO4 5348   4.348  14.236  10.756 -0.0330  0.1627 -0.3390
  335loPI   GL1 5349   4.529  14.209  10.377  0.0275 -0.3379  0.1697
  335loPI   GL2 5350   4.338  14.448  10.261 -0.2396 -0.0667 -0.0376
  335loPI   C1A 5351   4.556  14.214   9.867 -0.3589  0.0812 -0.2498
  335loPI   C2A 5352   4.563  14.191   9.406  0.0670 -0.0340  0.1902
  335loPI   C3A 5353   4.533  14.244   8.961 -0.0585  0.1501  0.2694
  335loPI   C4A 5354   4.493  14.347   8.609 -0.1087  0.0900 -0.0345
  335loPI   C5A 5355   4.245  14.727   8.266  0.3283 -0.0743 -0.0009
  335loPI   C6A 5356   4.092  14.976   7.944  0.0048  0.1158  0.0902
  335loPI   C1B 5357   4.386  14.662   9.878  0.0157  0.1148 -0.0202
  335loPI   C2B 5358   4.341  14.663   9.484 -0.0220  0.2081 -0.0992
  335loPI   C3B 5359   4.400  14.752   9.076  0.1521 -0.0116 -0.1789
  335loPI   C4B 5360   4.336  14.809   8.693 -0.2016  0.2692 -0.1621
  336loPI    C1 5361   5.856   1.802  11.175  0.4625 -0.0473 -0.0631
  336loPI    C2 5362   6.027   2.137  11.310  0.3335 -0.0444  0.0972
  336loPI    C3 5363   6.066   1.797  11.516  0.3710 -0.1036 -0.0070
  336loPI   PO4 5364   5.716   1.872  10.878  0.1077  0.0121 -0.0815
  336loPI   GL1 5365   5.820   1.773  10.486  0.2022  0.4539 -0.3637
  336loPI   GL2 5366   5.784   2.171  10.354 -0.2648  0.1480 -0.0422
  336loPI   C1A 5367   5.882   1.795  10.076 -0.0846 -0.1242 -0.0637
  336loPI   C2A 5368   5.909   1.826   9.643  0.0182 -0.0549 -0.1340
  336loPI   C3A 5369   5.860   1.708   9.316 -0.1274 -0.0082 -0.1396
  336loPI   C4A 5370   5.852   1.775   8.835 -0.0178  0.1467 -0.1796
  336loPI   C5A 5371   5.547   1.638   8.592  0.0445  0.1493  0.0565
  336loPI   C6A 5372   5.383   1.429   8.213  0.2037 -0.0718  0.5078
  336loPI   C1B 5373   5.632   2.307  10.016  0.0462 -0.0728  0.0231
  336loPI   C2B 5374   5.731   2.289   9.604  0.3103  0.0304 -0.1266
  336loPI   C3B 5375   5.684   2.186   9.287  0.0284  0.0012  0.0557
  336loPI   C4B 5376   5.598   2.163   8.844  0.1702 -0.0917 -0.0593
  337loPI    C1 5377   0.494  11.834  10.506  0.1161 -0.0625  0.2092
  337loPI    C2 5378   0.190  12.021  10.687 -0.0941  0.0360 -0.2289
  337loPI    C3 5379   0.566  12.143  10.750 -0.1368 -0.0848  0.3157
  337loPI   PO4 5380   0.475  11.798  10.282  0.1445 -0.0080  0.0266
  337loPI   GL1 5381   0.272  12.070  10.010 -0.1090  0.1249 -0.1017
  337loPI   GL2 5382   0.539  12.136   9.833 -0.2544  0.3016 -0.0181
  337loPI   C1A 5383  -0.048  12.111   9.689 -0.3657  0.2313 -0.2314
  337loPI   C2A 5384  -0.083  12.167   9.291 -0.0212 -0.1689 -0.3304
  337loPI   C3A 5385  -0.019  12.346   8.877 -0.0732  0.0839  0.1200
  337loPI   C4A 5386  -0.025  12.339   8.457  0.1178 -0.1856 -0.1013
  337loPI   C5A 5387  -0.022  12.404   8.033 -0.1087  0.1296 -0.1055
  337loPI   C6A 5388   0.178  12.451   7.761 -0.0176  0.1187  0.0556
  337loPI   C1B 5389   0.432  12.246   9.454 -0.0078  0.0477 -0.1419
  337loPI   C2B 5390   0.503  12.262   8.976  0.3662  0.0822 -0.1731
  337loPI   C3B 5391   0.542  12.345   8.531  0.0327  0.0038  0.2878
  337loPI   C4B 5392   0.463  12.267   8.137 -0.0012 -0.0628  0.1086
  338loPI    C1 5393   7.323   9.217  11.132  0.3763 -0.2445  0.1161
  338loPI    C2 5394   7.134   9.062  11.449 -0.2112  0.0397 -0.0808
  338loPI    C3 5395   7.339   9.403  11.485  0.0660 -0.1399  0.0783
  338loPI   PO4 5396   7.084   9.226  10.979  0.2382  0.0909  0.2151
  338loPI   GL1 5397   7.172   9.007  10.596  0.1477 -0.1008 -0.0746
  338loPI   GL2 5398   7.022   9.317  10.433 -0.0884 -0.3945 -0.3544
  338loPI   C1A 5399   6.885   8.788  10.374 -0.0983 -0.0647  0.3583
  338loPI   C2A 5400   6.829   8.797   9.892 -0.3374  0.1839 -0.3309
  338loPI   C3A 5401   6.693   8.827   9.449 -0.0431 -0.2260 -0.1994
  338loPI   C4A 5402   6.693   8.727   9.007  0.0999 -0.1230  0.0045
  338loPI   C5A 5403   6.866   8.729   8.656 -0.0093  0.2188  0.0783
  338loPI   C6A 5404   7.242   8.573   8.392  0.0413  0.0895  0.1567
  338loPI   C1B 5405   7.103   9.148  10.065 -0.0442 -0.0832 -0.2817
  338loPI   C2B 5406   7.091   9.117   9.667  0.0208 -0.1603 -0.0625
  338loPI   C3B 5407   7.006   9.162   9.298  0.1094 -0.3492  0.0409
  338loPI   C4B 5408   6.955   9.188   8.851 -0.0184  0.0818  0.3200
  339loPI    C1 5409  17.308  11.825  10.914  0.0080 -0.2640  0.1660
  339loPI    C2 5410  17.674  11.673  10.860  0.2508  0.1864  0.4873
  339loPI    C3 5411  17.518  11.693  11.228 -0.0137  0.1859  0.3769
  339loPI   PO4 5412  17.317  11.953  10.606 -0.1367  0.3555  0.3356
  339loPI   GL1 5413  17.173  11.773  10.242  0.2133 -0.1322  0.1870
  339loPI   GL2 5414  16.997  12.032  10.156  0.2585 -0.0020  0.1570
  339loPI   C1A 5415  17.398  11.778   9.806  0.0437  0.1292 -0.3724
  339loPI   C2A 5416  17.489  11.793   9.369  0.3389 -0.2678 -0.2641
  339loPI   C3A 5417  17.626  11.851   8.980  0.0302 -0.0243 -0.0999
  339loPI   C4A 5418  17.565  11.894   8.532  0.2141 -0.1148  0.0324
  339loPI   C5A 5419  17.645  11.908   8.112 -0.0027 -0.2662  0.2612
  339loPI   C6A 5420  17.978  11.985   7.878  0.1139  0.1571 -0.0158
  339loPI   C1B 5421  16.933  11.875   9.663 -0.0705 -0.0055  0.0589
  339loPI   C2B 5422  16.965  11.869   9.193  0.0560  0.0816 -0.0036
  339loPI   C3B 5423  17.127  11.909   8.758 -0.0699  0.1156  0.2469
  339loPI   C4B 5424  17.107  11.914   8.318  0.0432  0.0261 -0.1693
  340loPI    C1 5425   8.355   0.372  10.644  0.1603 -0.1353 -0.0600
  340loPI    C2 5426   8.229   0.130  10.937 -0.0086 -0.1027 -0.1047
  340loPI    C3 5427   8.198   0.527  10.978  0.0704 -0.0949 -0.1206
  340loPI   PO4 5428   8.573   0.169  10.526 -0.0136  0.1073 -0.2558
  340loPI   GL1 5429   8.777  -0.024  10.199  0.0671  0.4676 -0.2329
  340loPI   GL2 5430   8.809  -0.375  10.119 -0.0460 -0.1760  0.2519
  340loPI   C1A 5431   8.768   0.260   9.918  0.1409 -0.3193 -0.0358
  340loPI   C2A 5432   8.689   0.244   9.478  0.1173  0.0839  0.2475
  340loPI   C3A 5433   8.737   0.313   9.010  0.1520 -0.0534 -0.0766
  340loPI   C4A 5434   8.602   0.302   8.639  0.1622  0.3423  0.0704
  340loPI   C5A 5435   8.538   0.550   8.321  0.2074 -0.1263 -0.1749
  340loPI   C6A 5436   8.631   0.547   7.909 -0.2406  0.5152 -0.2196
  340loPI   C1B 5437   8.680  -0.286   9.769  0.1012 -0.2042  0.1247
  340loPI   C2B 5438   8.905  -0.286   9.402  0.1336  0.0264 -0.0546
  340loPI   C3B 5439   8.926  -0.235   8.943  0.1506  0.0061  0.1538
  340loPI   C4B 5440   8.873  -0.123   8.537  0.0882 -0.1105  0.1937
  341loPI    C1 5441   7.164   9.727  11.058  0.0572  0.0256  0.0460
  341loPI    C2 5442   6.872   9.620  11.310 -0.1092  0.0109 -0.1504
  341loPI    C3 5443   7.122   9.917  11.408 -0.0271 -0.1468  0.1306
  341loPI   PO4 5444   7.064   9.725  10.769 -0.1351 -0.1197 -0.2120
  341loPI   GL1 5445   7.198   9.816  10.398  0.0723 -0.0577  0.0709
  341loPI   GL2 5446   7.092  10.110  10.362  0.0508  0.0389  0.1679
  341loPI   C1A 5447   7.342   9.602  10.048  0.0516  0.1479  0.1548
  341loPI   C2A 5448   7.296   9.539   9.576  0.0528 -0.2718  0.0434
  341loPI   C3A 5449   7.349   9.547   9.199 -0.2159  0.0570  0.1853
  341loPI   C4A 5450   7.267   9.625   8.665 -0.1184 -0.0217  0.0970
  341loPI   C5A 5451   7.337   9.508   8.296  0.1678 -0.2676  0.0349
  341loPI   C6A 5452   7.509   9.571   7.852 -0.1068  0.2304 -0.0891
  341loPI   C1B 5453   7.100  10.020   9.938 -0.0544  0.0859 -0.3734
  341loPI   C2B 5454   7.062  10.007   9.474 -0.2438  0.0377  0.2168
  341loPI   C3B 5455   7.118  10.018   9.040  0.0018  0.0247 -0.1822
  341loPI   C4B 5456   6.998  10.071   8.577 -0.0698 -0.2743  0.0585
  342loPI    C1 5457   2.811   1.443  11.062 -0.1705 -0.1145  0.1102
  342loPI    C2 5458   3.196   1.388  10.969 -0.1569  0.1019  0.0328
  342loPI    C3 5459   3.067   1.312  11.340 -0.0078  0.1744  0.1006
  342loPI   PO4 5460   2.669   1.366  10.885 -0.0878 -0.0076  0.2002
  342loPI   GL1 5461   2.575   1.316  10.518  0.3464  0.1058  0.2245
  342loPI   GL2 5462   2.277   1.521  10.638  0.1945 -0.2693 -0.1221
  342loPI   C1A 5463   2.478   1.504  10.081  0.2283  0.2864  0.2404
  342loPI   C2A 5464   2.470   1.541   9.700  0.0769 -0.1906  0.1630
  342loPI   C3A 5465   2.519   1.393   9.254 -0.0025 -0.0754  0.3456
  342loPI   C4A 5466   2.454   1.476   8.851  0.0032  0.0848 -0.0818
  342loPI   C5A 5467   2.438   1.403   8.393  0.1938  0.0783  0.1878
  342loPI   C6A 5468   2.717   1.143   8.157 -0.0220 -0.3231 -0.1526
  342loPI   C1B 5469   1.987   1.503  10.276 -0.0552  0.3125 -0.0630
  342loPI   C2B 5470   1.935   1.584   9.831 -0.0522 -0.0045 -0.3445
  342loPI   C3B 5471   1.996   1.525   9.435 -0.0380 -0.1918  0.0862
  342loPI   C4B 5472   1.970   1.435   8.978 -0.0116 -0.3303 -0.4192
  343loPI    C1 5473  11.763  15.623  10.992 -0.1531 -0.0127  0.2017
  343loPI    C2 5474  11.430  15.756  11.168 -0.3129 -0.1160 -0.0182
  343loPI    C3 5475  11.644  15.466  11.340 -0.2279  0.0840  0.2203
  343loPI   PO4 5476  11.728  15.604  10.752  0.1220 -0.0999  0.2364
  343loPI   GL1 5477  11.816  15.580  10.262  0.1296 -0.0556  0.2719
  343loPI   GL2 5478  11.634  15.695   9.938 -0.3820  0.0849 -0.1773
  343loPI   C1A 5479  11.961  15.323   9.968 -0.2348  0.1590  0.0323
  343loPI   C2A 5480  12.091  15.303   9.564  0.3259  0.0061 -0.1592
  343loPI   C3A 5481  12.186  15.313   9.160 -0.2071  0.2841  0.0361
  343loPI   C4A 5482  12.409  15.284   8.751  0.0043  0.0511 -0.0386
  343loPI   C5A 5483  12.518  15.210   8.391 -0.2702  0.0130 -0.0663
  343loPI   C6A 5484  12.614  14.816   8.249  0.0645  0.2085  0.0524
  343loPI   C1B 5485  11.735  15.693   9.516  0.2447 -0.1264  0.2153
  343loPI   C2B 5486  11.860  15.765   9.069  0.2191  0.0804  0.0138
  343loPI   C3B 5487  12.090  15.695   8.655 -0.1184 -0.1554  0.1126
  343loPI   C4B 5488  12.270  15.644   8.206  0.1612 -0.0846  0.0717
  344loPI    C1 5489   8.316   2.075  11.119 -0.0482 -0.1138  0.0497
  344loPI    C2 5490   8.013   1.837  11.012  0.0849 -0.1883 -0.1674
  344loPI    C3 5491   8.265   1.723  11.301 -0.2209 -0.0275  0.1715
  344loPI   PO4 5492   8.372   2.205  10.817  0.1331 -0.2281 -0.0709
  344loPI   GL1 5493   8.162   2.336  10.462  0.2909 -0.0787  0.7629
  344loPI   GL2 5494   8.021   2.504  10.480 -0.1084 -0.2085  0.0890
  344loPI   C1A 5495   8.285   2.122  10.042 -0.3157  0.2429  0.0009
  344loPI   C2A 5496   8.331   2.165   9.559 -0.3863  0.3532  0.0669
  344loPI   C3A 5497   8.292   2.078   9.078  0.0177  0.0778 -0.0167
  344loPI   C4A 5498   8.273   2.060   8.674  0.4762 -0.2625  0.1136
  344loPI   C5A 5499   8.158   2.284   8.324 -0.1751 -0.2173 -0.0402
  344loPI   C6A 5500   8.301   2.674   8.364  0.0412  0.0038 -0.0104
  344loPI   C1B 5501   7.953   2.656  10.080 -0.0128  0.0285 -0.0654
  344loPI   C2B 5502   8.024   2.589   9.673 -0.2080 -0.1292  0.0427
  344loPI   C3B 5503   8.005   2.594   9.203  0.0727  0.0229  0.2789
  344loPI   C4B 5504   8.018   2.525   8.809  0.0038  0.0588 -0.0153
  345loPI    C1 5505   0.685   3.082  11.220  0.0109 -0.0605  0.1841
  345loPI    C2 5506   0.906   2.770  11.337  0.0873 -0.0369  0.1035
  345loPI    C3 5507   0.970   3.132  11.496  0.0413 -0.0493  0.1507
  345loPI   PO4 5508   0.687   2.985  10.891 -0.0229  0.1338 -0.0560
  345loPI   GL1 5509   0.617   3.055  10.461  0.0143 -0.0417  0.3236
  345loPI   GL2 5510   0.572   3.382  10.489  0.4090 -0.0154  0.4115
  345loPI   C1A 5511   0.742   2.861  10.059 -0.0234 -0.1287  0.0493
  345loPI   C2A 5512   0.732   2.829   9.548  0.0456 -0.2675  0.0063
  345loPI   C3A 5513   0.612   2.949   9.260  0.3030 -0.2015 -0.0261
  345loPI   C4A 5514   0.438   2.929   8.926  0.1822  0.2275  0.3726
  345loPI   C5A 5515   0.280   2.916   8.372  0.1862  0.3477  0.4049
  345loPI   C6A 5516  -0.105   2.835   8.201  0.2002 -0.0092 -0.0233
  345loPI   C1B 5517   0.534   3.327   9.938  0.2628  0.2043 -0.0105
  345loPI   C2B 5518   0.423   3.337   9.501 -0.1267  0.1138  0.0232
  345loPI   C3B 5519   0.315   3.357   9.084  0.1263  0.0577  0.2127
  345loPI   C4B 5520   0.242   3.385   8.637 -0.0423  0.2613  0.4226
  346loPI    C1 5521   5.333  10.638  10.942 -0.2867 -0.1277 -0.0061
  346loPI    C2 5522   5.086  10.540  11.241 -0.3944 -0.2113 -0.1214
  346loPI    C3 5523   5.092  10.915  11.100 -0.0030 -0.0498  0.3005
  346loPI   PO4 5524   5.287  10.430  10.792 -0.2963  0.0657 -0.1408
  346loPI   GL1 5525   5.354  10.384  10.418  0.0564  0.2521 -0.1645
  346loPI   GL2 5526   5.393  10.688  10.374 -0.3210 -0.2651  0.0055
  346loPI   C1A 5527   5.517  10.167   9.980 -0.0279  0.1788  0.3717
  346loPI   C2A 5528   5.585  10.194   9.641  0.1015 -0.0886 -0.1757
  346loPI   C3A 5529   5.521  10.152   9.261 -0.0060 -0.3657  0.1648
  346loPI   C4A 5530   5.545  10.109   8.851  0.0842 -0.0009  0.2319
  346loPI   C5A 5531   5.507  10.142   8.434  0.0422  0.1248 -0.0364
  346loPI   C6A 5532   5.608   9.911   8.088 -0.1184 -0.1160  0.1207
  346loPI   C1B 5533   5.346  10.652   9.913 -0.0394 -0.1201 -0.0190
  346loPI   C2B 5534   5.397  10.607   9.464 -0.2844  0.0370  0.0034
  346loPI   C3B 5535   5.381  10.580   9.131  0.0604 -0.1906  0.0326
  346loPI   C4B 5536   5.309  10.641   8.670  0.1010 -0.2902 -0.3939
  347loPI    C1 5537   3.724   5.189  11.509  0.0752  0.3007 -0.1227
  347loPI    C2 5538   3.795   5.582  11.521  0.1747  0.2824 -0.1085
  347loPI    C3 5539   4.001   5.334  11.759 -0.0667  0.2479  0.0682
  347loPI   PO4 5540   3.768   5.125  11.219 -0.1158  0.0122  0.3443
  347loPI   GL1 5541   3.577   5.046  10.895  0.0345  0.0998  0.0226
  347loPI   GL2 5542   3.329   4.974  10.797  0.0484  0.4289  0.1064
  347loPI   C1A 5543   3.723   5.230  10.557  0.0284 -0.0466 -0.1830
  347loPI   C2A 5544   4.026   5.362  10.266  0.0798 -0.2988  0.2211
  347loPI   C3A 5545   3.907   5.333   9.775  0.1748 -0.0602  0.1129
  347loPI   C4A 5546   3.994   5.297   9.338 -0.0756  0.3818  0.2062
  347loPI   C5A 5547   3.916   5.404   8.896 -0.0995  0.1292 -0.0134
  347loPI   C6A 5548   3.870   5.332   8.510  0.0300 -0.0499 -0.0013
  347loPI   C1B 5549   3.161   4.975  10.351  0.0997 -0.1611 -0.0524
  347loPI   C2B 5550   3.175   4.923   9.953  0.1737  0.1018  0.1840
  347loPI   C3B 5551   3.135   4.906   9.550 -0.1060  0.2261  0.2668
  347loPI   C4B 5552   3.215   4.988   9.052  0.0185  0.1576 -0.2168
  348loPI    C1 5553   7.401  10.645  10.910 -0.3136  0.0015  0.0261
  348loPI    C2 5554   7.705  10.753  11.147 -0.1449 -0.1415 -0.1230
  348loPI    C3 5555   7.328  10.788  11.277 -0.0549 -0.2170  0.1663
  348loPI   PO4 5556   7.391  10.744  10.699  0.2398 -0.0481 -0.0998
  348loPI   GL1 5557   7.501  10.446  10.398  0.1800 -0.0995  0.0892
  348loPI   GL2 5558   7.355  10.491  10.116  0.1333 -0.0334  0.0951
  348loPI   C1A 5559   7.574  10.063  10.098 -0.1445 -0.0736 -0.0320
  348loPI   C2A 5560   7.548   9.976   9.590 -0.1869  0.3084 -0.0358
  348loPI   C3A 5561   7.657   9.960   9.168  0.0410 -0.1498 -0.0794
  348loPI   C4A 5562   7.611   9.987   8.776  0.0776  0.0442  0.1298
  348loPI   C5A 5563   7.415  10.020   8.330 -0.2435 -0.2160  0.0902
  348loPI   C6A 5564   7.591  10.090   7.942 -0.0792  0.2806 -0.3011
  348loPI   C1B 5565   7.359  10.444   9.696  0.0089  0.2950 -0.0681
  348loPI   C2B 5566   7.313  10.390   9.286 -0.1149  0.0345  0.0105
  348loPI   C3B 5567   7.280  10.464   8.898 -0.0748 -0.1388  0.0569
  348loPI   C4B 5568   7.348  10.464   8.530 -0.0732 -0.0120  0.2339
  349loPI    C1 5569   5.653  11.871  10.793  0.0800  0.0649 -0.0668
  349loPI    C2 5570   5.717  11.589  11.070 -0.0651  0.0370 -0.0607
  349loPI    C3 5571   5.859  11.958  11.124 -0.1978  0.0642  0.1099
  349loPI   PO4 5572   5.747  11.785  10.607  0.1079 -0.3309  0.0248
  349loPI   GL1 5573   5.769  11.956  10.167  0.4396  0.1909 -0.0667
  349loPI   GL2 5574   5.488  11.893  10.012  0.0311  0.0806 -0.2275
  349loPI   C1A 5575   6.081  11.920   9.839  0.1070 -0.5951  0.0146
  349loPI   C2A 5576   6.141  11.885   9.344 -0.1440 -0.1895 -0.2303
  349loPI   C3A 5577   6.072  11.893   8.909  0.2872  0.4017 -0.0367
  349loPI   C4A 5578   6.044  11.889   8.488 -0.0659  0.1493 -0.0556
  349loPI   C5A 5579   6.391  11.905   8.273 -0.2655  0.0184 -0.1099
  349loPI   C6A 5580   6.671  11.562   8.131 -0.0548 -0.1407  0.4157
  349loPI   C1B 5581   5.645  11.858   9.539  0.0577 -0.0850 -0.1931
  349loPI   C2B 5582   5.634  11.949   9.051  0.0886 -0.1118 -0.0888
  349loPI   C3B 5583   5.530  11.989   8.687  0.0313 -0.0846 -0.0919
  349loPI   C4B 5584   5.547  11.886   8.297 -0.1279  0.3242  0.1489
  350loPI    C1 5585   8.663  16.129  10.801 -0.3515  0.0052  0.0890
  350loPI    C2 5586   8.499  16.491  10.755  0.1282  0.2331  0.1072
  350loPI    C3 5587   8.605  16.363  11.119  0.2124  0.1892  0.0675
  350loPI   PO4 5588   8.755  16.091  10.450 -0.1996  0.0689  0.0431
  350loPI   GL1 5589   8.653  16.333  10.020  0.1752  0.0814  0.0925
  350loPI   GL2 5590   8.419  16.438   9.945  0.1733 -0.2316  0.0803
  350loPI   C1A 5591   8.644  16.273   9.553 -0.0610  0.2254  0.2504
  350loPI   C2A 5592   8.639  16.180   9.078 -0.0727  0.0518 -0.1563
  350loPI   C3A 5593   8.676  16.274   8.675  0.0842 -0.1996 -0.0583
  350loPI   C4A 5594   8.605  16.034   8.349 -0.0549  0.3217  0.0664
  350loPI   C5A 5595   8.399  15.695   8.102  0.2595 -0.1150 -0.0398
  350loPI   C6A 5596   8.418  15.284   8.254  0.0601  0.1234 -0.0896
  350loPI   C1B 5597   8.365  16.706   9.590  0.0074 -0.3741 -0.0026
  350loPI   C2B 5598   8.439  16.639   9.161 -0.0341 -0.2155 -0.1925
  350loPI   C3B 5599   8.452  16.704   8.742 -0.0850 -0.0943 -0.2188
  350loPI   C4B 5600   8.441  16.804   8.292 -0.1806  0.1593 -0.1569
  351loPI    C1 5601   8.593   2.432  11.309  0.0731 -0.3402  0.0641
  351loPI    C2 5602   8.247   2.621  11.379  0.1169 -0.2228 -0.0323
  351loPI    C3 5603   8.538   2.626  11.654  0.1156 -0.1547 -0.0318
  351loPI   PO4 5604   8.677   2.552  11.061  0.1532 -0.0271  0.0645
  351loPI   GL1 5605   8.687   2.704  10.643  0.0188 -0.1713 -0.0059
  351loPI   GL2 5606   8.543   2.587  10.376 -0.2589 -0.1147  0.1665
  351loPI   C1A 5607   8.802   3.020  10.287  0.0537 -0.1216 -0.2387
  351loPI   C2A 5608   8.805   3.027   9.867 -0.2899 -0.0367 -0.2625
  351loPI   C3A 5609   8.876   3.017   9.367  0.2926 -0.3521  0.1067
  351loPI   C4A 5610   8.861   3.100   8.953  0.0840 -0.0335  0.1294
  351loPI   C5A 5611   8.727   2.977   8.449  0.0032 -0.3382  0.2053
  351loPI   C6A 5612   8.338   3.144   8.194 -0.2296 -0.0978  0.2251
  351loPI   C1B 5613   8.467   2.553  10.065  0.1875  0.0536  0.1315
  351loPI   C2B 5614   8.599   2.622   9.620  0.1459 -0.1583 -0.4546
  351loPI   C3B 5615   8.537   2.550   9.221  0.1055 -0.2493 -0.3219
  351loPI   C4B 5616   8.581   2.545   8.777  0.0466 -0.0609 -0.0403
  352loPI    C1 5617  11.731   7.226  11.289 -0.2379  0.0452  0.0076
  352loPI    C2 5618  12.069   7.131  11.482 -0.1945 -0.0359 -0.1074
  352loPI    C3 5619  11.963   7.515  11.440 -0.1993 -0.0174  0.0689
  352loPI   PO4 5620  11.785   7.165  11.036  0.2835 -0.2686 -0.2209
  352loPI   GL1 5621  11.643   7.312  10.634  0.0623  0.1422  0.1201
  352loPI   GL2 5622  11.560   7.560  10.545 -0.0567 -0.2428  0.0177
  352loPI   C1A 5623  11.404   7.031  10.288 -0.0574 -0.1712 -0.3194
  352loPI   C2A 5624  11.419   6.935   9.873  0.0011  0.0607 -0.0746
  352loPI   C3A 5625  11.395   6.913   9.536  0.1140  0.1484  0.1087
  352loPI   C4A 5626  11.474   6.827   9.140  0.1055  0.1151  0.1494
  352loPI   C5A 5627  11.488   6.880   8.741 -0.1584  0.2764  0.0988
  352loPI   C6A 5628  11.473   7.136   8.371  0.3604 -0.1883 -0.3288
  352loPI   C1B 5629  11.661   7.419  10.086  0.0152  0.0923 -0.2174
  352loPI   C2B 5630  11.620   7.406   9.690 -0.0987  0.2132 -0.0229
  352loPI   C3B 5631  11.670   7.280   9.270 -0.2339  0.0362 -0.3449
  352loPI   C4B 5632  11.715   7.382   8.784 -0.2218 -0.1194  0.2602
  353loPI    C1 5633  12.551   8.933  11.174 -0.2280 -0.2428  0.1315
  353loPI    C2 5634  12.922   8.817  11.269 -0.0830  0.1256  0.0333
  353loPI    C3 5635  12.740   9.101  11.484 -0.1881  0.1649 -0.1060
  353loPI   PO4 5636  12.407   9.066  10.880 -0.1553 -0.0578 -0.2084
  353loPI   GL1 5637  12.454   9.314  10.516  0.0922 -0.0436 -0.2347
  353loPI   GL2 5638  12.239   9.708  10.442 -0.0023 -0.0591 -0.0573
  353loPI   C1A 5639  12.364   9.117  10.106 -0.0222 -0.1178  0.3441
  353loPI   C2A 5640  12.407   9.150   9.671  0.1496 -0.2879  0.2749
  353loPI   C3A 5641  12.358   9.087   9.265 -0.1105  0.0273 -0.1295
  353loPI   C4A 5642  12.277   9.037   8.883  0.3042 -0.1209  0.3312
  353loPI   C5A 5643  12.277   9.169   8.448  0.3787  0.5216 -0.1133
  353loPI   C6A 5644  12.561   9.322   8.181 -0.0921 -0.2535  0.0060
  353loPI   C1B 5645  12.135   9.533  10.032 -0.0656  0.0842 -0.1193
  353loPI   C2B 5646  12.157   9.588   9.616  0.0193 -0.1870  0.1383
  353loPI   C3B 5647  12.102   9.598   9.158 -0.0942 -0.0239 -0.0232
  353loPI   C4B 5648  12.103   9.563   8.692 -0.0703 -0.0721 -0.2060
  354loPI    C1 5649  11.044  14.941  10.763  0.0690  0.0146 -0.1173
  354loPI    C2 5650  10.736  15.195  10.788  0.0164 -0.0570 -0.0296
  354loPI    C3 5651  10.859  14.998  11.114  0.2352  0.0650 -0.0367
  354loPI   PO4 5652  11.195  15.026  10.512 -0.2168 -0.1290 -0.0540
  354loPI   GL1 5653  11.294  14.859  10.188  0.1839 -0.1258 -0.3887
  354loPI   GL2 5654  11.450  15.200  10.101  0.3486  0.1365  0.1140
  354loPI   C1A 5655  11.453  14.636   9.792 -0.3845 -0.0196  0.0183
  354loPI   C2A 5656  11.464  14.660   9.364  0.0421  0.3683 -0.3265
  354loPI   C3A 5657  11.574  14.753   9.025  0.0812 -0.1538 -0.1255
  354loPI   C4A 5658  11.354  14.412   8.754  0.0345 -0.1953 -0.1762
  354loPI   C5A 5659  11.211  14.413   8.376 -0.0706  0.3752  0.0242
  354loPI   C6A 5660  11.177  14.804   8.266  0.1202 -0.1098  0.2832
  354loPI   C1B 5661  11.567  15.204   9.657  0.0838 -0.1917 -0.0131
  354loPI   C2B 5662  11.708  15.241   9.203  0.2512  0.1339  0.0559
  354loPI   C3B 5663  11.834  15.231   8.748  0.1963 -0.1140  0.0187
  354loPI   C4B 5664  11.932  15.265   8.377 -0.0694  0.0745 -0.2803
  355loPI    C1 5665  14.968   6.915  11.370  0.1855 -0.1956  0.0614
  355loPI    C2 5666  15.348   6.845  11.472  0.1771  0.0796  0.2958
  355loPI    C3 5667  15.226   7.219  11.399 -0.0224 -0.0204  0.1053
  355loPI   PO4 5668  14.876   6.770  11.227  0.0588 -0.0631 -0.2942
  355loPI   GL1 5669  14.945   6.574  10.905  0.0407  0.2046 -0.0034
  355loPI   GL2 5670  14.984   6.812  10.603 -0.0391 -0.3348  0.1354
  355loPI   C1A 5671  14.878   6.354  10.456  0.1477  0.0674 -0.2923
  355loPI   C2A 5672  14.808   6.228  10.027 -0.2353  0.0416 -0.2531
  355loPI   C3A 5673  14.859   6.101   9.613  0.1054 -0.2771 -0.1253
  355loPI   C4A 5674  14.905   6.195   9.188 -0.0147 -0.0225 -0.1328
  355loPI   C5A 5675  14.657   6.197   8.739 -0.1904 -0.3026 -0.0155
  355loPI   C6A 5676  14.593   6.079   8.297  0.1255  0.1641 -0.1186
  355loPI   C1B 5677  15.039   6.734  10.166  0.1099 -0.0531 -0.0258
  355loPI   C2B 5678  15.115   6.540   9.722  0.0514  0.0608 -0.5035
  355loPI   C3B 5679  15.169   6.625   9.340 -0.0099  0.0434  0.2044
  355loPI   C4B 5680  15.055   6.543   8.829 -0.1729  0.2185  0.0599
  356loPI    C1 5681   1.569  13.108  10.460  0.0315  0.0494  0.1591
  356loPI    C2 5682   1.335  13.357  10.667 -0.1911 -0.0641  0.0468
  356loPI    C3 5683   1.506  13.045  10.850 -0.1115  0.0298  0.1332
  356loPI   PO4 5684   1.535  13.192  10.206  0.0779  0.1000 -0.3703
  356loPI   GL1 5685   1.390  13.176   9.847  0.1504  0.2239 -0.1461
  356loPI   GL2 5686   1.601  13.080   9.716 -0.0196  0.0704  0.1028
  356loPI   C1A 5687   1.423  13.494   9.568  0.1217  0.1583  0.1322
  356loPI   C2A 5688   1.340  13.607   9.135  0.0895  0.0600 -0.1806
  356loPI   C3A 5689   1.381  13.594   8.707  0.3310 -0.0282 -0.1890
  356loPI   C4A 5690   1.349  13.665   8.273  0.1718 -0.0685  0.0526
  356loPI   C5A 5691   0.919  13.670   8.034  0.0870  0.0554  0.1265
  356loPI   C6A 5692   0.580  13.761   7.733 -0.0489 -0.0534  0.1435
  356loPI   C1B 5693   1.786  13.104   9.336 -0.0262 -0.0176 -0.0058
  356loPI   C2B 5694   1.788  13.105   8.840 -0.3678  0.2696 -0.3756
  356loPI   C3B 5695   1.607  13.188   8.460  0.1786  0.0226 -0.1217
  356loPI   C4B 5696   1.646  13.264   8.038  0.1972  0.3179 -0.1839
  357loPI    C1 5697  14.120   6.316  11.374  0.1959 -0.0084  0.0424
  357loPI    C2 5698  14.408   6.042  11.331  0.2532  0.0387  0.1240
  357loPI    C3 5699  14.495   6.402  11.482  0.1677  0.0832  0.0680
  357loPI   PO4 5700  13.989   6.423  11.170  0.1598  0.1144 -0.2520
  357loPI   GL1 5701  13.972   6.470  10.703 -0.1504  0.1936 -0.1203
  357loPI   GL2 5702  13.856   6.223  10.620 -0.1293  0.1040 -0.0200
  357loPI   C1A 5703  14.078   6.664  10.318 -0.0393  0.0865  0.0935
  357loPI   C2A 5704  14.091   6.590   9.815  0.0730 -0.2449  0.0144
  357loPI   C3A 5705  14.164   6.656   9.377  0.2153 -0.2658  0.2750
  357loPI   C4A 5706  13.954   6.686   8.937 -0.2042 -0.2842  0.2063
  357loPI   C5A 5707  13.716   6.662   8.610  0.0147 -0.1534 -0.1938
  357loPI   C6A 5708  13.545   6.882   8.326 -0.2632 -0.2976 -0.0112
  357loPI   C1B 5709  13.808   6.294  10.183 -0.0255 -0.2216 -0.2773
  357loPI   C2B 5710  13.846   6.136   9.811 -0.0358 -0.1268 -0.0793
  357loPI   C3B 5711  13.792   6.315   9.343 -0.2170  0.1306 -0.1731
  357loPI   C4B 5712  13.705   6.264   8.917 -0.0763 -0.0271 -0.0301
  358loPI    C1 5713   0.290  14.752  10.796 -0.1213  0.0948  0.2948
  358loPI    C2 5714  -0.063  14.582  10.877 -0.2096  0.1240 -0.0142
  358loPI    C3 5715   0.020  14.947  11.018 -0.1930  0.0084  0.2843
  358loPI   PO4 5716   0.289  14.634  10.536 -0.0409  0.1066 -0.1237
  358loPI   GL1 5717   0.380  14.727  10.163  0.0046  0.0916  0.0856
  358loPI   GL2 5718   0.154  14.508  10.064  0.0020 -0.0627 -0.0890
  358loPI   C1A 5719   0.140  14.971   9.797  0.2146  0.0133 -0.0478
  358loPI   C2A 5720   0.188  14.921   9.353  0.1063 -0.0536  0.0891
  358loPI   C3A 5721   0.181  15.010   8.978 -0.2860 -0.0712 -0.1031
  358loPI   C4A 5722   0.172  15.034   8.577 -0.0916 -0.3292 -0.0298
  358loPI   C5A 5723   0.168  15.195   8.144  0.1429  0.0011 -0.1623
  358loPI   C6A 5724   0.220  15.315   7.668  0.0795  0.0033 -0.1585
  358loPI   C1B 5725  -0.080  14.563   9.617  0.1960 -0.0056 -0.0890
  358loPI   C2B 5726  -0.093  14.460   9.177  0.0012  0.2997  0.1412
  358loPI   C3B 5727  -0.063  14.594   8.782  0.1056  0.0234 -0.1036
  358loPI   C4B 5728  -0.069  14.655   8.370 -0.2535 -0.0109  0.2788
  359loPI    C1 5729   4.399   9.665  10.825 -0.0834 -0.2394 -0.0227
  359loPI    C2 5730   4.018   9.625  10.712 -0.0864  0.1599 -0.1704
  359loPI    C3 5731   4.106   9.811  11.055 -0.0322 -0.1730  0.0007
  359loPI   PO4 5732   4.511   9.705  10.557 -0.1095  0.0786 -0.2675
  359loPI   GL1 5733   4.626   9.508  10.279  0.1669  0.1008  0.2633
  359loPI   GL2 5734   4.803   9.797  10.124 -0.0315 -0.0483 -0.3502
  359loPI   C1A 5735   4.518   9.473   9.881  0.0634  0.0714  0.1531
  359loPI   C2A 5736   4.367   9.350   9.538 -0.0010 -0.3515 -0.2633
  359loPI   C3A 5737   4.388   9.310   9.134 -0.5106 -0.0319  0.1217
  359loPI   C4A 5738   4.478   9.384   8.623  0.1180  0.0845 -0.0132
  359loPI   C5A 5739   4.270   9.105   8.305 -0.2660 -0.3176  0.0880
  359loPI   C6A 5740   3.822   8.992   8.261 -0.0015  0.0701 -0.0354
  359loPI   C1B 5741   4.778   9.853   9.671  0.0095  0.0304 -0.2198
  359loPI   C2B 5742   4.777   9.682   9.311  0.3685 -0.0227  0.0913
  359loPI   C3B 5743   4.731   9.739   8.916  0.0572  0.0891 -0.1650
  359loPI   C4B 5744   4.790   9.804   8.572  0.0804  0.2439  0.1085
  360loPI    C1 5745   6.140   9.423  10.958  0.0611  0.2483 -0.1007
  360loPI    C2 5746   5.834   9.266  11.162  0.1472 -0.0314 -0.1826
  360loPI    C3 5747   5.893   9.662  11.164  0.0408 -0.0131  0.1844
  360loPI   PO4 5748   6.147   9.346  10.705 -0.0059  0.0595 -0.0289
  360loPI   GL1 5749   5.868   9.280  10.343  0.0904 -0.0262 -0.2951
  360loPI   GL2 5750   5.880   9.016  10.248  0.0951 -0.1359 -0.3530
  360loPI   C1A 5751   5.947   9.315   9.891  0.1256 -0.0015 -0.0189
  360loPI   C2A 5752   5.953   9.243   9.406  0.1228 -0.1115  0.2868
  360loPI   C3A 5753   5.979   9.189   9.050  0.1010  0.0201  0.0247
  360loPI   C4A 5754   5.946   9.162   8.603 -0.0994  0.0909 -0.1817
  360loPI   C5A 5755   5.948   9.060   8.134 -0.0328  0.0384 -0.0121
  360loPI   C6A 5756   5.919   9.109   7.627  0.0867 -0.2262 -0.0033
  360loPI   C1B 5757   5.722   8.830   9.827  0.1143 -0.0561  0.2352
  360loPI   C2B 5758   5.679   8.820   9.326  0.1139 -0.0713 -0.2050
  360loPI   C3B 5759   5.775   8.790   8.887  0.0781 -0.0152  0.0773
  360loPI   C4B 5760   5.556   8.831   8.558  0.1496  0.3019  0.2663
  361loPI    C1 5761   0.029  12.988  10.906  0.0551 -0.2267  0.2320
  361loPI    C2 5762   0.386  13.167  10.925 -0.0200 -0.0586  0.0885
  361loPI    C3 5763   0.236  12.985  11.248  0.1324 -0.0083  0.1886
  361loPI   PO4 5764  -0.127  13.168  10.711  0.0155 -0.0686  0.2885
  361loPI   GL1 5765  -0.209  13.102  10.275 -0.1015  0.1013  0.0354
  361loPI   GL2 5766  -0.359  12.960  10.170 -0.0961 -0.1362 -0.0553
  361loPI   C1A 5767  -0.047  13.064   9.793  0.0766  0.2107 -0.1037
  361loPI   C2A 5768   0.026  13.123   9.417 -0.1617 -0.1679  0.0997
  361loPI   C3A 5769   0.054  13.097   9.002 -0.0960  0.1163 -0.2462
  361loPI   C4A 5770   0.106  13.290   8.645 -0.2895  0.1389  0.1324
  361loPI   C5A 5771   0.142  13.237   8.205  0.3604 -0.2054  0.1388
  361loPI   C6A 5772   0.077  13.439   7.869  0.2267  0.1618 -0.0420
  361loPI   C1B 5773  -0.528  13.124   9.795 -0.1738  0.0508  0.0748
  361loPI   C2B 5774  -0.448  13.213   9.393 -0.0422  0.0369 -0.1926
  361loPI   C3B 5775  -0.435  13.186   8.934 -0.0104 -0.2078 -0.2003
  361loPI   C4B 5776  -0.448  13.254   8.489 -0.0332  0.0470 -0.1984
  362loPI    C1 5777   7.966   5.577  11.396  0.1730 -0.0249 -0.0252
  362loPI    C2 5778   7.819   5.216  11.486 -0.2241  0.1584  0.0850
  362loPI    C3 5779   7.886   5.482  11.776 -0.0459  0.2173 -0.0084
  362loPI   PO4 5780   7.828   5.592  11.188 -0.2720 -0.1902  0.1619
  362loPI   GL1 5781   7.781   5.608  10.741 -0.0690 -0.0011 -0.2102
  362loPI   GL2 5782   7.966   5.386  10.645 -0.0869 -0.2432  0.0479
  362loPI   C1A 5783   7.974   5.901  10.410 -0.2355 -0.0686 -0.2563
  362loPI   C2A 5784   8.014   5.884   9.965  0.0029 -0.0818 -0.1136
  362loPI   C3A 5785   8.007   5.889   9.575  0.2201  0.1247 -0.0347
  362loPI   C4A 5786   7.947   5.838   9.102  0.1765 -0.1672 -0.0693
  362loPI   C5A 5787   7.785   5.743   8.691 -0.3022 -0.2049 -0.0074
  362loPI   C6A 5788   7.556   5.538   8.429 -0.4817  0.1233  0.2694
  362loPI   C1B 5789   7.824   5.412  10.185  0.5147  0.4721 -0.0280
  362loPI   C2B 5790   7.743   5.471   9.773 -0.1251  0.1437  0.0576
  362loPI   C3B 5791   7.744   5.458   9.358 -0.1776  0.1357 -0.1094
  362loPI   C4B 5792   7.632   5.306   8.988  0.1276 -0.1267 -0.0242
  363loPI    C1 5793   8.434   9.396  11.079  0.0343  0.1663  0.1028
  363loPI    C2 5794   8.742   9.643  11.146  0.0048  0.1600  0.2660
  363loPI    C3 5795   8.373   9.746  11.261 -0.0601  0.1803  0.0447
  363loPI   PO4 5796   8.441   9.297  10.891  0.0762  0.0355 -0.1277
  363loPI   GL1 5797   8.613   9.126  10.506 -0.5480  0.1116 -0.1777
  363loPI   GL2 5798   8.452   9.402  10.426 -0.1651  0.0156  0.1542
  363loPI   C1A 5799   8.591   8.950  10.059  0.1963  0.0014  0.4035
  363loPI   C2A 5800   8.475   9.065   9.632 -0.1511 -0.0324 -0.0060
  363loPI   C3A 5801   8.481   9.003   9.099  0.0298 -0.1614 -0.2040
  363loPI   C4A 5802   8.424   8.981   8.767 -0.0740  0.2322  0.2178
  363loPI   C5A 5803   8.538   9.020   8.388  0.0161 -0.2377 -0.3742
  363loPI   C6A 5804   8.602   9.169   8.000 -0.2820 -0.0300 -0.0486
  363loPI   C1B 5805   8.414   9.413  10.055 -0.1903 -0.0696  0.0772
  363loPI   C2B 5806   8.288   9.513   9.684 -0.3766 -0.5327  0.0449
  363loPI   C3B 5807   8.372   9.469   9.177 -0.1822  0.0056 -0.0565
  363loPI   C4B 5808   8.311   9.510   8.703  0.1895 -0.0527 -0.1182
  364loPI    C1 5809   3.292  17.412  11.204  0.0815  0.0346  0.0617
  364loPI    C2 5810   3.514  17.129  11.379  0.0261 -0.0519 -0.0067
  364loPI    C3 5811   3.324  17.401  11.602  0.1446 -0.0193  0.0554
  364loPI   PO4 5812   3.185  17.367  11.056 -0.1709 -0.0807 -0.1806
  364loPI   GL1 5813   3.233  17.589  10.674 -0.0715  0.0945 -0.0578
  364loPI   GL2 5814   3.385  17.288  10.431 -0.1867  0.1558 -0.0237
  364loPI   C1A 5815   3.116  17.902  10.267  0.1227  0.0651  0.0129
  364loPI   C2A 5816   3.176  17.889   9.762  0.2008 -0.0849 -0.0812
  364loPI   C3A 5817   3.126  17.989   9.244 -0.3605  0.1251 -0.0474
  364loPI   C4A 5818   3.067  17.956   8.801  0.0882 -0.0247  0.0978
  364loPI   C5A 5819   2.764  18.025   8.479 -0.1689 -0.0928  0.0465
  364loPI   C6A 5820   2.309  17.939   8.548  0.1665  0.1154 -0.0145
  364loPI   C1B 5821   3.434  17.305   9.944  0.2136 -0.0749 -0.0973
  364loPI   C2B 5822   3.374  17.530   9.450  0.0621 -0.0521  0.1330
  364loPI   C3B 5823   3.344  17.538   9.006  0.1403 -0.0070 -0.4785
  364loPI   C4B 5824   3.366  17.649   8.595 -0.2209  0.0001 -0.0181
  365loPI    C1 5825  16.036  16.103  10.984 -0.1449  0.0075 -0.0926
  365loPI    C2 5826  16.213  16.424  10.825  0.0659 -0.0496  0.0236
  365loPI    C3 5827  16.314  16.301  11.192 -0.2432 -0.0610  0.1068
  365loPI   PO4 5828  15.812  16.137  10.853  0.0901  0.3132 -0.0165
  365loPI   GL1 5829  15.534  16.011  10.535 -0.0044  0.0932 -0.0512
  365loPI   GL2 5830  15.663  15.750  10.442 -0.2594 -0.1918  0.2270
  365loPI   C1A 5831  15.480  16.034  10.098  0.1163 -0.1777 -0.1394
  365loPI   C2A 5832  15.544  16.012   9.697  0.0217 -0.1225  0.1556
  365loPI   C3A 5833  15.496  16.031   9.235 -0.1472  0.0146 -0.2315
  365loPI   C4A 5834  15.542  15.999   8.783 -0.0929  0.1582 -0.0835
  365loPI   C5A 5835  15.621  15.877   8.276 -0.0597 -0.1985 -0.1418
  365loPI   C6A 5836  15.727  15.481   8.082 -0.2592  0.0620 -0.6410
  365loPI   C1B 5837  15.776  15.572  10.059  0.0545  0.1362 -0.0549
  365loPI   C2B 5838  15.770  15.555   9.635 -0.3875  0.0745  0.0512
  365loPI   C3B 5839  15.768  15.586   9.193 -0.2046 -0.0120  0.0348
  365loPI   C4B 5840  15.707  15.498   8.735 -0.2474 -0.2537 -0.0007
  366loPI    C1 5841  11.352   1.256  11.182  0.2912  0.1851 -0.3592
  366loPI    C2 5842  11.411   0.861  11.155 -0.2302  0.0620  0.1276
  366loPI    C3 5843  11.701   1.097  11.298  0.0957 -0.1331 -0.1947
  366loPI   PO4 5844  11.342   1.398  10.969  0.0559 -0.2588 -0.4078
  366loPI   GL1 5845  11.564   1.555  10.563  0.0009 -0.3469 -0.0965
  366loPI   GL2 5846  11.343   1.808  10.616  0.1289  0.0443 -0.1070
  366loPI   C1A 5847  11.630   1.408  10.246 -0.1688  0.0106  0.1263
  366loPI   C2A 5848  11.548   1.517   9.764 -0.1263 -0.3836  0.2153
  366loPI   C3A 5849  11.723   1.471   9.349  0.0627  0.0674 -0.2409
  366loPI   C4A 5850  11.636   1.453   8.992 -0.0241 -0.0207 -0.0211
  366loPI   C5A 5851  11.782   1.476   8.624  0.2183  0.0646 -0.2489
  366loPI   C6A 5852  11.766   1.628   8.226  0.1832 -0.0199 -0.2968
  366loPI   C1B 5853  11.419   1.892  10.211 -0.2764 -0.3925 -0.0343
  366loPI   C2B 5854  11.342   2.015   9.814 -0.0762 -0.0998 -0.0690
  366loPI   C3B 5855  11.500   2.024   9.512 -0.0790  0.2158 -0.0785
  366loPI   C4B 5856  11.395   1.994   9.068  0.0568 -0.3708  0.0037
  367loPI    C1 5857   8.254  16.906  10.966 -0.0564 -0.1885  0.1463
  367loPI    C2 5858   7.908  16.782  11.123 -0.0579 -0.2826  0.0696
  367loPI    C3 5859   8.254  16.634  11.259 -0.0268  0.0740  0.3942
  367loPI   PO4 5860   8.158  16.964  10.712 -0.0738 -0.0120  0.4750
  367loPI   GL1 5861   7.924  16.939  10.359 -0.1600 -0.0794 -0.3422
  367loPI   GL2 5862   8.143  17.117  10.219 -0.0050  0.0073  0.1105
  367loPI   C1A 5863   7.697  17.185   9.980  0.0432  0.1302  0.1568
  367loPI   C2A 5864   7.487  17.350   9.604  0.0373  0.2300  0.0100
  367loPI   C3A 5865   7.505  17.332   9.210 -0.0195  0.0706  0.1754
  367loPI   C4A 5866   7.658  17.241   8.794 -0.4156 -0.2802 -0.0559
  367loPI   C5A 5867   7.597  17.206   8.422  0.1363  0.0738  0.0480
  367loPI   C6A 5868   7.399  16.773   8.257  0.4350 -0.0979 -0.0755
  367loPI   C1B 5869   8.172  17.265   9.820  0.2461  0.1285 -0.1274
  367loPI   C2B 5870   8.098  17.303   9.413  0.0911 -0.0944  0.1949
  367loPI   C3B 5871   8.098  17.222   9.038 -0.2634 -0.2219  0.3338
  367loPI   C4B 5872   8.197  17.123   8.636 -0.1731  0.0328  0.0597
  368loPI    C1 5873  10.466  17.777  10.743  0.0567  0.1895 -0.1675
  368loPI    C2 5874  10.345  17.950  11.083  0.1080  0.2479 -0.1786
  368loPI    C3 5875  10.231  17.576  10.997  0.1228  0.2205 -0.0812
  368loPI   PO4 5876  10.747  17.831  10.721 -0.0827  0.0057 -0.1185
  368loPI   GL1 5877  10.934  18.088  10.496  0.1839  0.1690 -0.1989
  368loPI   GL2 5878  10.746  18.166  10.266  0.2106 -0.1467  0.2925
  368loPI   C1A 5879  11.330  17.898  10.168 -0.1787 -0.0481  0.1556
  368loPI   C2A 5880  11.404  18.012   9.751  0.0624  0.3732  0.0597
  368loPI   C3A 5881  11.377  17.961   9.298  0.2681  0.0658 -0.0279
  368loPI   C4A 5882  11.353  18.051   8.926  0.0387 -0.3580 -0.0808
  368loPI   C5A 5883  11.284  17.909   8.489  0.0209 -0.0118 -0.0628
  368loPI   C6A 5884  11.268  18.199   8.148 -0.3373 -0.0031 -0.0883
  368loPI   C1B 5885  10.896  18.044   9.903  0.1426 -0.0848  0.2078
  368loPI   C2B 5886  10.905  17.917   9.487  0.0020 -0.1503 -0.2617
  368loPI   C3B 5887  10.840  17.991   9.203 -0.1069 -0.2204  0.5028
  368loPI   C4B 5888  10.881  18.004   8.799  0.1969 -0.1236 -0.2926
  369loPI    C1 5889   6.782  10.117  11.084  0.1037 -0.2207  0.1866
  369loPI    C2 5890   6.968  10.471  11.095 -0.2737 -0.0130  0.0567
  369loPI    C3 5891   6.769  10.339  11.416 -0.0132 -0.1776  0.1537
  369loPI   PO4 5892   6.674  10.062  10.883  0.0303 -0.0111  0.1532
  369loPI   GL1 5893   6.614  10.027  10.420 -0.3198 -0.0561  0.0398
  369loPI   GL2 5894   6.703   9.767  10.367 -0.0758  0.2060  0.0280
  369loPI   C1A 5895   6.542  10.049   9.917 -0.0755  0.1777 -0.2154
  369loPI   C2A 5896   6.566  10.056   9.424  0.3684  0.0273  0.1562
  369loPI   C3A 5897   6.550  10.103   8.962  0.0190  0.2635  0.0933
  369loPI   C4A 5898   6.485  10.090   8.571 -0.3173 -0.0892 -0.0191
  369loPI   C5A 5899   6.420   9.739   8.199 -0.0565  0.1271 -0.1193
  369loPI   C6A 5900   6.775   9.399   8.042  0.0268  0.0699 -0.0735
  369loPI   C1B 5901   6.848   9.628   9.990 -0.1595  0.1510 -0.1709
  369loPI   C2B 5902   6.782   9.601   9.466  0.1485  0.2282  0.1374
  369loPI   C3B 5903   6.758   9.644   9.043  0.0520  0.2008  0.0336
  369loPI   C4B 5904   6.758   9.612   8.594  0.1366 -0.0633 -0.0683
  370loPI    C1 5905  13.651   5.507  11.529 -0.2198 -0.2028 -0.0710
  370loPI    C2 5906  13.359   5.614  11.780 -0.1735 -0.1505 -0.0391
  370loPI    C3 5907  13.680   5.421  11.919  0.0217  0.1973  0.0059
  370loPI   PO4 5908  13.472   5.627  11.281 -0.1104 -0.0977 -0.0617
  370loPI   GL1 5909  13.496   5.766  10.792  0.2424  0.1009 -0.0212
  370loPI   GL2 5910  13.238   5.618  10.638 -0.0846  0.3207  0.2288
  370loPI   C1A 5911  13.565   5.840  10.304  0.1162  0.1365 -0.1247
  370loPI   C2A 5912  13.450   5.774   9.916  0.0425 -0.2774 -0.2520
  370loPI   C3A 5913  13.514   5.856   9.463  0.0229 -0.0780 -0.0153
  370loPI   C4A 5914  13.457   5.903   9.158  0.1945 -0.0571  0.1918
  370loPI   C5A 5915  13.331   5.782   8.732 -0.1625 -0.0408 -0.2193
  370loPI   C6A 5916  13.051   5.411   8.574  0.0153 -0.0820  0.2972
  370loPI   C1B 5917  13.183   5.366  10.219 -0.2296 -0.0097 -0.1865
  370loPI   C2B 5918  13.118   5.472   9.843 -0.2628  0.0122  0.1995
  370loPI   C3B 5919  13.182   5.423   9.447  0.0992  0.2746  0.2455
  370loPI   C4B 5920  13.135   5.417   9.049 -0.0990  0.2572 -0.0730
  371loPI    C1 5921   1.696  13.660  10.427  0.1754 -0.0581  0.0464
  371loPI    C2 5922   1.713  13.797  10.802 -0.0441  0.0105  0.0331
  371loPI    C3 5923   1.829  13.423  10.720  0.1503  0.0454  0.1422
  371loPI   PO4 5924   1.411  13.684  10.329 -0.0614 -0.1098  0.0971
  371loPI   GL1 5925   1.437  13.685   9.968  0.1768  0.0145 -0.1578
  371loPI   GL2 5926   1.770  13.598   9.932 -0.0498 -0.1077  0.0632
  371loPI   C1A 5927   1.581  14.002   9.622  0.0646 -0.0102  0.0682
  371loPI   C2A 5928   1.602  14.038   9.213 -0.0967  0.2053  0.0917
  371loPI   C3A 5929   1.674  13.995   8.845 -0.2976  0.0305 -0.0503
  371loPI   C4A 5930   1.615  14.065   8.444  0.0022 -0.0804  0.5026
  371loPI   C5A 5931   1.596  14.027   7.905  0.0863 -0.0462  0.2203
  371loPI   C6A 5932   1.948  13.987   7.572 -0.1097 -0.1086 -0.0463
  371loPI   C1B 5933   1.956  13.559   9.541  0.1092 -0.0263 -0.0654
  371loPI   C2B 5934   1.884  13.532   9.104 -0.1671  0.1402  0.1164
  371loPI   C3B 5935   1.868  13.537   8.638 -0.0626 -0.1630  0.0094
  371loPI   C4B 5936   1.887  13.641   8.230  0.2518 -0.0090  0.0403
  372loPI    C1 5937   4.055   6.500  11.343  0.1361 -0.1675 -0.1035
  372loPI    C2 5938   4.309   6.273  11.553  0.1869 -0.0159  0.0009
  372loPI    C3 5939   3.934   6.147  11.488  0.2225 -0.1407  0.0352
  372loPI   PO4 5940   4.148   6.595  11.026  0.1163  0.0737 -0.0267
  372loPI   GL1 5941   4.127   6.653  10.630 -0.2909  0.0865 -0.0451
  372loPI   GL2 5942   4.000   6.341  10.558 -0.3339 -0.2355  0.1311
  372loPI   C1A 5943   4.212   6.652  10.159  0.1429 -0.1893 -0.1069
  372loPI   C2A 5944   4.314   6.617   9.654  0.0084  0.1345 -0.0468
  372loPI   C3A 5945   4.305   6.617   9.161  0.0792 -0.1569 -0.1252
  372loPI   C4A 5946   4.270   6.740   8.704  0.0098  0.0971  0.1378
  372loPI   C5A 5947   4.121   6.675   8.332 -0.0079 -0.0377  0.0869
  372loPI   C6A 5948   4.201   6.675   7.914  0.0854  0.0040 -0.1310
  372loPI   C1B 5949   3.971   6.246  10.029  0.1731  0.0377  0.1359
  372loPI   C2B 5950   3.987   6.227   9.574  0.1009  0.1485 -0.6466
  372loPI   C3B 5951   3.981   6.257   9.104  0.2065 -0.1244  0.0398
  372loPI   C4B 5952   3.897   6.243   8.611 -0.0586  0.3145 -0.0675
  373loPI    C1 5953   4.391   5.675  11.009  0.0698  0.0375  0.1796
  373loPI    C2 5954   4.533   6.001  11.192 -0.1629  0.2697 -0.0444
  373loPI    C3 5955   4.268   5.766  11.378  0.1358  0.1062  0.1849
  373loPI   PO4 5956   4.337   5.729  10.808  0.0443 -0.0457  0.1848
  373loPI   GL1 5957   4.515   5.852  10.402  0.0189 -0.4547 -0.3123
  373loPI   GL2 5958   4.514   5.476  10.329 -0.3274 -0.1224  0.0434
  373loPI   C1A 5959   4.456   6.238  10.201  0.1939  0.3253 -0.2400
  373loPI   C2A 5960   4.434   6.171   9.788  0.0169  0.3567 -0.0411
  373loPI   C3A 5961   4.486   6.214   9.347 -0.1309  0.0274  0.1378
  373loPI   C4A 5962   4.531   6.196   8.892 -0.0740  0.2390 -0.0721
  373loPI   C5A 5963   4.457   6.293   8.466  0.0759 -0.2136  0.0743
  373loPI   C6A 5964   4.550   6.310   8.010  0.1001 -0.1509 -0.1736
  373loPI   C1B 5965   4.398   5.295   9.882  0.0702  0.0025 -0.1903
  373loPI   C2B 5966   4.489   5.295   9.473  0.2711  0.0715 -0.0884
  373loPI   C3B 5967   4.418   5.339   9.069 -0.1388 -0.1360  0.0693
  373loPI   C4B 5968   4.405   5.369   8.653 -0.0701 -0.0317 -0.1248
  374loPI    C1 5969   2.153   5.511  11.259 -0.1759  0.1349 -0.4427
  374loPI    C2 5970   2.261   5.896  11.277  0.3057 -0.0090  0.0192
  374loPI    C3 5971   2.081   5.724  11.590 -0.0834 -0.1184 -0.2562
  374loPI   PO4 5972   2.167   5.509  10.914  0.1613 -0.0380  0.0391
  374loPI   GL1 5973   2.399   5.444  10.521  0.2001  0.2114  0.4447
  374loPI   GL2 5974   2.518   5.109  10.639 -0.3011  0.0994  0.0256
  374loPI   C1A 5975   2.348   5.419  10.018 -0.2046  0.0009 -0.0627
  374loPI   C2A 5976   2.390   5.374   9.510 -0.1398  0.1481 -0.1136
  374loPI   C3A 5977   2.406   5.380   9.076  0.1893  0.1117  0.2323
  374loPI   C4A 5978   2.444   5.451   8.661  0.0151 -0.3303  0.4477
  374loPI   C5A 5979   2.271   5.364   8.259  0.1636 -0.1850 -0.3791
  374loPI   C6A 5980   2.091   5.188   7.899  0.3036  0.0377 -0.2179
  374loPI   C1B 5981   2.638   4.955  10.266 -0.1441  0.0882  0.1057
  374loPI   C2B 5982   2.636   4.912   9.825 -0.0097 -0.1367 -0.0293
  374loPI   C3B 5983   2.634   4.906   9.418 -0.0502  0.0681  0.0221
  374loPI   C4B 5984   2.685   4.926   8.977  0.2085  0.0521  0.3749
  375loPI    C1 5985  10.881   3.096  11.287  0.0554 -0.0607  0.1784
  375loPI    C2 5986  10.646   2.825  11.110  0.0851 -0.0002  0.0456
  375loPI    C3 5987  10.506   3.044  11.414 -0.0140 -0.0014  0.0010
  375loPI   PO4 5988  11.022   3.233  10.997 -0.1937 -0.0400 -0.2718
  375loPI   GL1 5989  11.078   3.115  10.584  0.1960 -0.0124 -0.0588
  375loPI   GL2 5990  11.266   3.390  10.597 -0.1751 -0.0892  0.0222
  375loPI   C1A 5991  10.976   2.956  10.206  0.0595  0.0126 -0.0919
  375loPI   C2A 5992  10.839   2.873   9.750  0.2336  0.1474  0.2707
  375loPI   C3A 5993  10.974   2.883   9.238  0.0808  0.1755  0.2514
  375loPI   C4A 5994  11.010   2.986   8.890 -0.2389  0.0577 -0.0356
  375loPI   C5A 5995  10.972   3.149   8.513  0.1823 -0.0038  0.1014
  375loPI   C6A 5996  11.335   3.330   8.376  0.1154 -0.1534 -0.0261
  375loPI   C1B 5997  11.234   3.381  10.146 -0.1832 -0.2711 -0.0909
  375loPI   C2B 5998  11.165   3.306   9.736 -0.1943 -0.0452  0.1218
  375loPI   C3B 5999  11.328   3.362   9.286  0.0575  0.1039 -0.1268
  375loPI   C4B 6000  11.382   3.364   8.900  0.0525  0.3489  0.2465
  376loPI    C1 6001   1.991   7.937  10.715 -0.1695  0.1779  0.1603
  376loPI    C2 6002   2.317   8.134  10.838  0.0170  0.0554 -0.1255
  376loPI    C3 6003   1.975   8.164  11.044  0.2211  0.1432  0.2084
  376loPI   PO4 6004   2.016   7.960  10.418  0.2384  0.3229 -0.0619
  376loPI   GL1 6005   1.739   7.866  10.099  0.0488  0.0607 -0.0101
  376loPI   GL2 6006   1.923   8.236  10.057 -0.4292 -0.0924  0.2297
  376loPI   C1A 6007   1.700   7.679   9.827  0.0179  0.2432  0.0771
  376loPI   C2A 6008   1.615   7.678   9.340 -0.0234 -0.2926 -0.1293
  376loPI   C3A 6009   1.671   7.665   8.908 -0.1266 -0.0440  0.0365
  376loPI   C4A 6010   1.652   7.674   8.557  0.0736 -0.1052  0.3435
  376loPI   C5A 6011   1.506   7.361   8.238  0.0819 -0.0520 -0.4386
  376loPI   C6A 6012   1.310   7.374   7.849  0.1280  0.0811 -0.0768
  376loPI   C1B 6013   1.924   8.078   9.699  0.0663 -0.0187 -0.0208
  376loPI   C2B 6014   1.862   8.046   9.385  0.0131 -0.0619 -0.2671
  376loPI   C3B 6015   1.993   8.125   9.025  0.1792 -0.0756 -0.1400
  376loPI   C4B 6016   2.014   8.088   8.565  0.1504  0.4606  0.0641
  377loPI    C1 6017  15.650   3.187  11.556 -0.0969  0.0548  0.1407
  377loPI    C2 6018  15.719   3.544  11.724  0.1843 -0.0595  0.2756
  377loPI    C3 6019  15.501   3.270  11.917 -0.0852  0.0587  0.1446
  377loPI   PO4 6020  15.523   3.221  11.206 -0.0556 -0.0838  0.3273
  377loPI   GL1 6021  15.578   3.058  10.766  0.1161  0.2156 -0.1787
  377loPI   GL2 6022  15.944   2.945  10.611  0.0168 -0.1079  0.1523
  377loPI   C1A 6023  15.371   3.067  10.395 -0.1797  0.2352 -0.0232
  377loPI   C2A 6024  15.330   3.076  10.015  0.0911 -0.3163 -0.5039
  377loPI   C3A 6025  15.309   3.112   9.576  0.0437 -0.0266  0.1317
  377loPI   C4A 6026  15.342   3.048   9.119  0.1093 -0.2173  0.0333
  377loPI   C5A 6027  15.413   2.696   8.903 -0.0073  0.1629 -0.3605
  377loPI   C6A 6028  15.332   2.452   8.546 -0.0651 -0.1473 -0.0262
  377loPI   C1B 6029  15.975   3.038  10.160  0.3707 -0.1250  0.1524
  377loPI   C2B 6030  15.892   3.078   9.734  0.4089 -0.2054 -0.1918
  377loPI   C3B 6031  15.849   3.020   9.295 -0.0261 -0.0465 -0.1034
  377loPI   C4B 6032  15.803   3.071   8.824  0.0798 -0.1329  0.3894
  378loPI    C1 6033  15.409  11.016  10.961  0.1158  0.1408  0.0302
  378loPI    C2 6034  15.511  10.789  11.274  0.0622 -0.0302 -0.0754
  378loPI    C3 6035  15.375  11.161  11.333 -0.1624 -0.1398  0.1187
  378loPI   PO4 6036  15.308  10.878  10.820  0.1747  0.0161  0.0385
  378loPI   GL1 6037  15.231  10.932  10.393  0.1171  0.1602 -0.1833
  378loPI   GL2 6038  15.158  10.623  10.235 -0.1129  0.1643 -0.0329
  378loPI   C1A 6039  15.427  10.994  10.017  0.1643 -0.2037 -0.0450
  378loPI   C2A 6040  15.313  11.081   9.639  0.2398 -0.0524 -0.1997
  378loPI   C3A 6041  15.296  11.069   9.163 -0.3089 -0.1693  0.0082
  378loPI   C4A 6042  15.496  11.080   8.739  0.1436 -0.1302  0.0085
  378loPI   C5A 6043  15.661  10.977   8.323 -0.3029 -0.0402 -0.0371
  378loPI   C6A 6044  15.891  10.766   8.065  0.0524  0.0396 -0.0292
  378loPI   C1B 6045  15.153  10.656   9.758 -0.3074  0.1754  0.0970
  378loPI   C2B 6046  15.074  10.633   9.337  0.1011 -0.3923  0.1905
  378loPI   C3B 6047  15.085  10.637   8.900  0.0337 -0.1380  0.2659
  378loPI   C4B 6048  14.979  10.672   8.471  0.0100 -0.2818 -0.0512
  379loPI    C1 6049   9.858   1.862  11.030 -0.1942  0.2154  0.1678
  379loPI    C2 6050  10.106   2.049  11.281  0.0883  0.0536  0.0141
  379loPI    C3 6051  10.002   1.668  11.349 -0.2119  0.1553  0.1396
  379loPI   PO4 6052   9.912   1.945  10.853  0.0444  0.2197 -0.0881
  379loPI   GL1 6053  10.068   1.799  10.541 -0.1282 -0.0591  0.0152
  379loPI   GL2 6054  10.272   2.091  10.562  0.0029 -0.1884 -0.0525
  379loPI   C1A 6055  10.057   1.692  10.096  0.4698 -0.1909 -0.1086
  379loPI   C2A 6056  10.100   1.571   9.688  0.1362  0.1676 -0.0894
  379loPI   C3A 6057  10.067   1.566   9.280  0.1893 -0.2875 -0.2393
  379loPI   C4A 6058  10.050   1.578   8.894  0.3872  0.0407 -0.4204
  379loPI   C5A 6059  10.073   1.298   8.508  0.3433 -0.0986  0.1242
  379loPI   C6A 6060  10.352   1.483   8.129  0.1541 -0.0451 -0.0671
  379loPI   C1B 6061  10.425   1.980  10.201 -0.2406 -0.0870  0.0662
  379loPI   C2B 6062  10.393   1.979   9.801  0.0055 -0.0968  0.1310
  379loPI   C3B 6063  10.353   1.925   9.418 -0.2971 -0.1776 -0.3600
  379loPI   C4B 6064  10.334   2.047   8.910  0.1175  0.2086 -0.0428
  380loPI    C1 6065   7.495  13.353  11.059  0.1486  0.0205  0.0692
  380loPI    C2 6066   7.654  13.425  11.418  0.0831  0.0239  0.0977
  380loPI    C3 6067   7.450  13.087  11.354  0.0020  0.0731  0.0951
  380loPI   PO4 6068   7.637  13.376  10.863 -0.2843 -0.2189  0.2547
  380loPI   GL1 6069   7.659  13.419  10.480 -0.0145  0.2951  0.0967
  380loPI   GL2 6070   7.649  13.120  10.421  0.1694  0.0267 -0.3131
  380loPI   C1A 6071   7.853  13.462  10.154  0.3258 -0.1213  0.1257
  380loPI   C2A 6072   7.854  13.508   9.717 -0.5856 -0.2824 -0.1623
  380loPI   C3A 6073   7.869  13.574   9.286  0.0759 -0.1041 -0.4321
  380loPI   C4A 6074   7.753  13.623   8.861  0.1513 -0.2486 -0.0058
  380loPI   C5A 6075   7.745  13.570   8.469  0.0918  0.0286 -0.2723
  380loPI   C6A 6076   7.517  13.472   8.120  0.1471  0.0746 -0.3834
  380loPI   C1B 6077   7.594  13.038  10.011 -0.1256  0.1561  0.1456
  380loPI   C2B 6078   7.532  13.095   9.613 -0.1851  0.1020 -0.2441
  380loPI   C3B 6079   7.564  13.175   9.194  0.1101  0.0204 -0.1974
  380loPI   C4B 6080   7.487  13.222   8.694 -0.1536  0.1487 -0.1062
  381loPI    C1 6081  11.262  11.458  11.061 -0.0635 -0.2399  0.0337
  381loPI    C2 6082  11.581  11.476  10.820  0.1425 -0.2331  0.3021
  381loPI    C3 6083  11.466  11.800  11.024 -0.0906 -0.2119  0.1414
  381loPI   PO4 6084  11.099  11.358  10.962  0.0040 -0.0521 -0.3245
  381loPI   GL1 6085  11.023  11.263  10.630  0.1119 -0.3142 -0.1416
  381loPI   GL2 6086  11.326  11.150  10.600  0.1234 -0.1198  0.1286
  381loPI   C1A 6087  10.940  11.137  10.196 -0.0444 -0.1565 -0.2268
  381loPI   C2A 6088  10.976  11.046   9.715 -0.0022 -0.2108  0.0995
  381loPI   C3A 6089  10.938  11.115   9.194 -0.1690 -0.2050  0.2445
  381loPI   C4A 6090  10.993  11.039   8.861  0.0887  0.1610  0.1391
  381loPI   C5A 6091  10.919  10.951   8.405 -0.1002 -0.0627 -0.1686
  381loPI   C6A 6092  10.854  10.877   7.913  0.0294  0.0841  0.0930
  381loPI   C1B 6093  11.446  11.054  10.265  0.0046  0.1827 -0.0372
  381loPI   C2B 6094  11.470  11.054   9.840  0.2779  0.1735 -0.1994
  381loPI   C3B 6095  11.460  11.016   9.337  0.2298  0.0034 -0.2190
  381loPI   C4B 6096  11.510  10.966   8.906  0.1630  0.0360 -0.0204
  382loPI    C1 6097   4.776   7.210  11.184  0.1808  0.0405  0.0072
  382loPI    C2 6098   4.948   7.507  11.390  0.1443 -0.0640  0.1907
  382loPI    C3 6099   4.650   7.296  11.554 -0.1323  0.0854 -0.1068
  382loPI   PO4 6100   4.701   7.297  10.925 -0.1419  0.0286  0.2023
  382loPI   GL1 6101   4.900   7.417  10.515  0.1971  0.0634  0.0704
  382loPI   GL2 6102   5.248   7.442  10.465  0.2470 -0.1486  0.0114
  382loPI   C1A 6103   4.884   7.491  10.089  0.0876  0.0026  0.1525
  382loPI   C2A 6104   4.853   7.616   9.688  0.1498  0.1087  0.0912
  382loPI   C3A 6105   4.730   7.606   9.215 -0.1336 -0.1128  0.2146
  382loPI   C4A 6106   4.780   7.505   8.732 -0.0250  0.0289  0.1541
  382loPI   C5A 6107   4.618   7.132   8.595  0.0578  0.2477 -0.2011
  382loPI   C6A 6108   4.594   6.788   8.249 -0.0917 -0.1054  0.2870
  382loPI   C1B 6109   5.375   7.492  10.014  0.1798 -0.2335 -0.1547
  382loPI   C2B 6110   5.386   7.571   9.629 -0.1909  0.0301  0.0856
  382loPI   C3B 6111   5.305   7.554   9.209 -0.1509  0.0648 -0.1737
  382loPI   C4B 6112   5.389   7.460   8.794 -0.0477  0.1781  0.0079
  383loPI    C1 6113   1.568  10.859  10.164 -0.0424 -0.1314 -0.0260
  383loPI    C2 6114   1.682  10.492  10.273 -0.0346 -0.1354 -0.0473
  383loPI    C3 6115   1.549  10.750  10.548  0.3014 -0.0322  0.0234
  383loPI   PO4 6116   1.530  10.803   9.926  0.2403 -0.3432  0.2978
  383loPI   GL1 6117   1.680  10.923   9.552  0.2318  0.1202  0.0876
  383loPI   GL2 6118   2.014  10.959   9.369  0.1113  0.1753 -0.1858
  383loPI   C1A 6119   1.597  10.610   9.180 -0.0977 -0.0350 -0.3035
  383loPI   C2A 6120   1.643  10.465   8.800  0.0477 -0.0286  0.1540
  383loPI   C3A 6121   1.385  10.315   8.523  0.0713  0.2700 -0.0329
  383loPI   C4A 6122   1.373  10.187   8.189  0.0093  0.0150  0.0565
  383loPI   C5A 6123   1.300  10.498   7.852 -0.0392  0.0119  0.2302
  383loPI   C6A 6124   1.391  10.967   7.656 -0.0010 -0.2176  0.1422
  383loPI   C1B 6125   1.978  10.915   8.923  0.2147  0.1064  0.1797
  383loPI   C2B 6126   1.885  10.816   8.506  0.1979 -0.1071 -0.3354
  383loPI   C3B 6127   2.081  10.761   8.093 -0.0925 -0.4210 -0.2427
  383loPI   C4B 6128   1.811  10.694   7.668 -0.1482 -0.0162 -0.1040
  384loPI    C1 6129   8.685  11.180  11.050 -0.0409 -0.2558 -0.0386
  384loPI    C2 6130   8.932  11.015  11.318  0.0475  0.0984  0.1050
  384loPI    C3 6131   8.598  11.198  11.440 -0.0608  0.0089 -0.0532
  384loPI   PO4 6132   8.820  11.131  10.837 -0.2121  0.2236 -0.1736
  384loPI   GL1 6133   8.719  11.085  10.426  0.0872 -0.2632 -0.6637
  384loPI   GL2 6134   8.833  10.764  10.406  0.1094  0.1900 -0.1876
  384loPI   C1A 6135   9.014  11.131  10.122 -0.1428  0.3137  0.1339
  384loPI   C2A 6136   8.969  11.221   9.715 -0.2964 -0.0627 -0.0106
  384loPI   C3A 6137   8.946  11.182   9.304  0.3707  0.0733 -0.0803
  384loPI   C4A 6138   8.940  11.194   8.801  0.0718 -0.1020  0.1419
  384loPI   C5A 6139   8.838  11.327   8.378 -0.1413 -0.3216 -0.0072
  384loPI   C6A 6140   9.084  11.679   8.186  0.1575 -0.0361 -0.0089
  384loPI   C1B 6141   8.888  10.404  10.022  0.1019 -0.0636  0.2643
  384loPI   C2B 6142   8.810  10.244   9.618  0.1390 -0.0551  0.0507
  384loPI   C3B 6143   8.860  10.324   9.105 -0.3988  0.2029  0.0877
  384loPI   C4B 6144   8.795  10.268   8.703  0.2336 -0.1085 -0.0866
  385loPI    C1 6145   0.904   4.431  11.216 -0.0854  0.2318  0.1066
  385loPI    C2 6146   0.943   4.113  11.455 -0.1161  0.0246 -0.1588
  385loPI    C3 6147   0.812   4.460  11.604 -0.1608 -0.1079  0.1176
  385loPI   PO4 6148   0.823   4.351  10.921 -0.2989  0.1819 -0.0592
  385loPI   GL1 6149   0.678   4.342  10.631 -0.3805  0.3714 -0.2686
  385loPI   GL2 6150   0.440   4.646  10.494 -0.0165  0.1365 -0.0474
  385loPI   C1A 6151   0.569   4.238  10.220  0.0534  0.1483 -0.2342
  385loPI   C2A 6152   0.530   4.271   9.787 -0.0110 -0.2280  0.0300
  385loPI   C3A 6153   0.491   4.187   9.278  0.1032  0.1632 -0.2046
  385loPI   C4A 6154   0.333   4.199   8.893 -0.1948 -0.1489 -0.0092
  385loPI   C5A 6155   0.461   4.131   8.536  0.3296 -0.2013 -0.1105
  385loPI   C6A 6156   0.732   4.021   8.197 -0.1869  0.0415 -0.0365
  385loPI   C1B 6157   0.365   4.652  10.067 -0.0763 -0.1117 -0.0864
  385loPI   C2B 6158   0.272   4.707   9.688  0.1208 -0.1854  0.0402
  385loPI   C3B 6159   0.223   4.677   9.268 -0.2021 -0.0864 -0.0677
  385loPI   C4B 6160   0.144   4.654   8.846 -0.0617 -0.0458 -0.0642
  386loPI    C1 6161   1.467   2.502  11.395 -0.0892 -0.2470 -0.0491
  386loPI    C2 6162   1.260   2.647  11.705  0.0699 -0.1045 -0.0084
  386loPI    C3 6163   1.536   2.363  11.764  0.2651  0.0871  0.0170
  386loPI   PO4 6164   1.308   2.505  11.231  0.0457  0.0532  0.1765
  386loPI   GL1 6165   1.262   2.531  10.870  0.1503 -0.0885 -0.1883
  386loPI   GL2 6166   1.012   2.721  10.700  0.0628 -0.1002  0.1726
  386loPI   C1A 6167   1.446   2.398  10.490 -0.0249  0.0895 -0.1018
  386loPI   C2A 6168   1.485   2.418  10.094  0.0421  0.0042  0.1201
  386loPI   C3A 6169   1.422   2.354   9.657  0.0675  0.0221  0.1702
  386loPI   C4A 6170   1.469   2.401   9.307  0.1979  0.0479  0.2249
  386loPI   C5A 6171   1.329   2.461   8.913  0.1533  0.2366 -0.2846
  386loPI   C6A 6172   1.075   2.411   8.639 -0.3588 -0.0643  0.0366
  386loPI   C1B 6173   1.230   2.848  10.372  0.2548  0.1665  0.1956
  386loPI   C2B 6174   1.269   2.830   9.902  0.2193  0.3444  0.2831
  386loPI   C3B 6175   1.284   2.840   9.489 -0.0285  0.1228 -0.1150
  386loPI   C4B 6176   1.089   2.860   9.059  0.0193 -0.3305  0.3821
  387loPI    C1 6177  10.898   5.150  11.249  0.0834  0.0987 -0.1293
  387loPI    C2 6178  11.042   5.489  11.406  0.0859  0.0561 -0.0393
  387loPI    C3 6179  11.068   5.147  11.611 -0.3341  0.0852  0.0722
  387loPI   PO4 6180  10.952   5.097  10.970 -0.1149  0.1055  0.3265
  387loPI   GL1 6181  11.048   5.046  10.619 -0.2693 -0.0312 -0.0464
  387loPI   GL2 6182  11.141   4.774  10.413  0.0316  0.1108  0.0210
  387loPI   C1A 6183  10.894   5.179  10.245 -0.3021  0.0147 -0.1637
  387loPI   C2A 6184  10.935   5.271   9.787 -0.1726  0.2454  0.0652
  387loPI   C3A 6185  10.799   5.154   9.350 -0.1125  0.2866 -0.0963
  387loPI   C4A 6186  10.764   5.230   9.007  0.5788 -0.1314 -0.0440
  387loPI   C5A 6187  10.587   5.328   8.623  0.1488  0.1849  0.2029
  387loPI   C6A 6188  10.482   5.660   8.414  0.0094  0.1952  0.1712
  387loPI   C1B 6189  11.095   4.756   9.979 -0.2042 -0.3787  0.0827
  387loPI   C2B 6190  11.070   4.690   9.550  0.2006  0.1597  0.1314
  387loPI   C3B 6191  10.968   4.692   9.127 -0.1279  0.0131  0.1208
  387loPI   C4B 6192  11.050   4.565   8.715  0.1347  0.0359 -0.0763
  388loPI    C1 6193   9.237  10.534  10.730  0.1809  0.0189 -0.0551
  388loPI    C2 6194   8.902  10.673  10.899  0.0757 -0.0527 -0.2022
  388loPI    C3 6195   9.205  10.548  11.128  0.0616  0.1537 -0.0685
  388loPI   PO4 6196   9.155  10.343  10.604 -0.1558 -0.0286  0.3139
  388loPI   GL1 6197   9.319  10.343  10.204  0.1972  0.2149  0.0746
  388loPI   GL2 6198   9.278  10.661  10.165 -0.0541  0.2307 -0.0002
  388loPI   C1A 6199   9.444  10.266   9.810 -0.0440 -0.2965 -0.2036
  388loPI   C2A 6200   9.413  10.199   9.416 -0.1076 -0.1570  0.2515
  388loPI   C3A 6201   9.369  10.279   8.956 -0.0725 -0.0091  0.1213
  388loPI   C4A 6202   9.266  10.188   8.536 -0.1160  0.3576  0.0831
  388loPI   C5A 6203   8.976  10.371   8.201  0.1988  0.1687 -0.0116
  388loPI   C6A 6204   9.058  10.679   7.952  0.1672  0.1973 -0.0390
  388loPI   C1B 6205   9.161  10.690   9.723  0.4030  0.0111  0.0427
  388loPI   C2B 6206   9.142  10.683   9.300  0.0861 -0.2055  0.0074
  388loPI   C3B 6207   9.099  10.663   8.839  0.1002 -0.3533 -0.2764
  388loPI   C4B 6208   9.021  10.797   8.452 -0.1123 -0.0239  0.0321
  389loPI    C1 6209   3.741  11.059  10.323  0.0484  0.0776 -0.0114
  389loPI    C2 6210   3.386  11.037  10.139  0.0305 -0.2111  0.0539
  389loPI    C3 6211   3.404  11.044  10.538  0.0954 -0.1250  0.0497
  389loPI   PO4 6212   3.869  11.046  10.080 -0.1415 -0.1082  0.2263
  389loPI   GL1 6213   4.336  11.069   9.932  0.0496 -0.2007  0.4504
  389loPI   GL2 6214   4.009  11.226   9.618 -0.1869  0.3870  0.1509
  389loPI   C1A 6215   4.529  11.046   9.478  0.1251 -0.1769  0.1385
  389loPI   C2A 6216   4.529  11.110   9.065 -0.0758  0.1416 -0.0384
  389loPI   C3A 6217   4.565  11.165   8.730  0.0400 -0.2470  0.1572
  389loPI   C4A 6218   4.439  11.041   8.271  0.2581  0.0552 -0.2815
  389loPI   C5A 6219   4.287  10.889   7.924  0.2687 -0.1336  0.0035
  389loPI   C6A 6220   3.929  10.786   7.804  0.1346 -0.1804 -0.0463
  389loPI   C1B 6221   4.076  11.096   9.238 -0.2026 -0.1136 -0.0649
  389loPI   C2B 6222   4.010  11.091   8.767 -0.0473 -0.3121  0.0176
  389loPI   C3B 6223   3.980  11.126   8.429 -0.0139 -0.2661  0.0795
  389loPI   C4B 6224   3.899  11.251   8.032  0.3974 -0.0604  0.1242
  390loPI    C1 6225  16.734   9.763  10.870  0.0135  0.0884 -0.0166
  390loPI    C2 6226  17.044   9.998  10.774 -0.0468  0.1475 -0.0683
  390loPI    C3 6227  17.044   9.797  11.120  0.0551  0.1364 -0.0743
  390loPI   PO4 6228  16.611   9.738  10.609 -0.1493  0.0344  0.1318
  390loPI   GL1 6229  16.398   9.555  10.285  0.1813  0.1857  0.0040
  390loPI   GL2 6230  16.173   9.283  10.028  0.1505  0.2423 -0.2100
  390loPI   C1A 6231  16.548   9.569   9.783  0.1629 -0.1191 -0.2524
  390loPI   C2A 6232  16.554   9.617   9.375 -0.0146 -0.0157  0.1553
  390loPI   C3A 6233  16.476   9.656   8.939 -0.1490 -0.0803 -0.2852
  390loPI   C4A 6234  16.535   9.698   8.535 -0.0444 -0.1072 -0.0932
  390loPI   C5A 6235  16.649   9.438   8.198  0.1862  0.0788  0.0589
  390loPI   C6A 6236  16.909   9.210   8.155 -0.2115  0.1787 -0.1185
  390loPI   C1B 6237  16.290   9.135   9.638  0.2827 -0.0639 -0.0376
  390loPI   C2B 6238  16.178   9.210   9.188  0.2265  0.0005  0.2419
  390loPI   C3B 6239  16.284   9.235   8.699  0.0345  0.2792  0.0796
  390loPI   C4B 6240  16.282   9.086   8.220 -0.0826 -0.1377 -0.0524
  391loPI    C1 6241   2.290   3.254  11.375  0.1071 -0.0898  0.2247
  391loPI    C2 6242   2.296   3.416  11.741 -0.2297  0.0216  0.1851
  391loPI    C3 6243   2.185   3.034  11.693  0.0846 -0.0781  0.2254
  391loPI   PO4 6244   2.454   3.339  11.267 -0.2526 -0.1922 -0.0242
  391loPI   GL1 6245   2.404   3.426  10.811 -0.1341  0.2828 -0.1608
  391loPI   GL2 6246   2.516   3.138  10.688 -0.2050 -0.3490 -0.1633
  391loPI   C1A 6247   2.414   3.677  10.455 -0.1987 -0.0959 -0.2782
  391loPI   C2A 6248   2.294   3.743  10.062  0.0031 -0.3064  0.1975
  391loPI   C3A 6249   2.339   3.697   9.572 -0.2075 -0.2115  0.1227
  391loPI   C4A 6250   2.241   3.608   9.197  0.0987  0.1350  0.0828
  391loPI   C5A 6251   2.187   3.645   8.734  0.0472  0.0422  0.1900
  391loPI   C6A 6252   2.294   3.199   8.437 -0.1803  0.0807 -0.1355
  391loPI   C1B 6253   2.526   3.200  10.244 -0.1217  0.2447  0.1672
  391loPI   C2B 6254   2.507   3.223   9.805  0.3650  0.2746  0.0226
  391loPI   C3B 6255   2.513   3.248   9.380 -0.1760  0.0492  0.0420
  391loPI   C4B 6256   2.488   3.194   8.924 -0.1717 -0.1858  0.0155
  392loPI    C1 6257   8.849  12.531  10.997 -0.0855 -0.0630  0.0757
  392loPI    C2 6258   9.031  12.376  11.317 -0.1787  0.2046  0.2619
  392loPI    C3 6259   8.725  12.183  11.149 -0.0482  0.0006  0.2553
  392loPI   PO4 6260   9.020  12.637  10.832 -0.0365 -0.1187 -0.1649
  392loPI   GL1 6261   9.165  12.628  10.473  0.0180  0.2194  0.0758
  392loPI   GL2 6262   9.257  12.339  10.415 -0.0533 -0.0231 -0.0090
  392loPI   C1A 6263   8.815  12.458  10.166  0.2162 -0.1404  0.0281
  392loPI   C2A 6264   8.806  12.547   9.679  0.0289 -0.0327 -0.0290
  392loPI   C3A 6265   8.774  12.451   9.214  0.0475  0.0496  0.1719
  392loPI   C4A 6266   8.740  12.558   8.752 -0.2678 -0.1292  0.2423
  392loPI   C5A 6267   8.901  12.711   8.390 -0.0906 -0.0727  0.1160
  392loPI   C6A 6268   8.922  12.569   7.944 -0.0250  0.0263 -0.0568
  392loPI   C1B 6269   9.311  12.496   9.948  0.0105  0.3065  0.1706
  392loPI   C2B 6270   9.269  12.470   9.494 -0.0327  0.1472 -0.2347
  392loPI   C3B 6271   9.333  12.449   9.105  0.1772  0.1476  0.1168
  392loPI   C4B 6272   9.224  12.428   8.679  0.1544  0.1208 -0.2457
  393loPI    C1 6273   4.542   5.041  11.097 -0.1160  0.0269 -0.0087
  393loPI    C2 6274   4.227   5.188  10.899 -0.2428 -0.1846  0.0329
  393loPI    C3 6275   4.275   5.271  11.287 -0.0765  0.1042 -0.0459
  393loPI   PO4 6276   4.534   4.773  11.003  0.2284 -0.1525 -0.1896
  393loPI   GL1 6277   4.525   4.809  10.646  0.1213 -0.3528  0.2020
  393loPI   GL2 6278   4.249   4.915  10.509 -0.0826 -0.0486  0.0632
  393loPI   C1A 6279   4.787   5.035  10.402 -0.1023 -0.1183  0.0884
  393loPI   C2A 6280   4.686   4.889   9.995  0.1601 -0.2937 -0.1064
  393loPI   C3A 6281   4.774   4.906   9.471  0.1175 -0.0076  0.0372
  393loPI   C4A 6282   4.714   4.899   9.037  0.0702 -0.2532  0.3210
  393loPI   C5A 6283   4.625   4.842   8.622  0.0655 -0.2149  0.0786
  393loPI   C6A 6284   4.582   4.644   8.254  0.1058  0.1283  0.0583
  393loPI   C1B 6285   4.101   4.893  10.124  0.0893  0.0838 -0.0403
  393loPI   C2B 6286   4.164   4.917   9.672 -0.0431 -0.0202 -0.1417
  393loPI   C3B 6287   4.217   4.883   9.227 -0.2268  0.1079  0.2007
  393loPI   C4B 6288   4.113   4.974   8.745  0.0449  0.0136  0.0988
  394loPI    C1 6289   8.421  12.998  11.111 -0.0363  0.0630 -0.0341
  394loPI    C2 6290   8.749  12.980  11.339  0.1394  0.0351 -0.2851
  394loPI    C3 6291   8.465  13.251  11.418  0.1365 -0.0594  0.0434
  394loPI   PO4 6292   8.496  12.896  10.897  0.2581 -0.0669 -0.0574
  394loPI   GL1 6293   8.629  12.758  10.495  0.3133  0.0381 -0.0458
  394loPI   GL2 6294   8.304  12.668  10.324  0.0112 -0.1058  0.0175
  394loPI   C1A 6295   8.626  13.039  10.108  0.0443  0.2916 -0.1728
  394loPI   C2A 6296   8.536  12.985   9.694 -0.1434 -0.0480 -0.1669
  394loPI   C3A 6297   8.510  12.957   9.218 -0.3098 -0.2953  0.0214
  394loPI   C4A 6298   8.476  13.074   8.843 -0.2403 -0.0304  0.0477
  394loPI   C5A 6299   8.492  13.068   8.430 -0.1143 -0.1765 -0.3250
  394loPI   C6A 6300   8.409  12.990   8.067 -0.0096  0.1851 -0.0279
  394loPI   C1B 6301   8.352  12.590   9.899  0.0435  0.1029 -0.2027
  394loPI   C2B 6302   8.293  12.565   9.440 -0.0134  0.0697 -0.3476
  394loPI   C3B 6303   8.266  12.604   9.000 -0.3323 -0.2163  0.0405
  394loPI   C4B 6304   8.277  12.684   8.588 -0.3564 -0.1440 -0.1997
  395loPI    C1 6305  13.107   6.875  11.248 -0.1602 -0.2896 -0.2550
  395loPI    C2 6306  12.710   6.892  11.207 -0.1938 -0.2027  0.0769
  395loPI    C3 6307  12.870   6.766  11.551  0.0670 -0.1846 -0.0353
  395loPI   PO4 6308  13.156   6.786  10.934 -0.3401  0.1288 -0.1015
  395loPI   GL1 6309  12.990   7.036  10.698 -0.0839  0.0040 -0.0122
  395loPI   GL2 6310  12.747   7.195  10.792  0.0508 -0.0221  0.1391
  395loPI   C1A 6311  12.941   6.842  10.316  0.1150 -0.0473 -0.1026
  395loPI   C2A 6312  12.934   6.864   9.939 -0.1704  0.2110  0.0734
  395loPI   C3A 6313  13.080   6.767   9.482 -0.3135  0.0334 -0.1614
  395loPI   C4A 6314  13.001   6.739   9.038  0.3206  0.1335  0.0845
  395loPI   C5A 6315  12.873   7.068   8.701  0.3709 -0.1843 -0.2071
  395loPI   C6A 6316  12.814   7.384   8.400  0.0799 -0.1656  0.1081
  395loPI   C1B 6317  12.687   7.350  10.337  0.0109  0.0473  0.1599
  395loPI   C2B 6318  12.706   7.294   9.857  0.0824 -0.2099 -0.1850
  395loPI   C3B 6319  12.798   7.177   9.439 -0.0867  0.0925  0.0798
  395loPI   C4B 6320  12.800   7.269   9.140 -0.1216  0.0787  0.1718
  396loPI    C1 6321  15.477   4.933  11.487  0.3844  0.0228 -0.1109
  396loPI    C2 6322  15.756   4.938  11.773  0.2661 -0.0293  0.0064
  396loPI    C3 6323  15.405   4.758  11.839  0.1953  0.0563 -0.1318
  396loPI   PO4 6324  15.655   4.873  11.220  0.1159 -0.0401  0.1670
  396loPI   GL1 6325  15.428   4.914  10.735 -0.1780 -0.3081  0.1088
  396loPI   GL2 6326  15.819   5.000  10.708  0.1188 -0.4024  0.0634
  396loPI   C1A 6327  15.503   4.784  10.426 -0.0526 -0.1317  0.1273
  396loPI   C2A 6328  15.409   4.817  10.068 -0.1168  0.1392 -0.1254
  396loPI   C3A 6329  15.530   4.817   9.579 -0.2951  0.0917 -0.0310
  396loPI   C4A 6330  15.455   4.818   9.106 -0.0992  0.1453 -0.0935
  396loPI   C5A 6331  15.510   4.876   8.703  0.0140  0.1185 -0.2981
  396loPI   C6A 6332  15.860   4.742   8.527 -0.3173 -0.1379 -0.0974
  396loPI   C1B 6333  15.734   5.216  10.305 -0.0395 -0.0471 -0.0549
  396loPI   C2B 6334  15.715   5.234   9.859  0.1452 -0.0528 -0.0988
  396loPI   C3B 6335  15.765   5.240   9.449 -0.1093 -0.1304 -0.0524
  396loPI   C4B 6336  15.773   5.278   8.991 -0.0082 -0.3128 -0.0738
  397loPI    C1 6337   4.160   4.417  11.351  0.1371 -0.0426 -0.1682
  397loPI    C2 6338   3.817   4.217  11.303  0.0205  0.0968  0.0664
  397loPI    C3 6339   3.937   4.323  11.670  0.1905  0.2655 -0.0363
  397loPI   PO4 6340   4.245   4.331  11.117 -0.0283 -0.0936  0.3500
  397loPI   GL1 6341   4.275   4.430  10.710 -0.2342  0.1086 -0.2922
  397loPI   GL2 6342   3.946   4.321  10.682 -0.1156  0.0203 -0.2749
  397loPI   C1A 6343   4.442   4.515  10.176 -0.2477 -0.1565  0.0107
  397loPI   C2A 6344   4.442   4.500   9.692  0.3093  0.0307  0.0808
  397loPI   C3A 6345   4.507   4.459   9.289 -0.1488 -0.4171  0.1336
  397loPI   C4A 6346   4.389   4.541   8.872 -0.3072  0.3996  0.1591
  397loPI   C5A 6347   4.150   4.535   8.413  0.1627 -0.2279  0.1680
  397loPI   C6A 6348   4.261   4.316   8.081  0.1337  0.2740 -0.2053
  397loPI   C1B 6349   3.978   4.409  10.295  0.0825  0.0184  0.0977
  397loPI   C2B 6350   3.951   4.476   9.822 -0.1701  0.3127 -0.3231
  397loPI   C3B 6351   3.958   4.466   9.386 -0.1032 -0.2704 -0.0384
  397loPI   C4B 6352   3.922   4.482   8.951 -0.1069 -0.3285  0.2008
  398loPI    C1 6353   9.593  10.857  10.668  0.1815  0.1215  0.0002
  398loPI    C2 6354   9.273  11.023  10.495  0.1446  0.1138  0.0608
  398loPI    C3 6355   9.298  11.005  10.894  0.1047 -0.1103  0.0544
  398loPI   PO4 6356   9.728  10.822  10.472  0.3770 -0.0843  0.0050
  398loPI   GL1 6357   9.780  10.524  10.118  0.0425 -0.1060 -0.3309
  398loPI   GL2 6358   9.712  10.754   9.936 -0.1691 -0.1520  0.1816
  398loPI   C1A 6359   9.997  10.276   9.995  0.0499  0.1961  0.2475
  398loPI   C2A 6360   9.961  10.181   9.593 -0.2418 -0.0144  0.4681
  398loPI   C3A 6361   9.878  10.219   9.165  0.0368 -0.4037  0.3220
  398loPI   C4A 6362   9.847  10.212   8.779 -0.1436  0.0976 -0.0817
  398loPI   C5A 6363   9.722  10.266   8.320  0.0793  0.1688  0.0080
  398loPI   C6A 6364   9.895  10.159   7.906 -0.0712  0.0369  0.1099
  398loPI   C1B 6365   9.768  10.635   9.549 -0.4783 -0.3441  0.4043
  398loPI   C2B 6366   9.664  10.637   9.112  0.0753  0.0803 -0.0561
  398loPI   C3B 6367   9.618  10.616   8.670  0.1340  0.1510  0.1171
  398loPI   C4B 6368   9.499  10.687   8.207 -0.1455  0.1828 -0.1012
  399loPI    C1 6369  14.328   1.030  11.260  0.2062  0.0068  0.0188
  399loPI    C2 6370  14.394   0.812  11.589 -0.0591  0.1158  0.1474
  399loPI    C3 6371  14.245   1.182  11.621 -0.0880  0.1266 -0.0960
  399loPI   PO4 6372  14.520   0.970  11.123 -0.1727 -0.2242  0.2764
  399loPI   GL1 6373  14.481   0.837  10.692 -0.0062 -0.1857  0.0648
  399loPI   GL2 6374  14.825   0.864  10.710 -0.0703  0.0099  0.0720
  399loPI   C1A 6375  14.464   0.942  10.358 -0.2963  0.3786  0.1222
  399loPI   C2A 6376  14.471   0.949   9.883  0.1488 -0.0620 -0.2582
  399loPI   C3A 6377  14.497   0.916   9.454 -0.0636  0.1494 -0.0363
  399loPI   C4A 6378  14.514   0.771   9.007 -0.2817  0.1469  0.2994
  399loPI   C5A 6379  14.205   0.453   8.822  0.2326  0.0266  0.0481
  399loPI   C6A 6380  13.952   0.033   8.824  0.1042  0.1234 -0.0187
  399loPI   C1B 6381  14.961   0.926  10.253 -0.0591 -0.0767 -0.0500
  399loPI   C2B 6382  14.950   0.839   9.776  0.1920  0.3474 -0.1013
  399loPI   C3B 6383  15.010   0.909   9.373  0.1129 -0.0845  0.0875
  399loPI   C4B 6384  15.072   0.826   8.985 -0.3464  0.2116 -0.1360
  400loPI    C1 6385   1.509   3.639  11.139 -0.0142 -0.0285 -0.1266
  400loPI    C2 6386   1.433   3.503  11.507  0.1176 -0.1523 -0.1441
  400loPI    C3 6387   1.406   3.895  11.429  0.0320 -0.1324 -0.0179
  400loPI   PO4 6388   1.411   3.478  11.029 -0.1476 -0.1143  0.1124
  400loPI   GL1 6389   1.553   3.192  10.691  0.0845  0.2594  0.5672
  400loPI   GL2 6390   1.873   3.249  10.724 -0.2539  0.0179  0.0997
  400loPI   C1A 6391   1.553   3.300  10.294  0.0667  0.1535 -0.0289
  400loPI   C2A 6392   1.487   3.291   9.830  0.2515 -0.0377  0.0383
  400loPI   C3A 6393   1.484   3.268   9.415 -0.1505  0.0817 -0.0214
  400loPI   C4A 6394   1.462   3.223   9.043 -0.1902  0.0038 -0.4129
  400loPI   C5A 6395   1.348   3.270   8.637  0.2567  0.3616  0.1030
  400loPI   C6A 6396   1.236   3.238   8.146 -0.0109  0.2421 -0.0780
  400loPI   C1B 6397   2.035   3.294  10.337  0.0186  0.2585 -0.0443
  400loPI   C2B 6398   2.036   3.225   9.923 -0.0758 -0.0399 -0.1808
  400loPI   C3B 6399   2.038   3.278   9.497 -0.0076  0.0881 -0.2410
  400loPI   C4B 6400   1.996   3.254   8.982 -0.2385 -0.0661 -0.0712
  401loPI    C1 6401   0.635   9.795  10.635 -0.1559 -0.0711 -0.1219
  401loPI    C2 6402   1.025   9.881  10.659 -0.1138 -0.2636 -0.0980
  401loPI    C3 6403   0.807   9.843  10.993 -0.1276 -0.2701 -0.1078
  401loPI   PO4 6404   0.695   9.618  10.329  0.1452  0.0761  0.4340
  401loPI   GL1 6405   0.435   9.302  10.149 -0.0226 -0.0370 -0.0221
  401loPI   GL2 6406   0.465   8.958  10.224 -0.1270 -0.0965  0.1443
  401loPI   C1A 6407   0.550   9.210   9.735  0.1515 -0.1189  0.2527
  401loPI   C2A 6408   0.477   9.062   9.304  0.1006 -0.1372 -0.1494
  401loPI   C3A 6409   0.484   9.101   8.894  0.2133 -0.0242  0.1819
  401loPI   C4A 6410   0.492   9.109   8.454 -0.1388 -0.1834 -0.0609
  401loPI   C5A 6411   0.328   9.080   8.077 -0.0147 -0.2297 -0.1563
  401loPI   C6A 6412   0.046   8.785   8.124 -0.2556  0.0591  0.0596
  401loPI   C1B 6413   0.182   8.701   9.971  0.2414  0.0428 -0.1557
  401loPI   C2B 6414   0.188   8.643   9.545  0.1439 -0.0832  0.1252
  401loPI   C3B 6415   0.179   8.678   9.045  0.2929 -0.0357 -0.0096
  401loPI   C4B 6416   0.212   8.749   8.580  0.0203  0.0457 -0.1605
  402loPI    C1 6417   3.306  11.832  10.331 -0.0682  0.2497 -0.0550
  402loPI    C2 6418   3.596  11.928  10.590 -0.2499  0.1029  0.2090
  402loPI    C3 6419   3.576  11.557  10.441 -0.3034  0.1126  0.1918
  402loPI   PO4 6420   3.277  11.944  10.125  0.0970 -0.0477 -0.0576
  402loPI   GL1 6421   3.490  11.994   9.711  0.1501  0.0738  0.2393
  402loPI   GL2 6422   3.651  12.283   9.630 -0.1678 -0.0204  0.3213
  402loPI   C1A 6423   3.463  12.010   9.286 -0.1138 -0.1862 -0.0929
  402loPI   C2A 6424   3.455  12.189   8.968 -0.0322 -0.0867 -0.3585
  402loPI   C3A 6425   3.416  12.208   8.540 -0.2120 -0.0664 -0.0766
  402loPI   C4A 6426   3.511  12.219   8.161 -0.0171  0.0254  0.1991
  402loPI   C5A 6427   3.127  12.368   7.827  0.1316  0.0488  0.2229
  402loPI   C6A 6428   2.797  12.442   7.531 -0.0958 -0.1626  0.0266
  402loPI   C1B 6429   3.763  12.493   9.262 -0.1698 -0.0203  0.1679
  402loPI   C2B 6430   3.722  12.594   8.825 -0.1041 -0.1871  0.0532
  402loPI   C3B 6431   3.750  12.596   8.456  0.1546 -0.2084  0.2029
  402loPI   C4B 6432   3.808  12.676   8.019  0.0210 -0.0274 -0.0540
  403loPI    C1 6433   3.654  14.020  10.699  0.0541  0.0513  0.0945
  403loPI    C2 6434   3.670  13.808  11.038 -0.1093 -0.3099 -0.1165
  403loPI    C3 6435   3.693  13.622  10.685 -0.0426  0.0513 -0.3080
  403loPI   PO4 6436   3.825  14.213  10.754  0.0011  0.0008 -0.1269
  403loPI   GL1 6437   3.850  14.410  10.356  0.0435 -0.2024 -0.1019
  403loPI   GL2 6438   3.633  14.146  10.179  0.0123  0.1809 -0.2443
  403loPI   C1A 6439   3.867  14.645   9.956 -0.1371  0.0729  0.2681
  403loPI   C2A 6440   3.863  14.762   9.491 -0.2306  0.2550  0.1820
  403loPI   C3A 6441   3.901  14.813   9.031 -0.2771 -0.2025  0.0240
  403loPI   C4A 6442   3.838  14.835   8.571 -0.0512  0.0534 -0.4638
  403loPI   C5A 6443   3.646  15.221   8.334 -0.0230 -0.3909  0.2197
  403loPI   C6A 6444   3.676  15.590   8.140  0.1887 -0.0753  0.1056
  403loPI   C1B 6445   3.659  14.215   9.753  0.1716 -0.0660 -0.0630
  403loPI   C2B 6446   3.619  14.313   9.377 -0.2975  0.1647 -0.2105
  403loPI   C3B 6447   3.585  14.421   8.879  0.2190  0.0910  0.2615
  403loPI   C4B 6448   3.515  14.448   8.463 -0.0688  0.1589 -0.2093
  404loPI    C1 6449   2.173  12.009  10.144  0.0754 -0.0333  0.2486
  404loPI    C2 6450   2.045  12.328   9.940  0.1018 -0.1184  0.0976
  404loPI    C3 6451   2.097  12.352  10.335  0.4918  0.1866  0.0345
  404loPI   PO4 6452   2.172  11.830   9.948  0.0141 -0.1134  0.3566
  404loPI   GL1 6453   2.039  11.644   9.532  0.1868  0.0429 -0.0374
  404loPI   GL2 6454   2.178  11.399   9.573 -0.1472 -0.0762 -0.0213
  404loPI   C1A 6455   1.768  11.800   9.214 -0.2414  0.0245  0.0616
  404loPI   C2A 6456   1.787  11.721   8.767 -0.2071  0.0392  0.0120
  404loPI   C3A 6457   1.764  11.745   8.245  0.4417 -0.2378 -0.1010
  404loPI   C4A 6458   1.685  11.712   7.839 -0.1562  0.3410 -0.0610
  404loPI   C5A 6459   1.816  11.499   7.479 -0.0316 -0.3465 -0.1295
  404loPI   C6A 6460   2.111  11.196   7.321 -0.0127  0.3010 -0.0269
  404loPI   C1B 6461   2.185  11.466   9.078 -0.0914  0.1898  0.0059
  404loPI   C2B 6462   2.056  11.288   8.656 -0.0757  0.1958 -0.2436
  404loPI   C3B 6463   1.930  11.256   8.242 -0.1264  0.0580 -0.1477
  404loPI   C4B 6464   1.870  11.186   7.825 -0.2236 -0.2340  0.0293
  405loPI    C1 6465   2.524  10.078  10.377  0.0503  0.1683  0.0161
  405loPI    C2 6466   2.714   9.912  10.688  0.1516  0.1188 -0.0716
  405loPI    C3 6467   2.335  10.033  10.727  0.1756  0.1473  0.0818
  405loPI   PO4 6468   2.502   9.844  10.218  0.1957 -0.1438  0.2954
  405loPI   GL1 6469   2.635   9.522   9.874 -0.0968 -0.2071  0.1028
  405loPI   GL2 6470   2.945   9.618   9.841 -0.1496 -0.0533  0.1190
  405loPI   C1A 6471   2.396   9.515   9.503 -0.1142 -0.2404  0.1222
  405loPI   C2A 6472   2.297   9.387   9.047 -0.1623 -0.1546 -0.4100
  405loPI   C3A 6473   2.225   9.307   8.685  0.2272  0.0767 -0.1162
  405loPI   C4A 6474   2.098   9.649   8.430 -0.1217  0.1828  0.1532
  405loPI   C5A 6475   1.757   9.847   8.083 -0.1186 -0.1039  0.2985
  405loPI   C6A 6476   1.668  10.137   7.749  0.0672 -0.1603 -0.0083
  405loPI   C1B 6477   2.850   9.414   9.398  0.0059 -0.2183  0.2336
  405loPI   C2B 6478   2.810   9.385   8.978 -0.2280  0.0432  0.0248
  405loPI   C3B 6479   2.934   9.319   8.505  0.0078  0.0654  0.0681
  405loPI   C4B 6480   2.909   9.209   7.997 -0.0851  0.3805 -0.0053
  406loPI    C1 6481  13.183  11.323  11.290 -0.0715 -0.0140  0.2937
  406loPI    C2 6482  13.474  11.075  11.409 -0.1198 -0.1834  0.0674
  406loPI    C3 6483  13.118  11.068  11.591 -0.0488 -0.1180  0.2112
  406loPI   PO4 6484  13.109  11.290  11.119  0.0245  0.2815  0.2815
  406loPI   GL1 6485  13.067  11.435  10.697  0.0183 -0.2849 -0.0311
  406loPI   GL2 6486  13.257  11.660  10.756 -0.0848 -0.1546  0.1993
  406loPI   C1A 6487  12.821  11.325  10.375  0.1108  0.1723  0.5039
  406loPI   C2A 6488  12.789  11.318   9.898  0.0159 -0.0818  0.0153
  406loPI   C3A 6489  12.819  11.421   9.464  0.0365  0.0289  0.1567
  406loPI   C4A 6490  12.712  11.352   9.045  0.2413 -0.0199 -0.1080
  406loPI   C5A 6491  12.751  11.441   8.659  0.0569  0.1842 -0.0079
  406loPI   C6A 6492  12.428  11.449   8.381 -0.2659  0.1980 -0.0929
  406loPI   C1B 6493  13.125  11.722  10.271  0.4185 -0.0149 -0.1278
  406loPI   C2B 6494  13.196  11.762   9.874  0.0193 -0.2440  0.5459
  406loPI   C3B 6495  13.145  11.783   9.398  0.4678  0.1330 -0.2214
  406loPI   C4B 6496  13.083  11.749   8.965 -0.0260 -0.0184 -0.0847
  407loPI    C1 6497   7.715   9.028  10.930 -0.2944  0.0169  0.1771
  407loPI    C2 6498   7.869   8.675  11.036  0.0415  0.0362 -0.2219
  407loPI    C3 6499   8.033   9.013  11.172  0.0860  0.0487 -0.3060
  407loPI   PO4 6500   7.683   8.966  10.693  0.3055  0.0119 -0.0484
  407loPI   GL1 6501   7.583   9.102  10.282  0.0379 -0.1244 -0.1076
  407loPI   GL2 6502   7.983   9.089  10.313 -0.1393 -0.0671  0.2712
  407loPI   C1A 6503   7.546   9.136   9.824 -0.0639  0.0474  0.1694
  407loPI   C2A 6504   7.566   9.038   9.355 -0.3034  0.0519  0.1171
  407loPI   C3A 6505   7.498   9.093   8.950  0.2507  0.1212  0.3171
  407loPI   C4A 6506   7.466   9.010   8.555 -0.3817 -0.4122  0.0098
  407loPI   C5A 6507   7.587   8.814   8.151  0.1804  0.0504  0.2414
  407loPI   C6A 6508   7.794   8.677   7.764  0.0756 -0.1848 -0.1493
  407loPI   C1B 6509   8.073   9.058   9.867 -0.3350  0.1923  0.0393
  407loPI   C2B 6510   8.066   9.067   9.336  0.2666 -0.2211 -0.0775
  407loPI   C3B 6511   7.984   8.996   8.915  0.0319 -0.0261 -0.1364
  407loPI   C4B 6512   8.054   8.929   8.490  0.1278 -0.0110  0.5114
  408loPI    C1 6513  14.582  11.519  11.118 -0.0264  0.0311  0.0583
  408loPI    C2 6514  14.393  11.171  11.176 -0.1497  0.0679 -0.1137
  408loPI    C3 6515  14.303  11.489  11.402  0.0966 -0.0595  0.1708
  408loPI   PO4 6516  14.625  11.461  10.857  0.1984  0.1714 -0.1069
  408loPI   GL1 6517  14.386  11.438  10.541 -0.0591  0.1556  0.0286
  408loPI   GL2 6518  14.326  11.192  10.296  0.0929 -0.1201  0.3471
  408loPI   C1A 6519  14.097  11.671  10.149 -0.1528  0.3124  0.0719
  408loPI   C2A 6520  14.165  11.612   9.739  0.0000 -0.0600 -0.1203
  408loPI   C3A 6521  14.130  11.627   9.310 -0.1268  0.3156 -0.4281
  408loPI   C4A 6522  14.159  11.690   8.790 -0.0706 -0.1288  0.1384
  408loPI   C5A 6523  14.150  11.719   8.329 -0.1786  0.2665 -0.1692
  408loPI   C6A 6524  14.349  11.537   8.011  0.1429  0.0491  0.2803
  408loPI   C1B 6525  14.424  11.154   9.887  0.1965  0.0655  0.0162
  408loPI   C2B 6526  14.306  11.148   9.386 -0.1037  0.0946  0.1777
  408loPI   C3B 6527  14.280  11.149   8.952  0.1697 -0.1255  0.0832
  408loPI   C4B 6528  14.264  11.229   8.493  0.1706 -0.1410  0.2633
  409loPI    C1 6529   4.016   7.762  10.764  0.0954  0.2919 -0.2161
  409loPI    C2 6530   4.054   7.560  10.420  0.1399  0.0162 -0.0524
  409loPI    C3 6531   4.377   7.637  10.644  0.0613 -0.1577  0.1234
  409loPI   PO4 6532   3.905   7.984  10.781 -0.2350 -0.0433 -0.1828
  409loPI   GL1 6533   3.769   7.997  10.330  0.1814 -0.0460  0.0019
  409loPI   GL2 6534   4.039   8.069  10.237  0.0329  0.1436 -0.0038
  409loPI   C1A 6535   3.785   7.642  10.002 -0.1815  0.0205  0.0424
  409loPI   C2A 6536   3.846   7.495   9.582  0.1767 -0.0340 -0.2434
  409loPI   C3A 6537   3.775   7.532   9.169  0.1475 -0.0924 -0.4253
  409loPI   C4A 6538   3.750   7.595   8.730  0.0713  0.3214  0.0261
  409loPI   C5A 6539   3.822   7.546   8.286 -0.0328  0.1626  0.1303
  409loPI   C6A 6540   4.022   7.947   8.155 -0.1639  0.1194 -0.0189
  409loPI   C1B 6541   4.086   8.087   9.785  0.1420  0.0117  0.0040
  409loPI   C2B 6542   4.066   7.974   9.353  0.2139 -0.0813  0.0604
  409loPI   C3B 6543   4.018   7.966   9.050  0.1419 -0.0782  0.0370
  409loPI   C4B 6544   4.013   7.967   8.659 -0.3217 -0.0642  0.2767
  410loPI    C1 6545  15.089  10.019  11.146  0.0178 -0.0640 -0.1282
  410loPI    C2 6546  14.866   9.691  11.203 -0.0180 -0.0179  0.0015
  410loPI    C3 6547  14.876   9.977  11.482 -0.0251  0.1142 -0.1321
  410loPI   PO4 6548  15.236   9.962  10.940  0.1874 -0.0958  0.0670
  410loPI   GL1 6549  15.257   9.936  10.486  0.1242 -0.1105  0.2211
  410loPI   GL2 6550  15.407  10.203  10.381 -0.0651  0.1085 -0.1117
  410loPI   C1A 6551  15.009   9.751  10.129 -0.1094  0.0948  0.0701
  410loPI   C2A 6552  14.972   9.701   9.689 -0.0351 -0.1529 -0.2299
  410loPI   C3A 6553  15.004   9.730   9.282  0.1373  0.1209 -0.2071
  410loPI   C4A 6554  14.975   9.780   8.801 -0.0650 -0.0164 -0.1050
  410loPI   C5A 6555  14.849   9.995   8.362  0.1195  0.1264  0.0104
  410loPI   C6A 6556  14.345   9.857   8.401  0.0893 -0.2109 -0.0206
  410loPI   C1B 6557  15.400  10.145   9.983  0.2444 -0.0535  0.0726
  410loPI   C2B 6558  15.259  10.131   9.654  0.1465  0.0048 -0.1275
  410loPI   C3B 6559  15.251  10.175   9.277  0.4005  0.1055  0.3914
  410loPI   C4B 6560  15.280  10.168   8.807  0.0801  0.1585 -0.1390
  411loPI    C1 6561   5.937   7.654  11.193 -0.2080  0.1472  0.1609
  411loPI    C2 6562   6.249   7.430  11.304 -0.2086  0.1337  0.1351
  411loPI    C3 6563   5.879   7.278  11.317 -0.1871  0.0583 -0.0941
  411loPI   PO4 6564   6.023   7.771  10.933 -0.1117 -0.2370  0.2708
  411loPI   GL1 6565   6.106   7.575  10.469 -0.0836 -0.2482  0.0703
  411loPI   GL2 6566   5.828   7.523  10.352 -0.0368 -0.0106  0.0219
  411loPI   C1A 6567   6.286   7.548  10.141  0.2576  0.0659 -0.1851
  411loPI   C2A 6568   6.389   7.423   9.747 -0.1334 -0.1170 -0.4175
  411loPI   C3A 6569   6.469   7.442   9.273 -0.2138 -0.2460 -0.4361
  411loPI   C4A 6570   6.393   7.383   8.806 -0.0540 -0.0406 -0.0504
  411loPI   C5A 6571   6.326   7.376   8.344 -0.0894  0.1807 -0.3978
  411loPI   C6A 6572   6.305   7.035   8.135  0.3087  0.2037 -0.2590
  411loPI   C1B 6573   5.896   7.487   9.894 -0.0545  0.0421 -0.0185
  411loPI   C2B 6574   5.949   7.464   9.450 -0.0263 -0.1439 -0.0886
  411loPI   C3B 6575   5.870   7.479   9.074  0.0603  0.0180  0.0427
  411loPI   C4B 6576   5.889   7.459   8.608  0.1632 -0.1211  0.2433
  412loPI    C1 6577   0.927   1.224  11.217 -0.0797 -0.1175 -0.2783
  412loPI    C2 6578   1.124   0.947  11.006  0.0605 -0.0541 -0.2317
  412loPI    C3 6579   0.952   0.850  11.354  0.4101 -0.0057 -0.0403
  412loPI   PO4 6580   0.781   1.335  11.029  0.0460 -0.1957  0.2958
  412loPI   GL1 6581   0.690   1.479  10.689  0.0008 -0.1880 -0.0947
  412loPI   GL2 6582   0.895   1.192  10.577 -0.0148 -0.0950 -0.0550
  412loPI   C1A 6583   0.867   1.511  10.240 -0.1177 -0.2234  0.2451
  412loPI   C2A 6584   0.874   1.582   9.864  0.1987  0.0146 -0.3228
  412loPI   C3A 6585   0.811   1.608   9.397 -0.0704  0.0370 -0.2184
  412loPI   C4A 6586   0.968   1.474   8.950  0.2474  0.3513  0.0703
  412loPI   C5A 6587   1.038   1.466   8.518 -0.1647  0.2941  0.1630
  412loPI   C6A 6588   1.478   1.320   8.332 -0.1920  0.0740 -0.2198
  412loPI   C1B 6589   1.155   0.993  10.366  0.1275 -0.3087 -0.0926
  412loPI   C2B 6590   1.187   1.204   9.954  0.0799 -0.1767 -0.0090
  412loPI   C3B 6591   1.212   1.079   9.501  0.4913 -0.2466  0.1850
  412loPI   C4B 6592   1.181   1.032   9.001 -0.1005 -0.1241  0.2260
  413loPI    C1 6593   3.265   0.461  11.426  0.1379  0.0057  0.2390
  413loPI    C2 6594   3.611   0.292  11.534  0.3026  0.0212 -0.2441
  413loPI    C3 6595   3.281   0.069  11.505  0.2428  0.0240  0.3110
  413loPI   PO4 6596   3.339   0.557  11.174  0.2083  0.0460 -0.0498
  413loPI   GL1 6597   3.238   0.432  10.771 -0.2395 -0.0104 -0.1702
  413loPI   GL2 6598   2.954   0.470  10.724 -0.1093 -0.0055  0.0840
  413loPI   C1A 6599   3.441   0.507  10.446 -0.0951 -0.2007 -0.1056
  413loPI   C2A 6600   3.448   0.465   9.967 -0.1685  0.0401 -0.1267
  413loPI   C3A 6601   3.395   0.558   9.578  0.2663  0.0173 -0.2274
  413loPI   C4A 6602   3.460   0.567   9.069 -0.0650  0.2915  0.0500
  413loPI   C5A 6603   3.526   0.774   8.680  0.0699  0.0306 -0.2341
  413loPI   C6A 6604   3.583   1.160   8.355  0.3394  0.0745  0.0706
  413loPI   C1B 6605   2.908   0.582  10.273 -0.2127  0.2996  0.1816
  413loPI   C2B 6606   2.983   0.496   9.808 -0.1715 -0.0858 -0.0540
  413loPI   C3B 6607   2.872   0.560   9.444 -0.0205 -0.1002  0.1097
  413loPI   C4B 6608   2.943   0.538   8.977 -0.2175 -0.0884 -0.1970
  414loPI    C1 6609   6.553   9.128  11.414 -0.0111  0.3436 -0.0536
  414loPI    C2 6610   6.162   9.044  11.431  0.0773 -0.1510 -0.2769
  414loPI    C3 6611   6.406   8.921  11.724  0.0919  0.0202 -0.2160
  414loPI   PO4 6612   6.557   9.159  11.155 -0.0781 -0.1386 -0.0727
  414loPI   GL1 6613   6.620   9.014  10.691  0.3510  0.1188 -0.0959
  414loPI   GL2 6614   6.309   8.912  10.511 -0.1228  0.2719 -0.0710
  414loPI   C1A 6615   6.599   9.255  10.166 -0.2368 -0.3886 -0.1813
  414loPI   C2A 6616   6.529   9.172   9.702  0.1462 -0.3882 -0.5348
  414loPI   C3A 6617   6.451   9.223   9.258  0.2874  0.2423  0.0454
  414loPI   C4A 6618   6.439   9.246   8.833 -0.0799 -0.2022  0.0191
  414loPI   C5A 6619   6.407   9.163   8.426 -0.0079  0.0717  0.0501
  414loPI   C6A 6620   6.337   8.763   8.237  0.0674  0.0287 -0.2737
  414loPI   C1B 6621   6.338   8.837   9.962  0.3040  0.2842 -0.1183
  414loPI   C2B 6622   6.139   8.837   9.587 -0.2291  0.2241  0.3379
  414loPI   C3B 6623   6.174   8.725   9.141  0.1282  0.1240 -0.4270
  414loPI   C4B 6624   6.293   8.757   8.729  0.1618 -0.2338 -0.0960
  415loPI    C1 6625   5.304   3.265  11.319  0.1026  0.0428 -0.0285
  415loPI    C2 6626   4.946   3.347  11.477  0.0436  0.0901 -0.1846
  415loPI    C3 6627   5.107   2.984  11.524 -0.1078  0.0113 -0.2680
  415loPI   PO4 6628   5.283   3.401  11.117 -0.0068  0.0664  0.0295
  415loPI   GL1 6629   5.097   3.452  10.709 -0.2518  0.2879 -0.1275
  415loPI   GL2 6630   5.412   3.460  10.553  0.2216  0.3344 -0.3130
  415loPI   C1A 6631   4.958   3.551  10.349  0.0605 -0.0705  0.0268
  415loPI   C2A 6632   4.959   3.614   9.904 -0.1465 -0.2062 -0.1476
  415loPI   C3A 6633   4.948   3.565   9.507 -0.1375 -0.5290 -0.5254
  415loPI   C4A 6634   4.873   3.612   9.147 -0.0224  0.1590 -0.2511
  415loPI   C5A 6635   4.766   3.582   8.821  0.2660 -0.0633 -0.1466
  415loPI   C6A 6636   5.025   3.445   8.486 -0.1766 -0.0772 -0.0776
  415loPI   C1B 6637   5.460   3.499  10.090 -0.1774 -0.1310 -0.0217
  415loPI   C2B 6638   5.471   3.582   9.713  0.2486  0.4057  0.0671
  415loPI   C3B 6639   5.485   3.578   9.205 -0.1648 -0.0142 -0.0126
  415loPI   C4B 6640   5.403   3.583   8.770 -0.3183 -0.1734  0.1548
  416loPI    C1 6641  16.474   8.693  11.115 -0.0785  0.0260 -0.1067
  416loPI    C2 6642  16.463   8.304  11.211  0.1159  0.0033 -0.1716
  416loPI    C3 6643  16.763   8.534  11.342 -0.0766  0.1658 -0.0105
  416loPI   PO4 6644  16.533   8.750  10.862 -0.0662 -0.3043  0.2733
  416loPI   GL1 6645  16.660   8.684  10.442 -0.0078 -0.0565  0.2467
  416loPI   GL2 6646  16.837   8.338  10.339 -0.2021 -0.1845  0.0466
  416loPI   C1A 6647  16.534   8.798   9.975  0.1580  0.1245 -0.1065
  416loPI   C2A 6648  16.519   8.653   9.626  0.0335  0.1665  0.3086
  416loPI   C3A 6649  16.399   8.798   9.223  0.0962 -0.3250  0.1031
  416loPI   C4A 6650  16.520   8.763   8.744  0.1437 -0.2787 -0.0262
  416loPI   C5A 6651  16.460   8.637   8.306 -0.0737  0.0485  0.3454
  416loPI   C6A 6652  16.601   8.401   8.056  0.2675  0.0117 -0.2414
  416loPI   C1B 6653  16.777   8.261   9.939  0.1003 -0.3338 -0.2621
  416loPI   C2B 6654  16.775   8.228   9.523 -0.1705  0.1424 -0.1425
  416loPI   C3B 6655  16.696   8.405   9.052  0.0988 -0.0902  0.2116
  416loPI   C4B 6656  16.739   8.327   8.580  0.3156 -0.0790 -0.0217
  417loPI    C1 6657   1.680   2.937  11.083 -0.1291  0.1762 -0.1160
  417loPI    C2 6658   1.550   3.012  11.454  0.1130  0.0777 -0.0090
  417loPI    C3 6659   1.817   3.256  11.282  0.0700  0.0725 -0.0833
  417loPI   PO4 6660   1.722   2.759  11.026  0.1560 -0.3220 -0.0609
  417loPI   GL1 6661   1.872   2.513  10.738  0.2377 -0.0328 -0.0568
  417loPI   GL2 6662   1.859   2.802  10.522 -0.0528 -0.2357  0.3051
  417loPI   C1A 6663   1.987   2.412  10.274 -0.3719  0.0421  0.3243
  417loPI   C2A 6664   2.043   2.425   9.880  0.0252  0.1055  0.1262
  417loPI   C3A 6665   1.964   2.396   9.481  0.3828  0.0986 -0.2614
  417loPI   C4A 6666   1.953   2.403   8.982  0.2416 -0.1679  0.0842
  417loPI   C5A 6667   1.760   2.435   8.560 -0.0691 -0.0266  0.1137
  417loPI   C6A 6668   1.854   2.759   8.307 -0.0317 -0.3174 -0.3312
  417loPI   C1B 6669   1.737   2.840  10.118  0.0744  0.0684 -0.2012
  417loPI   C2B 6670   1.734   2.851   9.692  0.2205  0.0667  0.1374
  417loPI   C3B 6671   1.738   2.792   9.213  0.0097  0.0547  0.1422
  417loPI   C4B 6672   1.590   2.859   8.763 -0.0542  0.1118 -0.0793
  418loPI    C1 6673   3.227   2.369  11.298  0.0536 -0.1757  0.0266
  418loPI    C2 6674   3.428   2.092  11.505  0.2560 -0.0227  0.0372
  418loPI    C3 6675   3.360   2.451  11.666 -0.2055 -0.1382  0.1143
  418loPI   PO4 6676   3.274   2.381  11.102  0.2134  0.1801 -0.1804
  418loPI   GL1 6677   3.478   2.371  10.737 -0.1246  0.0290 -0.0260
  418loPI   GL2 6678   3.600   2.678  10.802  0.0768 -0.0075 -0.1933
  418loPI   C1A 6679   3.510   2.251  10.278 -0.1914 -0.1643  0.0364
  418loPI   C2A 6680   3.574   2.293   9.940 -0.0001  0.0426  0.1389
  418loPI   C3A 6681   3.504   2.277   9.441 -0.0726 -0.3212 -0.0249
  418loPI   C4A 6682   3.556   2.328   8.909  0.4553 -0.2459 -0.1217
  418loPI   C5A 6683   3.809   2.711   8.704  0.0102 -0.2409  0.0724
  418loPI   C6A 6684   3.925   2.777   8.365  0.2493 -0.0172  0.2574
  418loPI   C1B 6685   3.811   2.713  10.397  0.0277 -0.0107 -0.0813
  418loPI   C2B 6686   3.901   2.679   9.998 -0.1926 -0.0403 -0.0831
  418loPI   C3B 6687   3.813   2.752   9.700  0.0607 -0.1519  0.0016
  418loPI   C4B 6688   3.749   2.703   9.231 -0.2385 -0.1021 -0.0322
  419loPI    C1 6689  10.410  12.093  11.023 -0.0962 -0.2047 -0.1329
  419loPI    C2 6690  10.504  12.411  10.799 -0.1140 -0.1922 -0.1227
  419loPI    C3 6691  10.259  12.453  11.112  0.0354 -0.1802 -0.0061
  419loPI   PO4 6692  10.259  11.888  10.895  0.0148 -0.0390 -0.1140
  419loPI   GL1 6693  10.343  12.016  10.422 -0.0766  0.0468  0.1468
  419loPI   GL2 6694  10.662  12.147  10.392 -0.0746  0.3882  0.2737
  419loPI   C1A 6695  10.048  12.096  10.129  0.2973  0.2074  0.1191
  419loPI   C2A 6696   9.998  12.111   9.712  0.0218 -0.0571 -0.0007
  419loPI   C3A 6697   9.990  11.960   9.380  0.0568  0.2728  0.2524
  419loPI   C4A 6698  10.050  11.981   8.949  0.0791 -0.2090  0.0794
  419loPI   C5A 6699   9.970  11.893   8.570  0.2032 -0.4025 -0.1899
  419loPI   C6A 6700  10.178  11.505   8.438  0.0257 -0.0952  0.2346
  419loPI   C1B 6701  10.630  12.024   9.987  0.2146  0.2206 -0.0766
  419loPI   C2B 6702  10.539  11.998   9.537  0.1954  0.1856 -0.0107
  419loPI   C3B 6703  10.569  11.966   9.082  0.2554 -0.1421  0.2104
  419loPI   C4B 6704  10.536  11.820   8.679 -0.1049 -0.0325  0.0915
  420loPI    C1 6705   2.077   0.109  11.179 -0.1168 -0.0375 -0.0063
  420loPI    C2 6706   2.291   0.122  11.517 -0.1065  0.0223 -0.0150
  420loPI    C3 6707   2.285  -0.212  11.297 -0.1515 -0.0325  0.0688
  420loPI   PO4 6708   1.999   0.412  11.213 -0.0081 -0.0101  0.1516
  420loPI   GL1 6709   2.077   0.559  10.841  0.3215  0.2479 -0.0833
  420loPI   GL2 6710   1.996   0.230  10.661 -0.3750 -0.1125  0.1608
  420loPI   C1A 6711   1.924   0.641  10.386  0.0309  0.2892 -0.3051
  420loPI   C2A 6712   1.889   0.640  10.008  0.1039 -0.1319 -0.0225
  420loPI   C3A 6713   1.843   0.672   9.593  0.2181 -0.3262  0.2409
  420loPI   C4A 6714   1.908   0.654   9.153  0.2932  0.2092 -0.1019
  420loPI   C5A 6715   1.905   0.598   8.742  0.0162  0.0739 -0.0670
  420loPI   C6A 6716   1.972   0.489   8.268  0.1569  0.1521  0.2238
  420loPI   C1B 6717   2.154   0.147  10.244  0.1185 -0.1590 -0.0985
  420loPI   C2B 6718   2.115   0.223   9.841  0.2758  0.1838 -0.2247
  420loPI   C3B 6719   2.153   0.271   9.404  0.1387 -0.1920 -0.4858
  420loPI   C4B 6720   2.103   0.202   8.996  0.3546 -0.0840 -0.0398
  421loPI    C1 6721  12.424   4.665  11.136  0.0083  0.0782 -0.0163
  421loPI    C2 6722  12.240   4.826  11.453 -0.2553 -0.0369 -0.1077
  421loPI    C3 6723  12.353   4.442  11.460 -0.1972 -0.0202 -0.1267
  421loPI   PO4 6724  12.328   4.692  10.936 -0.0809  0.3844 -0.0377
  421loPI   GL1 6725  11.991   4.617  10.721  0.1315 -0.3265 -0.1128
  421loPI   GL2 6726  11.681   4.691  10.744 -0.1472 -0.2320  0.0235
  421loPI   C1A 6727  12.138   4.675  10.265  0.0555 -0.1672 -0.2020
  421loPI   C2A 6728  12.093   4.624   9.901  0.2457  0.0106 -0.0130
  421loPI   C3A 6729  12.101   4.608   9.475 -0.1982  0.1329 -0.1368
  421loPI   C4A 6730  12.085   4.604   8.954  0.0423 -0.2228 -0.1798
  421loPI   C5A 6731  11.845   4.663   8.656 -0.0212 -0.2054  0.1272
  421loPI   C6A 6732  11.397   4.852   8.510 -0.1179  0.0094 -0.0927
  421loPI   C1B 6733  11.628   4.609  10.317  0.1058  0.1453 -0.2678
  421loPI   C2B 6734  11.600   4.711   9.854  0.2076 -0.0647 -0.0444
  421loPI   C3B 6735  11.552   4.666   9.455 -0.2288  0.1178 -0.0101
  421loPI   C4B 6736  11.491   4.664   8.970 -0.1043 -0.1621 -0.3521
  422loPI    C1 6737   3.816  16.158  11.202  0.0173  0.1352  0.0715
  422loPI    C2 6738   4.057  16.118  11.518  0.2075  0.3181 -0.0474
  422loPI    C3 6739   3.709  16.311  11.555  0.0921  0.0829  0.1170
  422loPI   PO4 6740   4.032  16.062  10.943  0.0982 -0.2247  0.0788
  422loPI   GL1 6741   3.917  16.150  10.524  0.3012 -0.1133  0.3196
  422loPI   GL2 6742   4.014  15.905  10.363 -0.2948  0.2842 -0.1483
  422loPI   C1A 6743   3.882  16.423  10.161  0.0652  0.1385  0.2203
  422loPI   C2A 6744   3.914  16.428   9.782 -0.3713 -0.2805 -0.2546
  422loPI   C3A 6745   3.829  16.465   9.319  0.1137  0.2071 -0.0296
  422loPI   C4A 6746   3.917  16.495   8.907 -0.1342  0.0417  0.1376
  422loPI   C5A 6747   3.960  16.614   8.634 -0.0699  0.1705 -0.0165
  422loPI   C6A 6748   4.269  16.627   8.323  0.1836 -0.0071 -0.1629
  422loPI   C1B 6749   4.134  15.943   9.946 -0.1501  0.2680  0.1163
  422loPI   C2B 6750   4.091  16.048   9.473  0.0147  0.1573 -0.1693
  422loPI   C3B 6751   4.136  16.090   9.056  0.0736 -0.0582  0.2681
  422loPI   C4B 6752   4.236  16.131   8.647 -0.0944 -0.0063  0.1166
  423loPI    C1 6753   3.625  15.760  10.999  0.0301  0.0203  0.1339
  423loPI    C2 6754   3.895  15.640  11.269  0.0796 -0.0800  0.0409
  423loPI    C3 6755   3.514  15.521  11.300  0.0381  0.0875  0.1902
  423loPI   PO4 6756   3.663  15.703  10.774 -0.1731 -0.0579 -0.0208
  423loPI   GL1 6757   3.500  15.762  10.396  0.1024 -0.2759 -0.3052
  423loPI   GL2 6758   3.405  15.444  10.270 -0.2840  0.1167 -0.1688
  423loPI   C1A 6759   3.598  16.020  10.064 -0.0818  0.2230  0.0649
  423loPI   C2A 6760   3.648  16.048   9.642  0.0007  0.0376 -0.2727
  423loPI   C3A 6761   3.574  16.030   9.253 -0.0579 -0.2323  0.1190
  423loPI   C4A 6762   3.684  16.067   8.795 -0.0214  0.4235  0.0930
  423loPI   C5A 6763   3.767  16.176   8.417 -0.0380 -0.3057 -0.1512
  423loPI   C6A 6764   3.884  16.437   8.115 -0.0399 -0.0192 -0.3075
  423loPI   C1B 6765   3.361  15.612   9.864 -0.3252  0.2725 -0.2018
  423loPI   C2B 6766   3.279  15.651   9.388  0.1330 -0.0014 -0.1640
  423loPI   C3B 6767   3.286  15.622   9.008 -0.0684 -0.0058  0.2537
  423loPI   C4B 6768   3.373  15.738   8.559  0.3333  0.1135 -0.0070
  424loPI    C1 6769  17.106  10.549  10.744 -0.1401 -0.0221 -0.0370
  424loPI    C2 6770  17.335  10.333  10.991 -0.2860 -0.0102  0.1106
  424loPI    C3 6771  17.331  10.732  11.020  0.1606  0.0350 -0.3136
  424loPI   PO4 6772  17.149  10.406  10.511  0.1035 -0.0831 -0.1010
  424loPI   GL1 6773  16.972  10.526  10.172 -0.0943 -0.1725  0.3311
  424loPI   GL2 6774  16.944  10.785  10.028  0.0729  0.0125  0.0702
  424loPI   C1A 6775  16.647  10.454   9.791 -0.2840 -0.1868 -0.0199
  424loPI   C2A 6776  16.539  10.431   9.418 -0.0863  0.2677  0.1054
  424loPI   C3A 6777  16.632  10.543   8.941  0.0026  0.0231  0.1114
  424loPI   C4A 6778  16.733  10.514   8.556 -0.5097 -0.1468  0.0011
  424loPI   C5A 6779  16.539  10.445   8.173  0.2726 -0.0963 -0.0421
  424loPI   C6A 6780  16.808  10.436   7.892  0.1478  0.1537 -0.1272
  424loPI   C1B 6781  16.946  10.980   9.596  0.3054  0.0500 -0.1447
  424loPI   C2B 6782  16.929  11.076   9.188 -0.0549  0.3266  0.2954
  424loPI   C3B 6783  16.915  10.999   8.734 -0.0057  0.1833 -0.1743
  424loPI   C4B 6784  16.863  10.874   8.239 -0.0677  0.1181 -0.0374
  425loPI    C1 6785   7.648   1.338  11.053  0.0422 -0.0619 -0.1868
  425loPI    C2 6786   7.747   1.542  11.382 -0.0568 -0.0950 -0.1362
  425loPI    C3 6787   7.367   1.537  11.257 -0.0331 -0.1480 -0.2060
  425loPI   PO4 6788   7.698   1.462  10.856 -0.0607 -0.1991 -0.0216
  425loPI   GL1 6789   7.717   1.582  10.393 -0.0179  0.0286 -0.3522
  425loPI   GL2 6790   7.420   1.758  10.188 -0.0225  0.2000  0.1052
  425loPI   C1A 6791   7.896   1.613  10.019 -0.2392 -0.0524 -0.2911
  425loPI   C2A 6792   8.038   1.713   9.611  0.1174 -0.2240  0.4265
  425loPI   C3A 6793   7.997   1.677   9.158  0.2100 -0.0272  0.0373
  425loPI   C4A 6794   7.858   1.700   8.790  0.1656 -0.4502  0.0431
  425loPI   C5A 6795   8.045   1.777   8.290 -0.0310  0.1545 -0.1399
  425loPI   C6A 6796   7.977   1.929   7.873  0.2755 -0.0235  0.0319
  425loPI   C1B 6797   7.485   1.719   9.807 -0.0220  0.0436 -0.4017
  425loPI   C2B 6798   7.363   1.735   9.370 -0.0651  0.1994  0.1423
  425loPI   C3B 6799   7.366   1.706   8.933 -0.1889  0.0430 -0.0205
  425loPI   C4B 6800   7.275   1.689   8.598 -0.0500  0.2039 -0.0378
  426loPI    C1 6801   0.650  14.301  10.523  0.1937 -0.1284 -0.1726
  426loPI    C2 6802   0.666  14.479  10.882  0.0094 -0.1034 -0.1757
  426loPI    C3 6803   0.726  14.085  10.851 -0.0589 -0.1194 -0.1060
  426loPI   PO4 6804   0.786  14.507  10.354 -0.0140 -0.0708  0.1529
  426loPI   GL1 6805   0.871  14.807  10.044  0.1290 -0.0559 -0.2924
  426loPI   GL2 6806   1.139  14.847   9.818  0.2332 -0.2344  0.0721
  426loPI   C1A 6807   0.619  14.913   9.651 -0.1514 -0.2831 -0.0729
  426loPI   C2A 6808   0.694  14.963   9.202 -0.3885 -0.1095  0.0021
  426loPI   C3A 6809   0.661  15.047   8.751  0.0159 -0.3371 -0.1972
  426loPI   C4A 6810   0.606  15.108   8.335 -0.0760 -0.0478  0.1741
  426loPI   C5A 6811   0.687  15.120   7.911  0.1449 -0.1465  0.0535
  426loPI   C6A 6812   0.924  15.092   7.560 -0.2778 -0.1450  0.0969
  426loPI   C1B 6813   1.221  14.903   9.330  0.0879 -0.2814 -0.1595
  426loPI   C2B 6814   1.177  14.973   8.888  0.0575 -0.1503 -0.1286
  426loPI   C3B 6815   1.121  15.046   8.437  0.0427 -0.0315  0.1983
  426loPI   C4B 6816   1.210  15.239   7.953  0.0225  0.2022 -0.1903
  427loPI    C1 6817   5.784  13.133  10.607 -0.2165  0.2382  0.1725
  427loPI    C2 6818   5.892  12.777  10.460 -0.0491  0.4062 -0.1218
  427loPI    C3 6819   5.621  12.798  10.753  0.1652  0.0207  0.1139
  427loPI   PO4 6820   5.709  13.264  10.417  0.1173 -0.0474  0.2193
  427loPI   GL1 6821   5.810  13.241  10.103  0.1181 -0.0092 -0.0015
  427loPI   GL2 6822   5.399  13.260  10.040  0.1292 -0.0042 -0.1314
  427loPI   C1A 6823   6.031  13.202   9.704  0.0604  0.0078  0.3722
  427loPI   C2A 6824   5.969  13.200   9.272  0.1945 -0.1221  0.0762
  427loPI   C3A 6825   5.922  13.253   8.784  0.1239 -0.0107 -0.1117
  427loPI   C4A 6826   5.927  13.382   8.367  0.0682 -0.1019  0.0914
  427loPI   C5A 6827   6.105  13.380   7.942 -0.3151  0.1998  0.0697
  427loPI   C6A 6828   6.121  13.577   7.547 -0.0625  0.3054 -0.1479
  427loPI   C1B 6829   5.503  13.252   9.611  0.1404 -0.1114  0.0913
  427loPI   C2B 6830   5.445  13.235   9.154 -0.3182  0.1871  0.0021
  427loPI   C3B 6831   5.412  13.297   8.732  0.0982 -0.1289 -0.0275
  427loPI   C4B 6832   5.393  13.300   8.207 -0.0939  0.0604 -0.0058
  428loPI    C1 6833   8.095   4.614  10.943 -0.0652  0.1301  0.0169
  428loPI    C2 6834   8.280   4.515  11.284 -0.0282  0.1526  0.0034
  428loPI    C3 6835   7.920   4.691  11.294 -0.1638 -0.1211  0.0246
  428loPI   PO4 6836   8.292   4.384  10.679 -0.0521 -0.0723 -0.1582
  428loPI   GL1 6837   8.212   4.210  10.276 -0.1919  0.0167 -0.1319
  428loPI   GL2 6838   8.443   4.007  10.245  0.0181 -0.2224 -0.0962
  428loPI   C1A 6839   8.202   4.556  10.019  0.3210 -0.1807 -0.1890
  428loPI   C2A 6840   8.112   4.518   9.604 -0.0729  0.0010  0.1639
  428loPI   C3A 6841   8.098   4.441   9.204  0.1265  0.1275  0.2161
  428loPI   C4A 6842   8.071   4.412   8.819 -0.0913  0.3377 -0.1456
  428loPI   C5A 6843   8.064   4.098   8.401 -0.0541 -0.2922 -0.0530
  428loPI   C6A 6844   8.155   4.060   7.975  0.0776  0.0924  0.0507
  428loPI   C1B 6845   8.402   4.078   9.779  0.0180 -0.1521  0.3781
  428loPI   C2B 6846   8.325   4.009   9.329  0.4666  0.1186  0.0986
  428loPI   C3B 6847   8.362   3.893   8.956 -0.0711 -0.2743 -0.0418
  428loPI   C4B 6848   8.561   3.906   8.548 -0.1926 -0.1025  0.0339
  429loPI    C1 6849   5.512   1.428  11.265  0.2581  0.1521  0.0699
  429loPI    C2 6850   5.261   1.487  11.571  0.2357  0.3955  0.0073
  429loPI    C3 6851   5.592   1.268  11.622  0.0230  0.0881  0.0952
  429loPI   PO4 6852   5.327   1.315  10.987  0.2574  0.0616 -0.3131
  429loPI   GL1 6853   5.164   1.189  10.655  0.2144 -0.1006 -0.2124
  429loPI   GL2 6854   5.477   1.119  10.465 -0.2008 -0.1492  0.0935
  429loPI   C1A 6855   5.033   1.305  10.301  0.2559  0.0326  0.0206
  429loPI   C2A 6856   4.949   1.358   9.852 -0.0801  0.6221  0.1575
  429loPI   C3A 6857   5.062   1.390   9.518 -0.0429  0.1695 -0.2885
  429loPI   C4A 6858   5.054   1.252   9.023  0.1212 -0.1577  0.0857
  429loPI   C5A 6859   4.967   1.219   8.622  0.1948  0.1558  0.1179
  429loPI   C6A 6860   4.929   1.229   8.249  0.0068  0.2173 -0.2090
  429loPI   C1B 6861   5.596   1.360  10.123  0.0434 -0.0829 -0.2049
  429loPI   C2B 6862   5.653   1.424   9.718  0.0229 -0.2227  0.2191
  429loPI   C3B 6863   5.531   1.299   9.232  0.0117  0.2221  0.0996
  429loPI   C4B 6864   5.475   1.192   8.800 -0.1002  0.2554 -0.0854
  430loPI    C1 6865  15.640   8.672  11.087 -0.1341  0.2787 -0.1671
  430loPI    C2 6866  15.328   8.517  11.283  0.0630  0.0418 -0.0352
  430loPI    C3 6867  15.609   8.720  11.483  0.1908 -0.0771 -0.0924
  430loPI   PO4 6868  15.581   8.418  10.870 -0.0423  0.1146 -0.0831
  430loPI   GL1 6869  15.398   8.467  10.472 -0.0122 -0.1468  0.2442
  430loPI   GL2 6870  15.402   8.738  10.388 -0.2202 -0.1636 -0.1756
  430loPI   C1A 6871  15.113   8.499  10.096  0.1145  0.1237  0.1208
  430loPI   C2A 6872  15.138   8.357   9.751  0.1235 -0.0655  0.1231
  430loPI   C3A 6873  15.135   8.465   9.291  0.0224 -0.1595 -0.1038
  430loPI   C4A 6874  15.148   8.401   8.780  0.2431 -0.0714 -0.0400
  430loPI   C5A 6875  15.447   8.316   8.506  0.2227 -0.1948  0.3328
  430loPI   C6A 6876  15.503   7.913   8.206 -0.0356 -0.0595 -0.1261
  430loPI   C1B 6877  15.376   8.880   9.975 -0.1180 -0.1049  0.4040
  430loPI   C2B 6878  15.431   8.813   9.533  0.1283 -0.4035 -0.0915
  430loPI   C3B 6879  15.399   8.807   9.069 -0.1090  0.3691  0.0847
  430loPI   C4B 6880  15.483   8.830   8.728 -0.2201  0.1875  0.2067
  431loPI    C1 6881   6.352   4.092  11.136  0.0269 -0.1896  0.0171
  431loPI    C2 6882   6.081   3.845  11.296  0.0194 -0.1188  0.1150
  431loPI    C3 6883   6.462   3.830  11.418 -0.0639  0.2064  0.4335
  431loPI   PO4 6884   6.336   4.134  10.863 -0.0374  0.0966 -0.0293
  431loPI   GL1 6885   6.463   4.170  10.443 -0.0638 -0.0663 -0.2709
  431loPI   GL2 6886   6.615   4.470  10.224  0.1952 -0.0229 -0.0161
  431loPI   C1A 6887   6.394   4.015  10.044  0.2464 -0.2333  0.1207
  431loPI   C2A 6888   6.243   3.995   9.686 -0.0118 -0.1826  0.3431
  431loPI   C3A 6889   6.283   3.979   9.242 -0.3982 -0.0546 -0.1248
  431loPI   C4A 6890   6.223   3.945   8.855 -0.1082 -0.1957  0.0382
  431loPI   C5A 6891   6.135   3.827   8.485  0.0510  0.0832  0.2111
  431loPI   C6A 6892   6.150   3.311   8.404 -0.0455 -0.0996  0.0001
  431loPI   C1B 6893   6.531   4.496   9.769 -0.0029 -0.0036 -0.0821
  431loPI   C2B 6894   6.550   4.445   9.365 -0.1386  0.0294  0.0103
  431loPI   C3B 6895   6.498   4.408   8.935 -0.0400  0.0009  0.1591
  431loPI   C4B 6896   6.453   4.247   8.550 -0.0382 -0.3725  0.0421
  432loPI    C1 6897  15.571  16.828  11.458 -0.0459  0.0441  0.0398
  432loPI    C2 6898  15.434  16.839  11.833  0.2859  0.0769  0.1636
  432loPI    C3 6899  15.688  16.551  11.721 -0.0761 -0.1361 -0.1339
  432loPI   PO4 6900  15.387  16.861  11.173  0.0472 -0.0394 -0.0826
  432loPI   GL1 6901  15.149  16.880  10.754  0.0558  0.2014  0.1023
  432loPI   GL2 6902  15.431  16.918  10.617 -0.3176  0.0816  0.0223
  432loPI   C1A 6903  14.981  16.927  10.392  0.0723 -0.0621 -0.1890
  432loPI   C2A 6904  14.986  16.914   9.999 -0.1255 -0.1064 -0.0936
  432loPI   C3A 6905  15.049  16.805   9.610 -0.0112 -0.1474  0.0453
  432loPI   C4A 6906  14.953  16.951   9.187  0.0016 -0.4076  0.3591
  432loPI   C5A 6907  14.959  16.882   8.724  0.1229 -0.1309 -0.0848
  432loPI   C6A 6908  15.124  17.111   8.402 -0.2372  0.2436 -0.2848
  432loPI   C1B 6909  15.481  16.882  10.178  0.0969  0.3006  0.0117
  432loPI   C2B 6910  15.532  16.868   9.767  0.2572 -0.1125 -0.0098
  432loPI   C3B 6911  15.432  16.860   9.255  0.3922  0.1054  0.1016
  432loPI   C4B 6912  15.464  16.866   8.805 -0.0289  0.0388 -0.3227
  433loPI    C1 6913  10.221   6.309  10.955  0.0923  0.1888 -0.1296
  433loPI    C2 6914  10.080   6.368  11.324 -0.1941  0.2384 -0.2443
  433loPI    C3 6915  10.351   6.082  11.257 -0.1013  0.2638  0.0119
  433loPI   PO4 6916  10.165   6.467  10.791  0.0778  0.0150 -0.0972
  433loPI   GL1 6917   9.894   6.768  10.560  0.2479  0.1321  0.1354
  433loPI   GL2 6918  10.145   6.645  10.280 -0.1438 -0.0065 -0.1287
  433loPI   C1A 6919   9.670   6.802  10.236  0.0121  0.0551  0.2444
  433loPI   C2A 6920   9.597   6.659   9.891  0.1042 -0.2354 -0.0748
  433loPI   C3A 6921   9.505   6.741   9.495  0.4695 -0.1693  0.4209
  433loPI   C4A 6922   9.511   6.679   9.068 -0.0920  0.0513  0.1773
  433loPI   C5A 6923   9.431   6.601   8.646  0.0522  0.0984  0.4581
  433loPI   C6A 6924   9.397   6.493   8.249  0.1316 -0.2053  0.2380
  433loPI   C1B 6925  10.120   6.568   9.796  0.0532  0.1579 -0.1244
  433loPI   C2B 6926  10.117   6.575   9.366 -0.0325  0.0008 -0.1472
  433loPI   C3B 6927  10.005   6.605   8.943  0.1506 -0.1257  0.1248
  433loPI   C4B 6928   9.940   6.543   8.514 -0.1846  0.3056  0.0094
  434loPI    C1 6929   5.717   3.041  11.510 -0.0729 -0.0034 -0.2585
  434loPI    C2 6930   5.696   3.439  11.548 -0.0268 -0.0110 -0.1495
  434loPI    C3 6931   5.501   3.203  11.806  0.0016 -0.0600 -0.1726
  434loPI   PO4 6932   5.738   3.039  11.245 -0.0920  0.1521 -0.0965
  434loPI   GL1 6933   5.612   3.043  10.774  0.1824  0.4494  0.1411
  434loPI   GL2 6934   5.330   2.957  10.726  0.0936  0.2801  0.3137
  434loPI   C1A 6935   5.684   3.065  10.381 -0.1081  0.3489  0.1668
  434loPI   C2A 6936   5.726   3.181   9.884 -0.1141 -0.4280  0.2060
  434loPI   C3A 6937   5.695   3.133   9.455  0.1825  0.1615 -0.0572
  434loPI   C4A 6938   5.644   3.092   9.057 -0.0644 -0.3968 -0.1922
  434loPI   C5A 6939   5.603   3.097   8.602 -0.2805 -0.2479 -0.1214
  434loPI   C6A 6940   5.785   2.962   8.174  0.3598 -0.2722 -0.0801
  434loPI   C1B 6941   5.145   3.103  10.305 -0.2116 -0.3178  0.1950
  434loPI   C2B 6942   5.187   3.153   9.848  0.0319  0.1128  0.0371
  434loPI   C3B 6943   5.197   3.117   9.376  0.1982 -0.0197  0.1079
  434loPI   C4B 6944   5.148   3.167   8.968  0.0372 -0.2656  0.4900
  435loPI    C1 6945   7.979  11.921  10.914 -0.1160 -0.0893 -0.0382
  435loPI    C2 6946   8.270  12.029  11.166 -0.2913 -0.0534  0.1514
  435loPI    C3 6947   7.888  12.103  11.258 -0.3691 -0.2062 -0.0409
  435loPI   PO4 6948   8.162  11.747  10.755 -0.0307 -0.1329 -0.0313
  435loPI   GL1 6949   8.205  11.611  10.369 -0.5321  0.0225  0.0951
  435loPI   GL2 6950   8.450  11.548  10.354  0.1313  0.1090  0.1703
  435loPI   C1A 6951   8.201  11.703   9.952  0.0135  0.1513 -0.0696
  435loPI   C2A 6952   8.176  11.727   9.480 -0.1076  0.0861 -0.6596
  435loPI   C3A 6953   8.216  11.690   9.108  0.1514 -0.0136  0.0771
  435loPI   C4A 6954   8.062  11.857   8.738  0.3150 -0.1224 -0.0175
  435loPI   C5A 6955   8.044  11.898   8.313 -0.2060  0.1989  0.1894
  435loPI   C6A 6956   8.065  11.736   7.912 -0.0433  0.0629 -0.0204
  435loPI   C1B 6957   8.428  11.271   9.977  0.1242 -0.2796 -0.3549
  435loPI   C2B 6958   8.429  11.257   9.530 -0.1248  0.0936  0.0614
  435loPI   C3B 6959   8.406  11.225   9.047  0.1536 -0.0738 -0.3315
  435loPI   C4B 6960   8.458  11.226   8.665 -0.0781 -0.1641  0.0294
  436loPI    C1 6961  17.566   4.288  11.187  0.2641 -0.1385  0.1780
  436loPI    C2 6962  17.170   4.232  11.183  0.2065  0.2449 -0.1513
  436loPI    C3 6963  17.337   4.457  11.468  0.1813  0.1392 -0.0520
  436loPI   PO4 6964  17.605   4.322  10.970 -0.1104 -0.2004 -0.0294
  436loPI   GL1 6965  17.381   4.192  10.703  0.3472 -0.0120  0.3781
  436loPI   GL2 6966  17.549   4.010  10.506 -0.2306 -0.1556  0.1931
  436loPI   C1A 6967  17.339   4.457  10.297 -0.0422 -0.0197 -0.0136
  436loPI   C2A 6968  17.265   4.395   9.800 -0.0576  0.0003  0.3117
  436loPI   C3A 6969  17.212   4.329   9.417 -0.0517 -0.2678 -0.0212
  436loPI   C4A 6970  17.189   4.339   8.934  0.0790  0.1318 -0.1631
  436loPI   C5A 6971  17.394   4.259   8.497 -0.0655  0.4537 -0.1857
  436loPI   C6A 6972  17.792   4.273   8.425  0.0394  0.1270  0.0833
  436loPI   C1B 6973  17.619   3.759  10.142  0.7192 -0.0955  0.0936
  436loPI   C2B 6974  17.483   3.673   9.668 -0.1299  0.0104 -0.1219
  436loPI   C3B 6975  17.406   3.858   9.286  0.2829  0.0660  0.3608
  436loPI   C4B 6976  17.384   3.858   8.865  0.0271  0.2854  0.2526
  437loPI    C1 6977   3.071   5.271  11.116  0.0781 -0.0416 -0.0770
  437loPI    C2 6978   3.385   5.496  11.013 -0.0467  0.1623 -0.0169
  437loPI    C3 6979   3.271   5.474  11.396 -0.0952  0.0744 -0.0361
  437loPI   PO4 6980   2.872   5.325  10.947  0.0072 -0.2623 -0.2183
  437loPI   GL1 6981   2.959   5.491  10.580  0.0570  0.0354  0.2343
  437loPI   GL2 6982   3.253   5.427  10.524  0.3619  0.1878 -0.0233
  437loPI   C1A 6983   2.921   5.360  10.140 -0.2589 -0.0119  0.0002
  437loPI   C2A 6984   2.931   5.331   9.693  0.0508 -0.2779  0.0245
  437loPI   C3A 6985   2.885   5.311   9.284 -0.1980  0.3175  0.1833
  437loPI   C4A 6986   2.871   5.341   8.887  0.1758  0.0903 -0.0200
  437loPI   C5A 6987   2.705   5.052   8.501  0.2750 -0.0311 -0.2468
  437loPI   C6A 6988   2.372   4.827   8.344 -0.0246  0.3651  0.0821
  437loPI   C1B 6989   3.408   5.389  10.154 -0.3608  0.0861 -0.0608
  437loPI   C2B 6990   3.403   5.400   9.734 -0.4267  0.1966  0.1512
  437loPI   C3B 6991   3.516   5.359   9.254 -0.2263  0.0926  0.0516
  437loPI   C4B 6992   3.398   5.365   8.770  0.2020 -0.0501  0.1751
  438loPI    C1 6993  17.048  15.787  10.944  0.0033  0.0122  0.0427
  438loPI    C2 6994  17.356  15.947  11.142 -0.0908  0.1416  0.0864
  438loPI    C3 6995  17.042  15.803  11.344 -0.0372 -0.0374  0.0442
  438loPI   PO4 6996  16.976  15.977  10.729 -0.3234 -0.3169  0.2249
  438loPI   GL1 6997  16.993  15.892  10.351 -0.3392 -0.0075  0.1083
  438loPI   GL2 6998  16.648  15.921  10.243 -0.2565 -0.1087 -0.0220
  438loPI   C1A 6999  17.039  15.893   9.952  0.0475  0.1841  0.0326
  438loPI   C2A 7000  16.977  15.881   9.511  0.0413  0.0892  0.0386
  438loPI   C3A 7001  17.094  15.936   9.083 -0.0711  0.1868 -0.0002
  438loPI   C4A 7002  17.030  15.914   8.702  0.2567 -0.1474  0.0544
  438loPI   C5A 7003  17.021  16.072   8.342 -0.0903  0.0718 -0.0550
  438loPI   C6A 7004  17.140  16.462   8.037  0.1467 -0.1473 -0.0351
  438loPI   C1B 7005  16.481  15.958   9.853  0.1198  0.1348  0.0065
  438loPI   C2B 7006  16.462  15.967   9.411  0.0605 -0.1224  0.1955
  438loPI   C3B 7007  16.495  15.937   8.956  0.2988 -0.1416 -0.4508
  438loPI   C4B 7008  16.556  15.953   8.469 -0.1275  0.0110  0.1376
  439loPI    C1 7009  10.914  12.756  11.079  0.0859 -0.0823  0.0687
  439loPI    C2 7010  10.848  12.395  11.237  0.1792 -0.0825  0.1079
  439loPI    C3 7011  10.651  12.713  11.378 -0.1626 -0.1697 -0.1581
  439loPI   PO4 7012  11.004  12.702  10.808  0.1323  0.2474 -0.1169
  439loPI   GL1 7013  10.752  12.743  10.488 -0.0188 -0.1362 -0.0651
  439loPI   GL2 7014  11.039  12.933  10.327 -0.3221 -0.2737  0.0865
  439loPI   C1A 7015  10.915  12.522  10.109  0.2472 -0.2062 -0.0736
  439loPI   C2A 7016  10.870  12.401   9.798  0.2159  0.1862 -0.3739
  439loPI   C3A 7017  10.828  12.374   9.450 -0.0710  0.1811 -0.2606
  439loPI   C4A 7018  10.791  12.399   8.955  0.2510  0.0071 -0.1778
  439loPI   C5A 7019  10.772  12.235   8.594 -0.0198  0.1228  0.0662
  439loPI   C6A 7020  10.726  12.177   8.181  0.0217 -0.1063  0.0788
  439loPI   C1B 7021  11.136  12.914   9.902  0.2037  0.0289  0.0548
  439loPI   C2B 7022  11.114  12.858   9.420  0.0438  0.1060  0.1909
  439loPI   C3B 7023  11.103  12.723   9.046 -0.0281 -0.2079 -0.3535
  439loPI   C4B 7024  11.127  12.691   8.577  0.1406  0.1371 -0.1950
  440loPI    C1 7025  17.252  14.519  10.840 -0.0884 -0.0767  0.1729
  440loPI    C2 7026  17.173  14.140  10.940  0.0093 -0.1902 -0.1676
  440loPI    C3 7027  17.365  14.378  11.198 -0.3735 -0.2605  0.1934
  440loPI   PO4 7028  17.157  14.520  10.616  0.1702 -0.4593 -0.2402
  440loPI   GL1 7029  17.117  14.592  10.234 -0.0675 -0.0044 -0.0111
  440loPI   GL2 7030  16.751  14.547  10.273 -0.0307  0.0407  0.0912
  440loPI   C1A 7031  17.260  14.562   9.786 -0.2097  0.1013  0.1864
  440loPI   C2A 7032  17.218  14.566   9.367 -0.1160  0.1651  0.2181
  440loPI   C3A 7033  17.229  14.624   8.858 -0.0311 -0.1629 -0.0271
  440loPI   C4A 7034  17.238  14.520   8.468 -0.2016  0.0303 -0.0248
  440loPI   C5A 7035  17.088  14.533   8.071  0.2814 -0.0967  0.2280
  440loPI   C6A 7036  16.855  14.685   7.724  0.3180  0.0375  0.1215
  440loPI   C1B 7037  16.771  14.583   9.837  0.0818  0.0013  0.2122
  440loPI   C2B 7038  16.753  14.486   9.399  0.2771 -0.0422 -0.0700
  440loPI   C3B 7039  16.778  14.645   9.010 -0.1543  0.1206  0.0143
  440loPI   C4B 7040  16.726  14.703   8.563 -0.0510 -0.0236 -0.2461
  441loPI    C1 7041  10.939   8.231  11.014  0.0348  0.0311 -0.0361
  441loPI    C2 7042  10.700   8.426  11.270 -0.0335 -0.0496 -0.0377
  441loPI    C3 7043  10.847   8.067  11.367 -0.1777 -0.1458 -0.1708
  441loPI   PO4 7044  10.848   8.229  10.731 -0.1490 -0.0283  0.0177
  441loPI   GL1 7045  11.058   8.106  10.373  0.2630 -0.0220  0.0358
  441loPI   GL2 7046  11.158   8.369  10.275  0.1367 -0.4123 -0.2827
  441loPI   C1A 7047  10.820   8.302   9.952  0.0096 -0.1553  0.0062
  441loPI   C2A 7048  10.735   8.281   9.517  0.2629 -0.2050  0.2087
  441loPI   C3A 7049  10.772   8.297   9.092  0.3851 -0.1202  0.0073
  441loPI   C4A 7050  10.683   8.347   8.801  0.0313 -0.1213 -0.1272
  441loPI   C5A 7051  10.545   8.306   8.384 -0.1572 -0.0311 -0.0177
  441loPI   C6A 7052  10.459   8.460   8.030 -0.1302 -0.0445 -0.1591
  441loPI   C1B 7053  11.304   8.289   9.838  0.1789 -0.0315  0.2290
  441loPI   C2B 7054  11.222   8.295   9.466 -0.0119  0.1709 -0.4054
  441loPI   C3B 7055  11.253   8.309   9.124  0.3533  0.1470 -0.0713
  441loPI   C4B 7056  11.224   8.290   8.680 -0.1498 -0.1003  0.1686
  442loPI    C1 7057  13.667   8.359  11.195 -0.2095 -0.0519 -0.0555
  442loPI    C2 7058  13.548   8.064  11.438  0.0193 -0.1389 -0.0468
  442loPI    C3 7059  13.760   8.371  11.584 -0.0867 -0.0469 -0.0847
  442loPI   PO4 7060  13.762   8.256  11.010 -0.0373 -0.0719  0.0149
  442loPI   GL1 7061  13.737   8.362  10.640  0.0967  0.0680  0.3277
  442loPI   GL2 7062  13.459   8.509  10.523  0.1111 -0.0166 -0.0659
  442loPI   C1A 7063  13.722   8.167  10.272 -0.0101 -0.0513  0.0136
  442loPI   C2A 7064  13.786   8.111   9.879  0.0708  0.1322  0.1118
  442loPI   C3A 7065  13.875   8.049   9.530 -0.2244  0.0915  0.0666
  442loPI   C4A 7066  13.916   7.956   9.025 -0.0245 -0.0941  0.0998
  442loPI   C5A 7067  13.849   8.069   8.669 -0.3430  0.1886  0.0805
  442loPI   C6A 7068  14.042   8.112   8.295  0.2056 -0.0647 -0.0713
  442loPI   C1B 7069  13.539   8.624  10.110 -0.0825  0.3063 -0.1731
  442loPI   C2B 7070  13.587   8.511   9.628  0.1938  0.0997  0.1121
  442loPI   C3B 7071  13.677   8.429   9.161  0.0950  0.2201  0.1824
  442loPI   C4B 7072  13.584   8.498   8.721  0.0340 -0.1167  0.1305
  443loPI    C1 7073   5.064   4.830  11.433 -0.0130 -0.0835 -0.0305
  443loPI    C2 7074   5.141   4.570  11.727  0.0100 -0.1565 -0.1008
  443loPI    C3 7075   5.408   4.852  11.635 -0.1032  0.0244  0.1141
  443loPI   PO4 7076   5.026   4.726  11.235 -0.2592 -0.1142 -0.2514
  443loPI   GL1 7077   5.049   4.726  10.760  0.2058  0.0209  0.2017
  443loPI   GL2 7078   5.450   4.820  10.620 -0.0932 -0.1520 -0.0401
  443loPI   C1A 7079   4.896   4.449  10.493  0.0863 -0.4054  0.0699
  443loPI   C2A 7080   4.906   4.412  10.064  0.1396 -0.0271 -0.0935
  443loPI   C3A 7081   4.974   4.424   9.630  0.0125 -0.1471  0.0645
  443loPI   C4A 7082   5.100   4.522   9.215  0.1709 -0.0133  0.0543
  443loPI   C5A 7083   4.862   4.449   8.817  0.1197  0.3399  0.1618
  443loPI   C6A 7084   4.522   4.221   8.512 -0.0791 -0.1217 -0.3315
  443loPI   C1B 7085   5.211   4.828  10.232  0.0988  0.2455 -0.1842
  443loPI   C2B 7086   5.215   4.874   9.778 -0.1233  0.2994  0.0148
  443loPI   C3B 7087   5.326   4.929   9.309  0.0126  0.1540  0.0383
  443loPI   C4B 7088   5.201   4.906   8.898  0.0149  0.1065  0.1604
  444loPI    C1 7089  13.821   0.867  11.619 -0.4773 -0.2979 -0.1911
  444loPI    C2 7090  13.670   0.618  11.893 -0.1140  0.0282  0.3231
  444loPI    C3 7091  13.602   1.011  11.920 -0.2721  0.0446 -0.1998
  444loPI   PO4 7092  13.894   0.784  11.403 -0.0697 -0.0003  0.0963
  444loPI   GL1 7093  13.963   0.829  10.919 -0.2150  0.2198 -0.1129
  444loPI   GL2 7094  13.839   0.633  10.723  0.4169 -0.1436  0.2033
  444loPI   C1A 7095  13.966   0.999  10.447  0.0172 -0.0054 -0.0410
  444loPI   C2A 7096  14.016   0.982  10.027 -0.0860 -0.1215 -0.0755
  444loPI   C3A 7097  13.915   0.932   9.642  0.3040  0.0129 -0.1428
  444loPI   C4A 7098  13.984   0.926   9.238 -0.1543  0.2639  0.2711
  444loPI   C5A 7099  13.985   1.048   8.708 -0.1500 -0.0764 -0.0477
  444loPI   C6A 7100  13.661   1.141   8.483 -0.0558 -0.2250 -0.0191
  444loPI   C1B 7101  13.635   0.439  10.345 -0.2672  0.0208  0.1299
  444loPI   C2B 7102  13.686   0.510   9.870 -0.3535 -0.1202 -0.1272
  444loPI   C3B 7103  13.744   0.459   9.474 -0.0532 -0.1150  0.1681
  444loPI   C4B 7104  13.683   0.493   9.067 -0.0230 -0.2336  0.0618
  445loPI    C1 7105  17.373  15.019  10.848  0.1142 -0.0651 -0.0051
  445loPI    C2 7106  17.010  14.948  11.000  0.1707  0.2100  0.2688
  445loPI    C3 7107  17.333  14.919  11.234  0.3136  0.1018  0.0605
  445loPI   PO4 7108  17.408  14.981  10.640 -0.0369 -0.1384  0.3717
  445loPI   GL1 7109  17.314  15.026  10.190  0.1183  0.0116  0.4475
  445loPI   GL2 7110  17.531  14.881  10.068  0.1034 -0.0709  0.1475
  445loPI   C1A 7111  16.992  15.008   9.840 -0.4674 -0.0134 -0.0489
  445loPI   C2A 7112  16.932  14.955   9.412 -0.0473  0.1911 -0.0752
  445loPI   C3A 7113  16.962  15.052   9.071  0.2013  0.2549  0.2499
  445loPI   C4A 7114  17.015  15.123   8.617  0.1618 -0.2446 -0.0448
  445loPI   C5A 7115  16.845  14.986   8.144 -0.2516  0.0176  0.0988
  445loPI   C6A 7116  16.690  15.213   7.746  0.3370 -0.1932  0.0364
  445loPI   C1B 7117  17.470  14.994   9.631 -0.1002 -0.1053 -0.0907
  445loPI   C2B 7118  17.481  14.956   9.194 -0.0996 -0.3295 -0.2850
  445loPI   C3B 7119  17.524  15.077   8.759  0.0706  0.0970 -0.1974
  445loPI   C4B 7120  17.523  15.146   8.358 -0.0810 -0.2294 -0.2611
  446loPI    C1 7121  10.553  14.256  10.686 -0.3411  0.0606 -0.1196
  446loPI    C2 7122  10.653  14.606  10.851 -0.0072 -0.0576 -0.0632
  446loPI    C3 7123  10.341  14.400  10.993 -0.1458  0.1685 -0.0338
  446loPI   PO4 7124  10.593  14.337  10.443  0.2813  0.1688 -0.0096
  446loPI   GL1 7125  10.409  14.117  10.144  0.1699  0.0214 -0.0979
  446loPI   GL2 7126  10.222  13.944  10.005 -0.0710  0.2064  0.1603
  446loPI   C1A 7127  10.531  14.195   9.728  0.1035  0.2479 -0.2805
  446loPI   C2A 7128  10.615  14.135   9.313  0.1966 -0.2064 -0.0315
  446loPI   C3A 7129  10.426  14.260   8.936 -0.3810 -0.2025 -0.1606
  446loPI   C4A 7130  10.589  14.377   8.565  0.0184  0.0380 -0.0449
  446loPI   C5A 7131  10.728  14.566   8.314  0.3861  0.1106  0.1641
  446loPI   C6A 7132  10.707  14.829   8.138  0.4103  0.1130  0.1014
  446loPI   C1B 7133  10.218  13.823   9.534  0.1015  0.2241 -0.3243
  446loPI   C2B 7134  10.124  13.682   9.161  0.1763 -0.0895 -0.0448
  446loPI   C3B 7135  10.176  13.891   8.757  0.2477 -0.1010  0.2656
  446loPI   C4B 7136  10.111  14.225   8.382  0.0614 -0.0586 -0.1539
  447loPI    C1 7137  16.095   0.482  11.371 -0.1073  0.1532  0.0902
  447loPI    C2 7138  15.968   0.174  11.592 -0.1134  0.0568 -0.0460
  447loPI    C3 7139  16.360   0.240  11.548 -0.1120  0.0524 -0.0388
  447loPI   PO4 7140  16.017   0.421  11.129  0.0397  0.0877  0.1616
  447loPI   GL1 7141  16.113   0.447  10.656  0.0497 -0.1440 -0.0408
  447loPI   GL2 7142  16.291   0.491  10.523  0.0496 -0.0243  0.2982
  447loPI   C1A 7143  15.782   0.430  10.330  0.2034  0.0829 -0.1332
  447loPI   C2A 7144  15.799   0.443  10.017  0.1683  0.3282  0.1308
  447loPI   C3A 7145  15.705   0.426   9.597  0.1194 -0.1177  0.4902
  447loPI   C4A 7146  15.742   0.328   9.184  0.1437  0.2060 -0.1148
  447loPI   C5A 7147  15.669   0.375   8.724  0.2465  0.0001 -0.2078
  447loPI   C6A 7148  15.180   0.432   8.623  0.1576  0.2064 -0.0790
  447loPI   C1B 7149  16.288   0.439  10.047  0.1871  0.1232 -0.2149
  447loPI   C2B 7150  16.223   0.418   9.623  0.1487 -0.1738  0.1706
  447loPI   C3B 7151  16.254   0.362   9.118 -0.0232  0.0136 -0.0132
  447loPI   C4B 7152  16.162   0.304   8.683 -0.1516 -0.1049 -0.1403
  448loPI    C1 7153  11.559   9.117  11.046  0.0542 -0.0675  0.0873
  448loPI    C2 7154  11.304   9.226  11.335  0.1940  0.0933  0.1513
  448loPI    C3 7155  11.558   8.923  11.396 -0.0864 -0.1713  0.0307
  448loPI   PO4 7156  11.419   9.029  10.833  0.1738  0.0834  0.1981
  448loPI   GL1 7157  11.580   8.888  10.416  0.0256  0.1103 -0.4046
  448loPI   GL2 7158  11.912   9.190  10.315  0.0923  0.0215 -0.0795
  448loPI   C1A 7159  11.529   8.738  10.023 -0.0295 -0.0046 -0.0771
  448loPI   C2A 7160  11.508   8.664   9.650 -0.1408 -0.0498  0.0773
  448loPI   C3A 7161  11.570   8.667   9.199 -0.0679 -0.3326 -0.2310
  448loPI   C4A 7162  11.504   8.751   8.811 -0.3782  0.0919  0.0774
  448loPI   C5A 7163  11.417   8.726   8.449 -0.0565 -0.1109 -0.0240
  448loPI   C6A 7164  11.603   8.845   8.162 -0.1523 -0.0541  0.2295
  448loPI   C1B 7165  11.908   9.115   9.857  0.4206  0.0325 -0.1272
  448loPI   C2B 7166  11.843   9.041   9.459 -0.1844  0.2489 -0.2373
  448loPI   C3B 7167  11.885   9.169   9.107  0.0291 -0.4146  0.2861
  448loPI   C4B 7168  11.791   9.181   8.685 -0.0791 -0.1990 -0.0862
  449loPI    C1 7169  15.245  13.017  10.771  0.1178 -0.0485  0.0053
  449loPI    C2 7170  15.212  13.295  11.057 -0.1172 -0.1256  0.0562
  449loPI    C3 7171  15.355  12.932  11.146  0.0724 -0.0621  0.0159
  449loPI   PO4 7172  15.118  13.209  10.499 -0.1525  0.0373  0.0658
  449loPI   GL1 7173  15.337  13.293  10.117 -0.3376 -0.3440 -0.0550
  449loPI   GL2 7174  15.547  12.989   9.972  0.2246  0.2007 -0.1226
  449loPI   C1A 7175  15.301  13.376   9.628  0.0222 -0.3777  0.0365
  449loPI   C2A 7176  15.310  13.277   9.145 -0.1882  0.0321 -0.2846
  449loPI   C3A 7177  15.339  13.312   8.773  0.1073  0.0883 -0.1172
  449loPI   C4A 7178  15.434  13.220   8.322 -0.0228 -0.1678 -0.0862
  449loPI   C5A 7179  15.264  12.879   8.106 -0.1547 -0.0636  0.0988
  449loPI   C6A 7180  15.222  12.405   8.076 -0.0508 -0.3135  0.2906
  449loPI   C1B 7181  15.558  12.900   9.507 -0.3392  0.2163  0.1100
  449loPI   C2B 7182  15.562  12.863   9.087  0.2937  0.0868 -0.1683
  449loPI   C3B 7183  15.490  12.842   8.655  0.0400 -0.0924 -0.0887
  449loPI   C4B 7184  15.691  12.723   8.326  0.1978  0.1312 -0.0350
  450loPI    C1 7185  17.687  15.390  10.889  0.2169 -0.5369  0.3065
  450loPI    C2 7186  17.389  15.480  11.140 -0.0024  0.0982 -0.1561
  450loPI    C3 7187  17.743  15.662  11.176  0.0530 -0.0127 -0.1395
  450loPI   PO4 7188  17.729  15.454  10.651 -0.2110  0.0657 -0.3740
  450loPI   GL1 7189  17.615  15.481  10.321  0.1977  0.0207  0.2626
  450loPI   GL2 7190  17.740  15.406  10.020  0.0500  0.1875 -0.0662
  450loPI   C1A 7191  17.520  15.895  10.145 -0.0069  0.2261 -0.3385
  450loPI   C2A 7192  17.497  15.884   9.709 -0.1760 -0.1118 -0.0327
  450loPI   C3A 7193  17.578  15.839   9.364  0.0329  0.1689  0.1627
  450loPI   C4A 7194  17.618  15.947   8.928 -0.0825 -0.0252 -0.0225
  450loPI   C5A 7195  17.491  15.950   8.577 -0.3729  0.0904  0.1584
  450loPI   C6A 7196  17.402  16.341   8.420 -0.0096  0.3855 -0.0288
  450loPI   C1B 7197  17.796  15.376   9.517  0.1022  0.0145  0.1100
  450loPI   C2B 7198  17.716  15.421   9.067 -0.2171 -0.3712 -0.0129
  450loPI   C3B 7199  17.725  15.513   8.613 -0.0113  0.0502  0.1095
  450loPI   C4B 7200  17.750  15.615   8.250  0.1769 -0.1670 -0.0558
  451loPI    C1 7201   1.776   7.675  11.091  0.0966 -0.1730  0.1067
  451loPI    C2 7202   1.714   7.616  11.482  0.1240 -0.3397  0.0868
  451loPI    C3 7203   2.061   7.769  11.355 -0.0589  0.1572  0.1621
  451loPI   PO4 7204   1.551   7.851  10.937  0.0488  0.0074 -0.1857
  451loPI   GL1 7205   1.504   7.876  10.532 -0.1370  0.0195 -0.0203
  451loPI   GL2 7206   1.514   8.142  10.495 -0.3519  0.1592  0.0347
  451loPI   C1A 7207   1.262   7.817  10.157 -0.1075  0.1005 -0.0120
  451loPI   C2A 7208   1.169   7.721   9.862 -0.1693 -0.2041  0.0082
  451loPI   C3A 7209   1.149   7.705   9.431 -0.1026 -0.0427 -0.1179
  451loPI   C4A 7210   1.175   7.709   8.955  0.1443  0.0167 -0.3125
  451loPI   C5A 7211   1.111   7.680   8.482 -0.1317  0.1956 -0.1121
  451loPI   C6A 7212   0.950   7.750   8.191  0.1707  0.0200  0.3649
  451loPI   C1B 7213   1.411   8.276  10.046 -0.2167 -0.2779 -0.1955
  451loPI   C2B 7214   1.430   8.111   9.649 -0.6184 -0.0195 -0.1477
  451loPI   C3B 7215   1.388   8.132   9.157 -0.0365  0.0078 -0.1573
  451loPI   C4B 7216   1.375   8.101   8.702  0.0718 -0.1792  0.0860
  452loPI    C1 7217  16.946   6.324  11.112  0.0029 -0.2120 -0.0632
  452loPI    C2 7218  17.065   6.577  11.398 -0.0966 -0.1436 -0.0823
  452loPI    C3 7219  17.136   6.186  11.436 -0.1136 -0.1352  0.0386
  452loPI   PO4 7220  16.727   6.445  10.970  0.1206 -0.1723  0.4913
  452loPI   GL1 7221  16.582   6.441  10.557 -0.1591  0.0269  0.0457
  452loPI   GL2 7222  16.409   6.153  10.456 -0.0142  0.1200 -0.0844
  452loPI   C1A 7223  16.668   6.503  10.156 -0.2056 -0.1506  0.6446
  452loPI   C2A 7224  16.712   6.496   9.682  0.0360 -0.0011 -0.1935
  452loPI   C3A 7225  16.707   6.557   9.274 -0.1831  0.1833 -0.3884
  452loPI   C4A 7226  16.641   6.525   8.918 -0.1562 -0.0590 -0.1885
  452loPI   C5A 7227  16.549   6.578   8.607 -0.1345  0.0888 -0.0253
  452loPI   C6A 7228  16.178   6.770   8.484 -0.0669  0.3214 -0.0123
  452loPI   C1B 7229  16.257   6.049  10.088 -0.0874  0.0365  0.1398
  452loPI   C2B 7230  16.324   6.066   9.542 -0.1772 -0.1179 -0.0523
  452loPI   C3B 7231  16.409   6.163   9.181  0.0291 -0.1398  0.0420
  452loPI   C4B 7232  16.346   6.083   8.831 -0.0248  0.3218  0.0971
  453loPI    C1 7233   9.595  13.382  11.067  0.0410  0.2390  0.0969
  453loPI    C2 7234   9.295  13.298  11.319 -0.0802 -0.0808 -0.1471
  453loPI    C3 7235   9.622  13.067  11.312  0.0038  0.0370 -0.1549
  453loPI   PO4 7236   9.460  13.433  10.917  0.0036  0.0158 -0.1475
  453loPI   GL1 7237   9.432  13.538  10.486  0.1796 -0.0557  0.0352
  453loPI   GL2 7238   9.262  13.252  10.523 -0.1470  0.3111 -0.0404
  453loPI   C1A 7239   9.441  13.539  10.118 -0.1573  0.3014  0.0766
  453loPI   C2A 7240   9.434  13.387   9.726  0.3224  0.0581  0.0321
  453loPI   C3A 7241   9.475  13.374   9.294 -0.2536  0.1024  0.2427
  453loPI   C4A 7242   9.366  13.388   8.908 -0.0179 -0.0137 -0.4421
  453loPI   C5A 7243   9.163  13.220   8.473  0.0498  0.0673 -0.2822
  453loPI   C6A 7244   9.048  13.405   8.160  0.0661 -0.0485 -0.2545
  453loPI   C1B 7245   9.067  13.056  10.206 -0.2862  0.0398 -0.0178
  453loPI   C2B 7246   9.117  12.905   9.718  0.0279  0.1577 -0.1161
  453loPI   C3B 7247   9.036  12.865   9.296 -0.1701  0.1672  0.0330
  453loPI   C4B 7248   8.996  13.059   8.929  0.1204 -0.0706  0.1897
  454loPI    C1 7249   6.115  17.439  10.733 -0.1571 -0.3230  0.0356
  454loPI    C2 7250   6.498  17.334  10.781  0.0065  0.1750 -0.1217
  454loPI    C3 7251   6.303  17.521  11.076  0.0222  0.3199 -0.2021
  454loPI   PO4 7252   6.023  17.228  10.660  0.0774 -0.2110 -0.1704
  454loPI   GL1 7253   6.122  16.996  10.335 -0.0688  0.2138 -0.0865
  454loPI   GL2 7254   6.377  17.274  10.306 -0.0219 -0.3155 -0.1871
  454loPI   C1A 7255   6.009  17.227   9.899 -0.0695  0.2124 -0.1444
  454loPI   C2A 7256   5.970  17.264   9.515  0.1771 -0.2295  0.0445
  454loPI   C3A 7257   5.925  17.238   9.121 -0.1118 -0.2168  0.1784
  454loPI   C4A 7258   6.001  17.255   8.665  0.1618 -0.0794 -0.0129
  454loPI   C5A 7259   6.027  17.002   8.212 -0.4511 -0.0669 -0.0032
  454loPI   C6A 7260   5.926  17.088   7.848  0.0965 -0.0652  0.0389
  454loPI   C1B 7261   6.545  17.189   9.926 -0.0454 -0.1349  0.4842
  454loPI   C2B 7262   6.453  17.236   9.549 -0.0271 -0.0362  0.0066
  454loPI   C3B 7263   6.519  17.210   9.082  0.0683  0.0626 -0.2402
  454loPI   C4B 7264   6.624  17.156   8.689 -0.0744  0.1974 -0.1031
  455loPI    C1 7265   2.340  13.819  10.537 -0.1180 -0.0157 -0.1069
  455loPI    C2 7266   2.256  13.679  10.902  0.0896 -0.2155 -0.1330
  455loPI    C3 7267   2.617  13.615  10.742  0.0605  0.0275 -0.3013
  455loPI   PO4 7268   2.183  13.740  10.415  0.0795  0.0925 -0.0500
  455loPI   GL1 7269   2.300  13.647  10.037 -0.1324  0.2619 -0.3216
  455loPI   GL2 7270   2.490  13.677  10.002  0.1373  0.3003  0.0762
  455loPI   C1A 7271   2.111  13.996   9.809  0.2035  0.1987  0.0343
  455loPI   C2A 7272   2.086  13.986   9.343  0.3880 -0.1108 -0.1845
  455loPI   C3A 7273   2.136  13.986   8.931 -0.0045 -0.0877 -0.1657
  455loPI   C4A 7274   2.123  14.000   8.481  0.1415  0.1412 -0.1058
  455loPI   C5A 7275   2.167  14.042   8.026  0.1129 -0.3724  0.1128
  455loPI   C6A 7276   2.167  14.442   7.718  0.0690  0.1734 -0.0794
  455loPI   C1B 7277   2.482  13.750   9.519 -0.2299  0.1464  0.1171
  455loPI   C2B 7278   2.407  13.623   9.133  0.1987  0.1402 -0.1577
  455loPI   C3B 7279   2.418  13.577   8.701 -0.3608  0.2974 -0.0844
  455loPI   C4B 7280   2.354  13.566   8.270 -0.0431 -0.3073 -0.2499
  456loPI    C1 7281  13.949  11.000  11.142 -0.1179  0.3282  0.0248
  456loPI    C2 7282  14.202  10.748  11.320 -0.2276  0.0886 -0.1528
  456loPI    C3 7283  14.038  11.046  11.529  0.1496  0.2096 -0.0202
  456loPI   PO4 7284  13.860  10.866  10.987 -0.2467 -0.0676  0.0588
  456loPI   GL1 7285  13.800  10.863  10.616 -0.0089 -0.0438  0.2363
  456loPI   GL2 7286  13.906  11.196  10.562  0.2124  0.1345  0.4065
  456loPI   C1A 7287  13.694  10.793  10.218  0.2019 -0.0777 -0.2403
  456loPI   C2A 7288  13.578  10.834   9.834 -0.2779  0.0796  0.0378
  456loPI   C3A 7289  13.525  10.797   9.321 -0.0955  0.4092  0.0579
  456loPI   C4A 7290  13.402  10.859   8.961 -0.0356  0.0302  0.1581
  456loPI   C5A 7291  13.591  10.750   8.531 -0.0512  0.0206 -0.1338
  456loPI   C6A 7292  13.618  10.692   8.113  0.2974 -0.0663  0.2611
  456loPI   C1B 7293  13.910  11.173  10.035  0.0716 -0.1084 -0.1700
  456loPI   C2B 7294  13.854  11.225   9.579  0.1498  0.2026 -0.0250
  456loPI   C3B 7295  13.820  11.194   9.133 -0.0733  0.1961 -0.1141
  456loPI   C4B 7296  13.805  11.229   8.702  0.0854  0.0472 -0.2010
  457loPI    C1 7297   7.376   8.699  11.225 -0.0999 -0.0943  0.1209
  457loPI    C2 7298   7.200   8.392  11.411  0.0477 -0.3444 -0.1442
  457loPI    C3 7299   7.599   8.419  11.404  0.0363  0.1859  0.4013
  457loPI   PO4 7300   7.356   8.641  10.929  0.1859  0.1005 -0.0094
  457loPI   GL1 7301   7.559   8.499  10.646 -0.0916  0.1148 -0.0947
  457loPI   GL2 7302   7.845   8.579  10.494  0.0910  0.0250  0.0784
  457loPI   C1A 7303   7.521   8.265  10.249  0.2059  0.0538  0.1237
  457loPI   C2A 7304   7.459   8.217   9.803  0.3184 -0.1876 -0.0103
  457loPI   C3A 7305   7.370   8.239   9.345 -0.4061 -0.0173 -0.0299
  457loPI   C4A 7306   7.494   8.186   8.905 -0.0457  0.2758  0.0372
  457loPI   C5A 7307   7.825   8.143   8.665  0.0632 -0.1477  0.0319
  457loPI   C6A 7308   8.107   7.908   8.352  0.3494 -0.0766  0.0244
  457loPI   C1B 7309   7.788   8.688  10.101 -0.0222  0.1724 -0.1764
  457loPI   C2B 7310   7.815   8.641   9.656 -0.0273 -0.1586  0.0239
  457loPI   C3B 7311   7.732   8.623   9.160  0.1174 -0.1573 -0.1533
  457loPI   C4B 7312   7.706   8.606   8.702 -0.1277 -0.1141  0.0162
  458loPI    C1 7313  17.459  16.927  10.947  0.0270 -0.1741  0.2111
  458loPI    C2 7314  17.616  17.273  10.823  0.0000 -0.3015 -0.1941
  458loPI    C3 7315  17.412  17.258  11.167  0.1600  0.0418 -0.0790
  458loPI   PO4 7316  17.619  16.743  10.711 -0.4210  0.2766 -0.1454
  458loPI   GL1 7317  17.815  16.981  10.373  0.0238 -0.2071  0.2013
  458loPI   GL2 7318  17.644  16.818  10.235 -0.0923  0.0114  0.0572
  458loPI   C1A 7319  17.853  17.163  10.030  0.0449  0.1278 -0.2692
  458loPI   C2A 7320  17.870  17.176   9.578 -0.0752 -0.0616  0.0881
  458loPI   C3A 7321  17.832  17.215   9.099 -0.1112 -0.1655 -0.0120
  458loPI   C4A 7322  17.807  17.360   8.710 -0.1095 -0.1755 -0.1198
  458loPI   C5A 7323  17.916  17.276   8.302 -0.1198 -0.1246  0.0800
  458loPI   C6A 7324  17.755  17.086   7.950  0.0080  0.0034 -0.1451
  458loPI   C1B 7325  17.656  16.786   9.785 -0.1097  0.0920  0.0897
  458loPI   C2B 7326  17.600  16.791   9.294 -0.0426 -0.2583  0.2000
  458loPI   C3B 7327  17.690  16.751   8.834  0.1483  0.3011 -0.1047
  458loPI   C4B 7328  17.662  16.866   8.464 -0.0263 -0.2621 -0.1579
  459loPI    C1 7329  13.179  10.750  11.168  0.1481 -0.0199  0.2127
  459loPI    C2 7330  12.817  10.899  11.249  0.2011  0.0839  0.2616
  459loPI    C3 7331  12.896  10.514  11.323  0.1542  0.1030  0.4151
  459loPI   PO4 7332  13.315  10.788  10.919 -0.2299  0.1137  0.0165
  459loPI   GL1 7333  13.209  10.670  10.440 -0.3882  0.2304 -0.1438
  459loPI   GL2 7334  13.436  10.518  10.490  0.1403  0.2337  0.1286
  459loPI   C1A 7335  12.977  10.863  10.169 -0.1554  0.0745 -0.1663
  459loPI   C2A 7336  13.014  10.913   9.740 -0.3787 -0.1951 -0.0343
  459loPI   C3A 7337  12.946  10.807   9.336 -0.1753 -0.2240 -0.3010
  459loPI   C4A 7338  12.904  10.769   8.946 -0.1134  0.1809  0.1496
  459loPI   C5A 7339  13.062  10.825   8.530  0.2061  0.0137 -0.2278
  459loPI   C6A 7340  13.393  11.150   8.342  0.1447 -0.1338 -0.1631
  459loPI   C1B 7341  13.255  10.437  10.015 -0.0114 -0.1211  0.4045
  459loPI   C2B 7342  13.171  10.469   9.596  0.1676  0.1161 -0.2056
  459loPI   C3B 7343  13.166  10.353   9.170 -0.2530  0.2634 -0.3517
  459loPI   C4B 7344  13.112  10.320   8.670  0.0526 -0.4802 -0.0664
  460loPI    C1 7345   1.422   4.425  11.269  0.0770 -0.2943  0.0921
  460loPI    C2 7346   1.731   4.653  11.381 -0.1506 -0.0173  0.1706
  460loPI    C3 7347   1.357   4.779  11.443 -0.2828 -0.4005  0.1829
  460loPI   PO4 7348   1.370   4.371  11.047  0.2115  0.1786  0.1010
  460loPI   GL1 7349   1.239   4.378  10.676  0.4822 -0.1605  0.0009
  460loPI   GL2 7350   1.482   4.653  10.500  0.1408  0.0481  0.3995
  460loPI   C1A 7351   1.071   4.231  10.349 -0.1091  0.0952 -0.2516
  460loPI   C2A 7352   1.127   4.186   9.951  0.1477 -0.1872 -0.2158
  460loPI   C3A 7353   1.007   4.165   9.548  0.3016  0.2481  0.1547
  460loPI   C4A 7354   0.953   4.092   9.156  0.0110 -0.0352 -0.0661
  460loPI   C5A 7355   0.952   4.137   8.710 -0.1999 -0.0214  0.0170
  460loPI   C6A 7356   1.102   4.377   8.321 -0.2842 -0.1294  0.0348
  460loPI   C1B 7357   1.355   4.663  10.095 -0.0488 -0.0107  0.2461
  460loPI   C2B 7358   1.240   4.591   9.674  0.1326  0.0284 -0.1033
  460loPI   C3B 7359   1.200   4.544   9.275 -0.0382 -0.0567  0.1682
  460loPI   C4B 7360   1.186   4.598   8.809 -0.0760 -0.1180  0.1289
  461loPI    C1 7361  16.515  14.528  10.812  0.0344 -0.1896  0.1048
  461loPI    C2 7362  16.494  14.692  11.176 -0.1888 -0.2614  0.1260
  461loPI    C3 7363  16.812  14.473  11.074  0.1400  0.2219  0.0783
  461loPI   PO4 7364  16.430  14.762  10.650 -0.3014  0.1075 -0.4813
  461loPI   GL1 7365  16.231  14.695  10.230  0.0005 -0.0324 -0.0516
  461loPI   GL2 7366  16.470  14.935  10.079  0.0664 -0.2501  0.1282
  461loPI   C1A 7367  16.211  14.650   9.751  0.0418 -0.0831  0.2818
  461loPI   C2A 7368  16.254  14.584   9.172 -0.1910 -0.0526 -0.0900
  461loPI   C3A 7369  16.285  14.594   8.717 -0.1970 -0.0071  0.0641
  461loPI   C4A 7370  16.116  14.592   8.354 -0.2905  0.1507 -0.0614
  461loPI   C5A 7371  15.966  14.458   7.986 -0.2453  0.0215 -0.0494
  461loPI   C6A 7372  16.194  14.144   7.782  0.0191 -0.0965  0.2071
  461loPI   C1B 7373  16.474  15.021   9.668 -0.0272  0.0857 -0.3421
  461loPI   C2B 7374  16.495  15.014   9.228 -0.0781  0.0213  0.0751
  461loPI   C3B 7375  16.451  15.107   8.774 -0.0528  0.0407  0.0652
  461loPI   C4B 7376  16.407  14.974   8.335 -0.0367  0.1949  0.3040
  462loPI    C1 7377   3.149  15.584  10.885 -0.0886  0.1250 -0.0000
  462loPI    C2 7378   2.969  15.666  11.232 -0.0234  0.0372  0.0549
  462loPI    C3 7379   3.060  15.288  11.138  0.0995  0.0770  0.0116
  462loPI   PO4 7380   3.123  15.709  10.726 -0.1951  0.1007  0.0733
  462loPI   GL1 7381   2.946  16.030  10.501  0.2137  0.1914 -0.0531
  462loPI   GL2 7382   2.905  15.635  10.291 -0.2169 -0.0223  0.1143
  462loPI   C1A 7383   3.071  16.080  10.132  0.1125  0.2316  0.1851
  462loPI   C2A 7384   3.100  15.991   9.681 -0.0588  0.1252  0.0670
  462loPI   C3A 7385   3.100  16.084   9.249 -0.2001 -0.1270  0.1525
  462loPI   C4A 7386   3.168  16.089   8.832  0.2903  0.2763 -0.0295
  462loPI   C5A 7387   3.175  16.161   8.391 -0.1172 -0.0865  0.3530
  462loPI   C6A 7388   3.381  16.569   8.179 -0.1307 -0.0292 -0.0846
  462loPI   C1B 7389   2.840  15.529   9.867 -0.1085  0.1252  0.3317
  462loPI   C2B 7390   2.799  15.664   9.458  0.0599 -0.1279  0.2577
  462loPI   C3B 7391   2.755  15.756   8.906 -0.0972 -0.0658  0.0818
  462loPI   C4B 7392   2.840  15.744   8.535  0.0908  0.2501  0.2203
  463loPI    C1 7393  17.813   1.178  11.360 -0.2724  0.0025  0.1799
  463loPI    C2 7394  17.769   1.452  11.648  0.1165  0.1917  0.0657
  463loPI    C3 7395  18.006   1.135  11.708 -0.0271  0.0819  0.0565
  463loPI   PO4 7396  17.859   1.343  11.120 -0.3365  0.5055  0.2040
  463loPI   GL1 7397  17.829   1.297  10.669  0.0758 -0.1683 -0.0511
  463loPI   GL2 7398  17.491   1.297  10.606  0.3822 -0.1856  0.0966
  463loPI   C1A 7399  18.114   1.554  10.345 -0.0234  0.0332  0.0263
  463loPI   C2A 7400  18.225   1.605   9.980 -0.3627  0.5402 -0.0615
  463loPI   C3A 7401  18.181   1.587   9.529  0.4336  0.0364  0.0205
  463loPI   C4A 7402  18.223   1.578   9.121  0.4608 -0.2499  0.1500
  463loPI   C5A 7403  18.032   1.701   8.832 -0.0586  0.0803 -0.2123
  463loPI   C6A 7404  17.855   1.697   8.377 -0.2412  0.2453 -0.3997
  463loPI   C1B 7405  17.430   1.285  10.141 -0.1545  0.2583 -0.5449
  463loPI   C2B 7406  17.361   1.204   9.716  0.2139 -0.1195  0.3903
  463loPI   C3B 7407  17.412   1.191   9.327  0.1014 -0.2192  0.0145
  463loPI   C4B 7408  17.286   1.251   8.981 -0.2491  0.1867  0.0036
  464loPI    C1 7409   7.584  14.316  10.928 -0.0064 -0.0123 -0.0045
  464loPI    C2 7410   7.732  14.585  11.185 -0.0018  0.0350 -0.0562
  464loPI    C3 7411   7.436  14.340  11.299 -0.1102  0.1652 -0.0561
  464loPI   PO4 7412   7.741  14.245  10.725 -0.1112 -0.2182 -0.0156
  464loPI   GL1 7413   7.768  13.975  10.319  0.0307  0.0876 -0.0820
  464loPI   GL2 7414   7.430  13.852  10.284 -0.0210 -0.3124 -0.1141
  464loPI   C1A 7415   7.697  13.928   9.897 -0.3607  0.0753  0.1933
  464loPI   C2A 7416   7.603  13.930   9.539 -0.1869 -0.2368 -0.1286
  464loPI   C3A 7417   7.556  14.119   9.115  0.2701  0.0270 -0.2701
  464loPI   C4A 7418   7.602  14.073   8.737  0.1514 -0.0412 -0.2860
  464loPI   C5A 7419   7.774  14.138   8.362 -0.2176  0.2495 -0.0664
  464loPI   C6A 7420   8.176  14.351   8.234  0.1189  0.0694  0.1081
  464loPI   C1B 7421   7.409  13.535   9.910 -0.1404  0.1457 -0.0067
  464loPI   C2B 7422   7.380  13.546   9.442  0.6055 -0.0831 -0.0702
  464loPI   C3B 7423   7.287  13.565   9.031 -0.2394 -0.3057  0.1410
  464loPI   C4B 7424   7.247  13.648   8.571  0.3594 -0.1007 -0.3276
  465loPI    C1 7425   8.504   6.649  10.928  0.0973  0.0791 -0.0340
  465loPI    C2 7426   8.137   6.493  10.904  0.1954 -0.1630  0.0075
  465loPI    C3 7427   8.325   6.506  11.256  0.1923  0.0435  0.0025
  465loPI   PO4 7428   8.646   6.544  10.779 -0.2579 -0.1445 -0.0957
  465loPI   GL1 7429   8.649   6.548  10.385  0.1043 -0.0402  0.0778
  465loPI   GL2 7430   8.870   6.381  10.357 -0.3755  0.2709 -0.0948
  465loPI   C1A 7431   8.648   6.772  10.066 -0.0318  0.0805  0.0882
  465loPI   C2A 7432   8.587   6.751   9.633 -0.1566 -0.3124 -0.0502
  465loPI   C3A 7433   8.520   6.674   9.183  0.3038  0.0420 -0.0302
  465loPI   C4A 7434   8.517   6.680   8.784  0.4119 -0.2257 -0.0089
  465loPI   C5A 7435   8.533   7.004   8.441 -0.3970 -0.0130  0.2110
  465loPI   C6A 7436   8.795   7.208   8.175 -0.2178 -0.0814 -0.4383
  465loPI   C1B 7437   8.784   6.282   9.999 -0.1463  0.2458 -0.1445
  465loPI   C2B 7438   8.778   6.192   9.550 -0.3264 -0.2130  0.1210
  465loPI   C3B 7439   8.737   6.260   9.019 -0.2728  0.2580 -0.0929
  465loPI   C4B 7440   8.702   6.292   8.591 -0.0921  0.3945 -0.0421
  466loPI    C1 7441  12.043  10.300  11.086 -0.1981 -0.1103 -0.0849
  466loPI    C2 7442  11.731  10.370  11.326 -0.0880 -0.1108  0.0594
  466loPI    C3 7443  12.062  10.199  11.472  0.0058 -0.0475 -0.0773
  466loPI   PO4 7444  11.970  10.192  10.931  0.3220 -0.1378 -0.2327
  466loPI   GL1 7445  11.972  10.169  10.537  0.0395  0.0404  0.2437
  466loPI   GL2 7446  12.226  10.364  10.279  0.0062 -0.1984 -0.1289
  466loPI   C1A 7447  11.962  10.059  10.057  0.2279 -0.0180  0.1634
  466loPI   C2A 7448  11.997  10.106   9.604 -0.4364  0.1539 -0.1439
  466loPI   C3A 7449  11.889  10.054   9.194 -0.1432  0.1920  0.2280
  466loPI   C4A 7450  11.779   9.980   8.716 -0.1828 -0.2101 -0.3529
  466loPI   C5A 7451  11.920   9.837   8.274  0.2378 -0.0723  0.2215
  466loPI   C6A 7452  11.918   9.375   8.203  0.2996  0.0233 -0.1412
  466loPI   C1B 7453  12.267  10.514   9.842  0.1148  0.0482  0.2615
  466loPI   C2B 7454  12.198  10.479   9.354  0.0371  0.0713  0.0527
  466loPI   C3B 7455  12.128  10.401   8.925 -0.2766 -0.1696  0.2363
  466loPI   C4B 7456  12.154  10.321   8.375  0.0027  0.1407  0.1065
  467loPI    C1 7457   1.476  12.277  10.372  0.1495  0.3177 -0.1235
  467loPI    C2 7458   1.394  12.635  10.532 -0.0737 -0.0161  0.5478
  467loPI    C3 7459   1.697  12.416  10.675  0.1879 -0.0241  0.0091
  467loPI   PO4 7460   1.560  12.252  10.166 -0.0461  0.0391  0.0133
  467loPI   GL1 7461   1.341  12.254   9.743  0.0876 -0.1375 -0.2972
  467loPI   GL2 7462   0.991  12.287   9.623  0.0480  0.5384  0.0737
  467loPI   C1A 7463   1.391  12.069   9.360 -0.0228 -0.2356 -0.2461
  467loPI   C2A 7464   1.349  11.977   8.927  0.1686  0.1014  0.2949
  467loPI   C3A 7465   1.409  11.979   8.522  0.3017 -0.1977 -0.3029
  467loPI   C4A 7466   1.272  11.806   8.100  0.1937  0.1276  0.1072
  467loPI   C5A 7467   0.917  12.001   7.781 -0.0259  0.3632 -0.0094
  467loPI   C6A 7468   0.536  12.191   7.617 -0.0556 -0.0195  0.0131
  467loPI   C1B 7469   1.013  12.327   9.139 -0.1765  0.2234 -0.1953
  467loPI   C2B 7470   1.015  12.284   8.692  0.1290 -0.0631 -0.3384
  467loPI   C3B 7471   1.062  12.263   8.311 -0.0198  0.0730  0.1563
  467loPI   C4B 7472   1.471  12.310   8.057 -0.1065  0.2541 -0.0066
  468loPI    C1 7473  16.848   9.080  11.217  0.3288 -0.0585  0.0048
  468loPI    C2 7474  17.071   9.360  11.394  0.2745 -0.0245  0.0193
  468loPI    C3 7475  16.708   9.453  11.255  0.2494 -0.0916  0.0402
  468loPI   PO4 7476  16.936   8.928  11.097  0.1107 -0.0957  0.2091
  468loPI   GL1 7477  17.044   8.924  10.596  0.0607 -0.0832 -0.2027
  468loPI   GL2 7478  17.286   9.040  10.477  0.1622 -0.0293 -0.5359
  468loPI   C1A 7479  17.045   8.772  10.191 -0.2002 -0.0031  0.2791
  468loPI   C2A 7480  17.001   8.690   9.727 -0.1961 -0.0698  0.2528
  468loPI   C3A 7481  17.021   8.726   9.282 -0.3380 -0.1167 -0.0129
  468loPI   C4A 7482  16.997   8.762   8.865 -0.1832  0.0741  0.1530
  468loPI   C5A 7483  16.959   8.749   8.383 -0.3887 -0.1283  0.1470
  468loPI   C6A 7484  16.986   8.687   7.922  0.1965 -0.1098  0.2140
  468loPI   C1B 7485  17.334   9.193  10.032 -0.0556  0.3964  0.0277
  468loPI   C2B 7486  17.295   9.108   9.459  0.2587 -0.2810 -0.0947
  468loPI   C3B 7487  17.269   9.155   9.005 -0.0705  0.0782 -0.1602
  468loPI   C4B 7488  17.246   9.170   8.599  0.0094  0.1057  0.0718
  469loPI    C1 7489   6.460   8.006  10.795  0.1689  0.1875 -0.0394
  469loPI    C2 7490   6.252   8.221  11.060 -0.0636 -0.0080 -0.0594
  469loPI    C3 7491   6.458   7.900  11.181  0.0949  0.0900 -0.0661
  469loPI   PO4 7492   6.357   8.055  10.599 -0.1019  0.0386 -0.0252
  469loPI   GL1 7493   6.519   7.916  10.293  0.0939 -0.1686  0.0451
  469loPI   GL2 7494   6.180   7.995  10.121 -0.0967 -0.5393 -0.0508
  469loPI   C1A 7495   6.675   7.856   9.857  0.1271 -0.0516  0.0604
  469loPI   C2A 7496   6.669   7.935   9.422 -0.2507  0.1100 -0.3334
  469loPI   C3A 7497   6.664   7.810   9.025  0.0040  0.0224 -0.0575
  469loPI   C4A 7498   6.637   7.763   8.593 -0.0320  0.1761 -0.2589
  469loPI   C5A 7499   6.759   7.908   8.195  0.2635  0.1554  0.3079
  469loPI   C6A 7500   7.115   7.745   7.898 -0.0858 -0.3544 -0.1307
  469loPI   C1B 7501   6.235   7.894   9.624 -0.1206  0.1881  0.0798
  469loPI   C2B 7502   6.187   7.877   9.263  0.2122 -0.0407 -0.2452
  469loPI   C3B 7503   6.122   7.819   8.838  0.1249  0.0792  0.0502
  469loPI   C4B 7504   6.076   7.939   8.390  0.1216  0.1891  0.0448
  470loPI    C1 7505  16.242  11.952  10.834 -0.1188 -0.0687 -0.1920
  470loPI    C2 7506  15.885  11.943  10.654 -0.0829 -0.2564 -0.2553
  470loPI    C3 7507  15.912  11.877  11.048 -0.1559  0.1069 -0.1864
  470loPI   PO4 7508  16.404  11.844  10.697  0.3143  0.1013 -0.0059
  470loPI   GL1 7509  16.423  11.885  10.251  0.1902  0.3722 -0.0538
  470loPI   GL2 7510  16.067  11.939  10.147  0.1365  0.0197  0.1097
  470loPI   C1A 7511  16.523  11.900   9.898  0.2618  0.3400  0.3086
  470loPI   C2A 7512  16.492  11.920   9.421 -0.3043  0.1229  0.1442
  470loPI   C3A 7513  16.529  11.926   8.956 -0.3026 -0.1249  0.1549
  470loPI   C4A 7514  16.571  11.913   8.580 -0.3148 -0.0298 -0.1696
  470loPI   C5A 7515  16.626  11.904   8.126  0.1481 -0.0607  0.2857
  470loPI   C6A 7516  16.965  11.820   7.844  0.0853 -0.4837  0.0367
  470loPI   C1B 7517  15.949  11.970   9.674 -0.0798  0.2825  0.2028
  470loPI   C2B 7518  15.939  11.915   9.189  0.0353  0.3059  0.1388
  470loPI   C3B 7519  16.063  11.892   8.773  0.4072 -0.0079  0.3211
  470loPI   C4B 7520  16.133  11.824   8.283  0.0967 -0.2650 -0.3318
  471loPI    C1 7521  13.738   5.033  11.566  0.0633 -0.1343 -0.1370
  471loPI    C2 7522  13.355   5.133  11.510 -0.0073 -0.1653  0.2633
  471loPI    C3 7523  13.450   4.841  11.766  0.2832 -0.1890  0.1323
  471loPI   PO4 7524  13.789   5.029  11.253 -0.1177 -0.0152  0.0422
  471loPI   GL1 7525  13.586   4.825  10.873  0.4301  0.0233 -0.0934
  471loPI   GL2 7526  13.841   4.837  10.786  0.0384 -0.0252 -0.2487
  471loPI   C1A 7527  13.389   4.885  10.479  0.1288 -0.0361 -0.1414
  471loPI   C2A 7528  13.417   4.900  10.049 -0.0631  0.2953 -0.4256
  471loPI   C3A 7529  13.380   5.005   9.677 -0.3541 -0.1010 -0.0722
  471loPI   C4A 7530  13.367   4.988   9.243 -0.3469 -0.0656 -0.2364
  471loPI   C5A 7531  13.448   5.138   8.795  0.0901  0.1172  0.0908
  471loPI   C6A 7532  13.474   4.897   8.440 -0.0497  0.1748 -0.4083
  471loPI   C1B 7533  13.872   4.911  10.294  0.0223 -0.2709  0.2954
  471loPI   C2B 7534  13.947   4.850   9.851 -0.0666 -0.0169 -0.3067
  471loPI   C3B 7535  13.914   4.881   9.426 -0.0547  0.0992 -0.2815
  471loPI   C4B 7536  13.932   4.957   8.999 -0.1262  0.2901  0.1212
  472loPI    C1 7537  14.335   3.300  11.479 -0.2834  0.0816 -0.1594
  472loPI    C2 7538  14.120   3.005  11.643 -0.0256  0.0075  0.0517
  472loPI    C3 7539  13.998   3.384  11.677 -0.2499 -0.0543 -0.0432
  472loPI   PO4 7540  14.350   3.202  11.180  0.0206 -0.0699 -0.3289
  472loPI   GL1 7541  14.192   3.190  10.827  0.0560  0.0109 -0.1623
  472loPI   GL2 7542  14.158   2.828  10.840 -0.0862 -0.0347 -0.4208
  472loPI   C1A 7543  14.340   3.211  10.441 -0.2289 -0.0594 -0.1294
  472loPI   C2A 7544  14.344   3.199   9.954  0.0276 -0.0827 -0.0573
  472loPI   C3A 7545  14.340   3.169   9.498 -0.2657  0.1301 -0.1586
  472loPI   C4A 7546  14.360   3.133   9.080 -0.0434 -0.0437  0.3284
  472loPI   C5A 7547  14.344   2.851   8.819 -0.2276  0.1015  0.0207
  472loPI   C6A 7548  14.388   2.447   8.708  0.1709  0.0888  0.0888
  472loPI   C1B 7549  14.043   2.729  10.382 -0.1236 -0.3598  0.1624
  472loPI   C2B 7550  14.096   2.756   9.991 -0.0937 -0.3461  0.0903
  472loPI   C3B 7551  14.038   2.650   9.694 -0.1126 -0.0177  0.2345
  472loPI   C4B 7552  14.011   2.688   9.218  0.0113 -0.1816  0.2084
  473loPI    C1 7553  12.249   7.885  11.165  0.1583  0.1366  0.0914
  473loPI    C2 7554  12.098   8.055  11.494  0.0348  0.2264 -0.0105
  473loPI    C3 7555  12.400   7.794  11.524 -0.0091  0.1954  0.1779
  473loPI   PO4 7556  12.132   8.127  10.980 -0.0446 -0.1609 -0.0249
  473loPI   GL1 7557  12.042   8.269  10.642  0.0671 -0.1894 -0.0570
  473loPI   GL2 7558  11.987   7.837  10.628  0.1822 -0.0628  0.1425
  473loPI   C1A 7559  12.147   8.252  10.306 -0.3154 -0.2204  0.3241
  473loPI   C2A 7560  12.308   8.221   9.913 -0.0191  0.1753 -0.0255
  473loPI   C3A 7561  12.341   8.113   9.479 -0.0908 -0.2122 -0.1793
  473loPI   C4A 7562  12.305   8.147   9.031  0.0725 -0.1357  0.0014
  473loPI   C5A 7563  12.208   8.099   8.594  0.1817 -0.0789  0.2546
  473loPI   C6A 7564  12.095   8.367   8.187  0.2973  0.1273 -0.2206
  473loPI   C1B 7565  12.021   7.783  10.132 -0.1340  0.0579  0.1462
  473loPI   C2B 7566  11.987   7.783   9.712 -0.1445  0.0788  0.1854
  473loPI   C3B 7567  11.925   7.765   9.291  0.1468  0.1460  0.1520
  473loPI   C4B 7568  12.011   7.750   8.910 -0.3339  0.1004 -0.3037
  474loPI    C1 7569  12.073  13.322  11.341  0.0784  0.0005 -0.0090
  474loPI    C2 7570  12.426  13.138  11.382  0.0310 -0.1524 -0.2633
  474loPI    C3 7571  12.087  12.928  11.409 -0.0531  0.0334  0.2163
  474loPI   PO4 7572  12.102  13.497  11.100 -0.0293  0.0465  0.0444
  474loPI   GL1 7573  12.108  13.447  10.622 -0.0569 -0.0326 -0.1569
  474loPI   GL2 7574  12.291  13.703  10.579 -0.0356 -0.1449 -0.1541
  474loPI   C1A 7575  12.020  13.198  10.254 -0.3253  0.1032  0.0167
  474loPI   C2A 7576  11.967  13.132   9.784  0.1992  0.1488 -0.0903
  474loPI   C3A 7577  12.005  13.171   9.288  0.0676 -0.0797  0.2578
  474loPI   C4A 7578  11.879  13.070   8.878  0.1332 -0.3889 -0.0522
  474loPI   C5A 7579  12.035  13.199   8.446  0.2101  0.0215 -0.0471
  474loPI   C6A 7580  12.348  13.346   8.094 -0.1482  0.0164 -0.2332
  474loPI   C1B 7581  12.201  13.612  10.052 -0.0021  0.1093 -0.0309
  474loPI   C2B 7582  12.202  13.605   9.628 -0.1299 -0.0117  0.1906
  474loPI   C3B 7583  12.285  13.564   9.238  0.3941 -0.3660  0.0644
  474loPI   C4B 7584  12.240  13.541   8.865  0.3440  0.1871 -0.1855
  475loPI    C1 7585   5.065   6.850  10.907  0.2463 -0.1911 -0.2239
  475loPI    C2 7586   5.294   7.059  11.160 -0.1831 -0.0117  0.0281
  475loPI    C3 7587   5.208   6.676  11.238 -0.1399 -0.0189  0.0409
  475loPI   PO4 7588   5.149   6.976  10.682  0.0656  0.3618  0.2833
  475loPI   GL1 7589   5.157   6.786  10.376  0.2427  0.0702 -0.1923
  475loPI   GL2 7590   5.283   6.539  10.241  0.2687  0.0726 -0.0614
  475loPI   C1A 7591   5.131   7.069   9.977  0.0921 -0.0402  0.1235
  475loPI   C2A 7592   5.143   7.165   9.588  0.0967  0.1803  0.0581
  475loPI   C3A 7593   5.081   7.077   9.247 -0.0810  0.1728 -0.0300
  475loPI   C4A 7594   5.072   7.071   8.859  0.1929  0.2059  0.0135
  475loPI   C5A 7595   5.083   7.086   8.386  0.0971 -0.1003 -0.3639
  475loPI   C6A 7596   5.040   7.117   7.981  0.2723 -0.1309  0.0060
  475loPI   C1B 7597   5.318   6.607   9.806 -0.3510 -0.0986 -0.0223
  475loPI   C2B 7598   5.325   6.704   9.413  0.1091 -0.1813  0.0240
  475loPI   C3B 7599   5.265   6.665   8.972  0.1172 -0.2173 -0.1088
  475loPI   C4B 7600   5.316   6.630   8.534  0.0626 -0.0579 -0.1163
  476loPI    C1 7601   2.576  14.165  10.810  0.0436 -0.0953  0.0254
  476loPI    C2 7602   2.913  14.316  10.963  0.0374  0.0320 -0.0836
  476loPI    C3 7603   2.606  14.226  11.204 -0.0027  0.3075 -0.0289
  476loPI   PO4 7604   2.599  14.288  10.592 -0.1916  0.0030 -0.1053
  476loPI   GL1 7605   2.863  14.397  10.367  0.1733  0.2897  0.0767
  476loPI   GL2 7606   2.657  14.680  10.184  0.2584 -0.1673 -0.0510
  476loPI   C1A 7607   3.006  14.305   9.887  0.1445  0.0865 -0.0477
  476loPI   C2A 7608   3.069  14.314   9.443 -0.1851  0.0915 -0.1495
  476loPI   C3A 7609   2.916  14.384   9.020  0.3310  0.1345 -0.2171
  476loPI   C4A 7610   2.970  14.364   8.537  0.1891 -0.0918  0.0583
  476loPI   C5A 7611   3.177  14.595   8.168  0.0314 -0.0814  0.1011
  476loPI   C6A 7612   3.546  14.829   8.089  0.2729 -0.0797 -0.4719
  476loPI   C1B 7613   2.770  14.725   9.721  0.1362 -0.2090 -0.2041
  476loPI   C2B 7614   2.768  14.824   9.295 -0.1307 -0.1206 -0.0622
  476loPI   C3B 7615   2.742  14.815   8.839  0.4741  0.0845 -0.2642
  476loPI   C4B 7616   2.797  14.844   8.378  0.0886  0.0675 -0.2068
  477loPI    C1 7617  17.544   2.778  11.181  0.1422  0.2851 -0.2339
  477loPI    C2 7618  17.493   3.008  11.504 -0.0531 -0.0374 -0.0291
  477loPI    C3 7619  17.801   2.753  11.486  0.0496  0.0941 -0.1701
  477loPI   PO4 7620  17.461   2.997  10.993  0.1542 -0.1327  0.1888
  477loPI   GL1 7621  17.517   2.968  10.632  0.0888 -0.0873 -0.2361
  477loPI   GL2 7622  17.844   2.973  10.618 -0.1019 -0.1542 -0.0220
  477loPI   C1A 7623  17.495   2.914  10.207  0.4522 -0.0309 -0.0653
  477loPI   C2A 7624  17.556   2.968   9.711 -0.0474 -0.0949 -0.0833
  477loPI   C3A 7625  17.395   2.980   9.266 -0.0557  0.0491 -0.1942
  477loPI   C4A 7626  17.284   2.996   8.921 -0.0360 -0.1009  0.0259
  477loPI   C5A 7627  17.238   2.915   8.477  0.0105 -0.2752  0.1555
  477loPI   C6A 7628  17.216   2.784   8.012 -0.3993  0.2129  0.1749
  477loPI   C1B 7629  18.032   2.874  10.180  0.1475 -0.1525  0.0280
  477loPI   C2B 7630  18.071   2.914   9.741 -0.1512  0.0204 -0.1430
  477loPI   C3B 7631  17.928   2.931   9.382  0.0169  0.0322  0.1856
  477loPI   C4B 7632  17.807   2.943   9.015  0.1383  0.1916 -0.1830
  478loPI    C1 7633  11.163   0.456  10.919 -0.0395  0.0329 -0.0499
  478loPI    C2 7634  11.436   0.296  11.165 -0.3333 -0.3514  0.0370
  478loPI    C3 7635  11.119   0.489  11.315 -0.1511  0.0366 -0.0623
  478loPI   PO4 7636  11.278   0.603  10.727  0.1046  0.3670  0.1256
  478loPI   GL1 7637  11.360   0.587  10.368  0.1450  0.0479 -0.2333
  478loPI   GL2 7638  11.644   0.509  10.185 -0.1221 -0.1607 -0.0884
  478loPI   C1A 7639  11.124   0.619  10.010 -0.0634 -0.0797  0.1584
  478loPI   C2A 7640  11.137   0.520   9.489  0.1360  0.1547 -0.2866
  478loPI   C3A 7641  11.054   0.638   9.073 -0.0399  0.1471 -0.0268
  478loPI   C4A 7642  11.095   0.575   8.626 -0.1038  0.1813  0.1531
  478loPI   C5A 7643  11.301   0.881   8.275 -0.3290 -0.0868 -0.0029
  478loPI   C6A 7644  11.787   1.065   8.259 -0.0100  0.0264  0.2367
  478loPI   C1B 7645  11.738   0.569   9.777 -0.2530  0.0614  0.2807
  478loPI   C2B 7646  11.609   0.596   9.331 -0.1428  0.0385 -0.0396
  478loPI   C3B 7647  11.721   0.545   8.936  0.4343  0.0580  0.0926
  478loPI   C4B 7648  11.740   0.595   8.554 -0.1920 -0.0654  0.2759
  479loPI    C1 7649   6.750   7.390  11.216 -0.0346 -0.0822 -0.0221
  479loPI    C2 7650   6.658   7.066  11.431 -0.2101  0.0294  0.0733
  479loPI    C3 7651   6.661   7.427  11.604  0.1438  0.0617  0.0066
  479loPI   PO4 7652   6.972   7.309  10.976  0.2194 -0.3735  0.1920
  479loPI   GL1 7653   7.002   7.310  10.574 -0.1715  0.1069  0.2179
  479loPI   GL2 7654   6.834   7.509  10.397  0.1922  0.0715  0.0051
  479loPI   C1A 7655   7.022   7.031  10.254  0.1612 -0.0329 -0.2154
  479loPI   C2A 7656   7.028   6.957   9.846 -0.2623  0.0509  0.3435
  479loPI   C3A 7657   7.049   6.926   9.418  0.1710 -0.1121 -0.0643
  479loPI   C4A 7658   7.137   6.942   8.941  0.2212 -0.2428  0.1220
  479loPI   C5A 7659   7.133   6.896   8.577 -0.0722 -0.0380 -0.0891
  479loPI   C6A 7660   7.420   6.895   8.194  0.0988 -0.2531  0.1042
  479loPI   C1B 7661   6.868   7.412   9.984 -0.0631 -0.1534 -0.0281
  479loPI   C2B 7662   6.908   7.421   9.542  0.1293  0.0810 -0.2326
  479loPI   C3B 7663   6.909   7.366   9.131 -0.0907  0.1902  0.0578
  479loPI   C4B 7664   6.926   7.333   8.791  0.2476 -0.0521 -0.0225
  480loPI    C1 7665  15.152   7.676  11.157  0.2042 -0.1136 -0.1657
  480loPI    C2 7666  15.368   8.006  11.221  0.1204 -0.1171  0.1531
  480loPI    C3 7667  15.477   7.660  11.389  0.0386 -0.1867  0.0645
  480loPI   PO4 7668  15.053   7.732  10.847 -0.2816 -0.0509  0.1877
  480loPI   GL1 7669  15.195   7.563  10.463  0.1059 -0.0067  0.0001
  480loPI   GL2 7670  15.522   7.592  10.294  0.2049  0.0435 -0.0747
  480loPI   C1A 7671  15.138   7.551  10.067  0.0533 -0.1513  0.2618
  480loPI   C2A 7672  15.241   7.493   9.656 -0.1876  0.1672  0.2601
  480loPI   C3A 7673  15.150   7.547   9.290  0.2924  0.1329  0.3371
  480loPI   C4A 7674  15.048   7.498   8.877 -0.2337 -0.2561  0.1668
  480loPI   C5A 7675  14.962   7.708   8.480 -0.0877  0.2785  0.2862
  480loPI   C6A 7676  14.875   8.148   8.437  0.1997 -0.0518 -0.1559
  480loPI   C1B 7677  15.734   7.573   9.888  0.1117  0.0203 -0.0003
  480loPI   C2B 7678  15.710   7.485   9.413 -0.0462 -0.0224 -0.0277
  480loPI   C3B 7679  15.641   7.494   9.061 -0.2361 -0.1321  0.0138
  480loPI   C4B 7680  15.608   7.422   8.576 -0.0400 -0.0980  0.0047
  481loPI    C1 7681   6.187  10.309  10.868  0.0340 -0.0615  0.3614
  481loPI    C2 7682   6.213   9.910  10.849  0.0327 -0.0456 -0.0523
  481loPI    C3 7683   6.250  10.096  11.201  0.1697 -0.3999  0.1252
  481loPI   PO4 7684   6.352  10.356  10.636  0.0889 -0.3682  0.2195
  481loPI   GL1 7685   6.574  10.690  10.379  0.2969  0.2034 -0.0020
  481loPI   GL2 7686   6.750  10.455  10.122  0.1115  0.2897 -0.1420
  481loPI   C1A 7687   6.652  10.927  10.051 -0.0442 -0.0896 -0.2956
  481loPI   C2A 7688   6.630  10.899   9.668 -0.0408  0.2045  0.2748
  481loPI   C3A 7689   6.582  10.978   9.272 -0.3237  0.1655 -0.1939
  481loPI   C4A 7690   6.581  10.976   8.853  0.0434 -0.0673 -0.0588
  481loPI   C5A 7691   6.634  10.961   8.378  0.0993 -0.1159 -0.1602
  481loPI   C6A 7692   7.079  10.826   8.088  0.2064  0.0321 -0.0871
  481loPI   C1B 7693   6.884  10.414   9.704 -0.0445 -0.0464  0.0721
  481loPI   C2B 7694   6.817  10.474   9.281  0.0603  0.2819  0.1502
  481loPI   C3B 7695   6.789  10.526   8.762  0.0308  0.1217 -0.0833
  481loPI   C4B 7696   6.830  10.448   8.313  0.2592 -0.0315 -0.3394
  482loPI    C1 7697   7.390   5.290  11.199 -0.1328 -0.0597 -0.0216
  482loPI    C2 7698   7.076   5.510  11.316 -0.1499 -0.1813  0.1661
  482loPI    C3 7699   7.432   5.562  11.490 -0.0696 -0.0595 -0.0309
  482loPI   PO4 7700   7.466   5.315  10.943  0.1969 -0.1590  0.1189
  482loPI   GL1 7701   7.435   5.317  10.476  0.0784 -0.0757 -0.1010
  482loPI   GL2 7702   7.127   5.274  10.407 -0.1359  0.0298  0.1384
  482loPI   C1A 7703   7.441   5.698  10.300 -0.0200 -0.2388  0.3082
  482loPI   C2A 7704   7.459   5.976   9.976 -0.1281  0.1317 -0.1410
  482loPI   C3A 7705   7.524   5.927   9.528 -0.0555  0.0454  0.1800
  482loPI   C4A 7706   7.468   5.826   9.166  0.0294  0.0452 -0.0191
  482loPI   C5A 7707   7.272   5.806   8.815  0.1246 -0.1359  0.2623
  482loPI   C6A 7708   7.021   5.623   8.531  0.1540  0.3067 -0.2014
  482loPI   C1B 7709   7.160   5.451  10.026  0.1923 -0.0224 -0.1615
  482loPI   C2B 7710   7.152   5.547   9.734  0.3570  0.1726  0.0810
  482loPI   C3B 7711   7.183   5.385   9.292 -0.0660  0.0800  0.3938
  482loPI   C4B 7712   7.132   5.277   8.879  0.1479 -0.0333  0.0620
  483loPI    C1 7713  16.158   3.351  11.372 -0.3053 -0.0604  0.1769
  483loPI    C2 7714  16.135   3.038  11.621  0.2787 -0.1979  0.0714
  483loPI    C3 7715  16.274   3.389  11.753  0.0966 -0.1221  0.0645
  483loPI   PO4 7716  15.972   3.503  11.266  0.2845 -0.1345  0.0791
  483loPI   GL1 7717  15.871   3.497  10.841 -0.4149  0.0266  0.0230
  483loPI   GL2 7718  16.113   3.543  10.651  0.1232  0.2271 -0.0335
  483loPI   C1A 7719  15.709   3.416  10.350  0.0221 -0.1885  0.1822
  483loPI   C2A 7720  15.655   3.440   9.947  0.1528  0.1145  0.0565
  483loPI   C3A 7721  15.636   3.484   9.610 -0.1486  0.0252  0.0472
  483loPI   C4A 7722  15.599   3.481   9.182 -0.1695  0.0472  0.0758
  483loPI   C5A 7723  15.569   3.543   8.797  0.0352  0.0939  0.0355
  483loPI   C6A 7724  15.265   3.892   8.714 -0.0609 -0.0314 -0.0582
  483loPI   C1B 7725  16.233   3.431  10.268 -0.2411  0.1072  0.1527
  483loPI   C2B 7726  16.186   3.441   9.896  0.0852  0.3709  0.0357
  483loPI   C3B 7727  16.156   3.485   9.415  0.1634 -0.0604  0.1838
  483loPI   C4B 7728  16.071   3.453   9.054  0.1473  0.2635  0.1046
  484loPI    C1 7729   3.155   7.110  10.934 -0.2335  0.0523  0.0470
  484loPI    C2 7730   3.491   7.280  11.070 -0.2338  0.0917 -0.0012
  484loPI    C3 7731   3.148   7.326  11.271 -0.2019  0.0160  0.0712
  484loPI   PO4 7732   3.230   7.123  10.666  0.0640  0.1667  0.0837
  484loPI   GL1 7733   3.183   6.826  10.399 -0.2216 -0.1649 -0.1651
  484loPI   GL2 7734   3.050   6.481  10.464  0.0298  0.1440 -0.1451
  484loPI   C1A 7735   3.259   6.706   9.993  0.1951  0.1885  0.0501
  484loPI   C2A 7736   3.173   6.771   9.556  0.2607 -0.1560  0.0039
  484loPI   C3A 7737   3.194   6.665   9.142 -0.3584  0.0510  0.0265
  484loPI   C4A 7738   3.188   6.667   8.746 -0.0767  0.0504 -0.1643
  484loPI   C5A 7739   3.125   6.491   8.333 -0.1123  0.1638  0.3697
  484loPI   C6A 7740   3.154   6.445   7.833 -0.1474  0.2410 -0.1176
  484loPI   C1B 7741   2.973   6.271  10.091  0.1938 -0.0358 -0.0063
  484loPI   C2B 7742   2.976   6.274   9.574  0.1783 -0.1513 -0.0045
  484loPI   C3B 7743   2.970   6.202   9.134  0.1025  0.0101  0.1727
  484loPI   C4B 7744   2.876   6.235   8.721 -0.1984  0.2378  0.0404
  485loPI    C1 7745  11.786   8.580  11.068 -0.1523  0.2762 -0.3394
  485loPI    C2 7746  12.025   8.868  11.210 -0.1270  0.1392 -0.0994
  485loPI    C3 7747  12.094   8.485  11.304 -0.2600  0.0692 -0.2800
  485loPI   PO4 7748  11.801   8.633  10.837  0.5071  0.3803  0.0833
  485loPI   GL1 7749  12.042   8.711  10.514 -0.1893 -0.1518  0.0929
  485loPI   GL2 7750  12.386   8.811  10.460  0.1063  0.0570  0.2753
  485loPI   C1A 7751  12.021   8.703  10.123 -0.0546 -0.0646 -0.2197
  485loPI   C2A 7752  12.069   8.638   9.716 -0.3045  0.2964  0.0390
  485loPI   C3A 7753  12.098   8.638   9.282 -0.1288  0.0638 -0.2391
  485loPI   C4A 7754  12.066   8.589   8.863  0.0825 -0.0277 -0.2113
  485loPI   C5A 7755  11.959   8.747   8.468 -0.1895 -0.1195 -0.3076
  485loPI   C6A 7756  12.130   8.932   8.028  0.0657  0.3667  0.0259
  485loPI   C1B 7757  12.542   8.672  10.010 -0.2513 -0.3869  0.1018
  485loPI   C2B 7758  12.581   8.573   9.612 -0.0056 -0.1631 -0.0941
  485loPI   C3B 7759  12.562   8.614   9.113 -0.1932  0.3061 -0.1198
  485loPI   C4B 7760  12.632   8.479   8.701  0.1350  0.1903 -0.0543
  486loPI    C1 7761  12.699  13.964  11.051  0.1421  0.0288 -0.1423
  486loPI    C2 7762  12.989  13.840  11.297 -0.1339  0.0805  0.2180
  486loPI    C3 7763  12.813  14.194  11.358 -0.1294  0.1454 -0.1259
  486loPI   PO4 7764  12.725  13.937  10.801 -0.0015 -0.2185 -0.1657
  486loPI   GL1 7765  12.746  14.056  10.440 -0.2013  0.0101 -0.1577
  486loPI   GL2 7766  13.025  14.004  10.276  0.0508  0.2000 -0.0923
  486loPI   C1A 7767  12.667  13.730  10.175 -0.2134  0.0565  0.1319
  486loPI   C2A 7768  12.801  13.526  10.012 -0.1638 -0.1991 -0.2398
  486loPI   C3A 7769  12.698  13.578   9.671 -0.0564  0.2249 -0.1096
  486loPI   C4A 7770  12.808  13.526   9.228 -0.4054 -0.1943  0.0639
  486loPI   C5A 7771  12.775  13.528   8.848 -0.0704 -0.0880 -0.0464
  486loPI   C6A 7772  12.619  13.246   8.532  0.0247  0.1895 -0.0886
  486loPI   C1B 7773  13.048  13.953   9.916  0.0550 -0.0951 -0.1236
  486loPI   C2B 7774  13.089  13.911   9.549  0.0895 -0.3951 -0.1482
  486loPI   C3B 7775  13.083  13.956   9.172 -0.1287  0.2107 -0.0104
  486loPI   C4B 7776  13.106  13.961   8.771 -0.0417 -0.1440  0.0653
  487loPI    C1 7777   2.292  15.287  11.008  0.0583  0.1230  0.0242
  487loPI    C2 7778   2.529  15.480  11.267  0.1320  0.3968 -0.2414
  487loPI    C3 7779   2.196  15.300  11.396  0.3402  0.2432  0.0928
  487loPI   PO4 7780   2.489  15.200  10.863  0.1926 -0.1124 -0.1012
  487loPI   GL1 7781   2.513  15.104  10.419  0.0432 -0.0343  0.0631
  487loPI   GL2 7782   2.383  15.393  10.355 -0.0508 -0.2651  0.1991
  487loPI   C1A 7783   2.607  15.096   9.976  0.3441 -0.2553  0.0455
  487loPI   C2A 7784   2.552  15.224   9.584  0.0502 -0.3002  0.0854
  487loPI   C3A 7785   2.639  15.315   9.141  0.4083 -0.0595 -0.0966
  487loPI   C4A 7786   2.546  15.249   8.738  0.2644  0.0785 -0.0678
  487loPI   C5A 7787   2.610  15.351   8.308 -0.0786  0.1827 -0.0168
  487loPI   C6A 7788   2.732  15.692   7.994  0.2159 -0.1984 -0.1439
  487loPI   C1B 7789   2.299  15.481   9.971  0.1373  0.3226 -0.1162
  487loPI   C2B 7790   2.306  15.650   9.654 -0.0969  0.0513 -0.0177
  487loPI   C3B 7791   2.313  15.724   9.227 -0.3401 -0.0063  0.1162
  487loPI   C4B 7792   2.323  15.745   8.763  0.1492 -0.0631  0.2175
  488loPI    C1 7793   9.123  11.432  11.082  0.0500 -0.1226 -0.1662
  488loPI    C2 7794   9.493  11.481  11.227  0.0372 -0.1070 -0.1386
  488loPI    C3 7795   9.181  11.471  11.476 -0.0260  0.3209 -0.1934
  488loPI   PO4 7796   9.177  11.600  10.840 -0.1015  0.1013 -0.2466
  488loPI   GL1 7797   9.015  11.505  10.458  0.0398 -0.0997  0.0416
  488loPI   GL2 7798   9.318  11.605  10.342  0.0172  0.2735 -0.3503
  488loPI   C1A 7799   8.811  11.587  10.083 -0.0741  0.3305  0.4065
  488loPI   C2A 7800   8.665  11.673   9.701  0.0190  0.0579  0.2670
  488loPI   C3A 7801   8.720  11.643   9.325 -0.1926  0.1103 -0.0201
  488loPI   C4A 7802   8.700  11.678   8.966  0.1779 -0.1928 -0.1708
  488loPI   C5A 7803   8.470  11.676   8.477  0.0629  0.0842 -0.2344
  488loPI   C6A 7804   8.282  11.310   8.185  0.1673 -0.0500 -0.3691
  488loPI   C1B 7805   9.270  11.619   9.886 -0.0571 -0.2496  0.2347
  488loPI   C2B 7806   9.237  11.576   9.402  0.0193  0.0344  0.0757
  488loPI   C3B 7807   9.205  11.555   9.037  0.3374 -0.3654 -0.0834
  488loPI   C4B 7808   9.230  11.583   8.619  0.0926  0.0691 -0.1635
  489loPI    C1 7809   1.883   8.972  10.608 -0.1181  0.0113 -0.0999
  489loPI    C2 7810   1.984   9.206  10.916 -0.1712  0.1538 -0.1896
  489loPI    C3 7811   1.625   9.030  10.908 -0.0504 -0.1062 -0.0183
  489loPI   PO4 7812   2.165   9.053  10.452 -0.0798 -0.0434 -0.1781
  489loPI   GL1 7813   2.283   9.228  10.075 -0.0985 -0.1162  0.0329
  489loPI   GL2 7814   2.109   9.514  10.040 -0.1539  0.0133 -0.4401
  489loPI   C1A 7815   2.053   9.100   9.695 -0.3191 -0.1383  0.1684
  489loPI   C2A 7816   2.008   8.977   9.223 -0.3078  0.1371  0.2887
  489loPI   C3A 7817   1.930   8.920   8.830 -0.0440 -0.3051  0.0392
  489loPI   C4A 7818   1.982   8.898   8.417  0.1430  0.0917 -0.0999
  489loPI   C5A 7819   2.257   8.603   8.258 -0.0216 -0.1460 -0.0180
  489loPI   C6A 7820   2.374   8.196   8.206  0.0562  0.1005 -0.4552
  489loPI   C1B 7821   1.859   9.568   9.675  0.2011 -0.0512  0.1831
  489loPI   C2B 7822   1.821   9.416   9.338  0.0640  0.0552  0.0644
  489loPI   C3B 7823   1.828   9.468   8.942 -0.0815 -0.0706 -0.0685
  489loPI   C4B 7824   1.723   9.377   8.566 -0.0052  0.0693 -0.2203
  490loPI    C1 7825   9.628   4.101  11.260 -0.0235 -0.0870  0.1990
  490loPI    C2 7826   9.357   3.808  11.283  0.0181 -0.1465 -0.0405
  490loPI    C3 7827   9.246   4.187  11.345 -0.0917 -0.1844 -0.0020
  490loPI   PO4 7828   9.718   4.139  11.029  0.0212 -0.4515 -0.0427
  490loPI   GL1 7829   9.725   4.256  10.586  0.1519  0.1491 -0.1679
  490loPI   GL2 7830  10.082   4.207  10.704  0.1094 -0.1041  0.2436
  490loPI   C1A 7831   9.791   4.363  10.258 -0.1789  0.2311  0.3230
  490loPI   C2A 7832   9.736   4.345   9.861  0.1484 -0.0908  0.1522
  490loPI   C3A 7833   9.767   4.286   9.447 -0.3200 -0.1812  0.2421
  490loPI   C4A 7834   9.706   4.390   9.005  0.0616  0.3371 -0.1648
  490loPI   C5A 7835   9.629   4.288   8.636  0.0840 -0.1834 -0.0032
  490loPI   C6A 7836   9.455   4.379   8.227 -0.4834 -0.0982 -0.1907
  490loPI   C1B 7837  10.290   4.360  10.330  0.0956 -0.0108 -0.1027
  490loPI   C2B 7838  10.258   4.305   9.885  0.1053  0.0109 -0.1360
  490loPI   C3B 7839  10.264   4.247   9.585  0.0650 -0.1061  0.0980
  490loPI   C4B 7840  10.344   4.345   9.212  0.0192  0.0213 -0.0420
  491loPI    C1 7841  10.234   4.385  11.145  0.0513 -0.2090 -0.0009
  491loPI    C2 7842   9.927   4.443  11.394 -0.1088 -0.1071 -0.2192
  491loPI    C3 7843  10.293   4.378  11.541 -0.1714  0.1116  0.0419
  491loPI   PO4 7844  10.247   4.623  10.970 -0.1390 -0.0631 -0.2308
  491loPI   GL1 7845   9.999   4.737  10.621  0.2241  0.1011  0.0538
  491loPI   GL2 7846   9.671   4.800  10.476 -0.0403  0.2280 -0.1930
  491loPI   C1A 7847  10.038   4.827  10.173  0.0608  0.3752  0.1093
  491loPI   C2A 7848  10.033   4.700   9.746 -0.4121 -0.0051 -0.0497
  491loPI   C3A 7849   9.966   4.827   9.258 -0.5027 -0.0346 -0.0135
  491loPI   C4A 7850   9.998   4.779   8.833 -0.0705  0.0543  0.3328
  491loPI   C5A 7851   9.825   4.744   8.391  0.6497 -0.0125 -0.0004
  491loPI   C6A 7852   9.588   4.846   7.931 -0.1651 -0.2391  0.1963
  491loPI   C1B 7853   9.534   4.795  10.051  0.0633 -0.4581  0.1053
  491loPI   C2B 7854   9.523   4.783   9.609  0.0762  0.0085 -0.1123
  491loPI   C3B 7855   9.473   4.844   9.246  0.1711 -0.1294  0.1464
  491loPI   C4B 7856   9.470   4.809   8.841  0.2201  0.1459 -0.0501
  492loPI    C1 7857  13.668  15.455  10.775  0.1371  0.1338 -0.1948
  492loPI    C2 7858  13.805  15.665  11.086  0.0104 -0.1619  0.0664
  492loPI    C3 7859  13.435  15.514  11.095  0.0268 -0.2221 -0.2053
  492loPI   PO4 7860  13.615  15.638  10.567  0.1304 -0.0374 -0.0391
  492loPI   GL1 7861  13.389  15.654  10.193 -0.2182 -0.1023  0.0539
  492loPI   GL2 7862  13.347  15.301  10.082  0.1933 -0.2702 -0.1196
  492loPI   C1A 7863  13.742  15.668   9.847  0.0988 -0.0768 -0.2826
  492loPI   C2A 7864  13.753  15.688   9.447 -0.2591 -0.1042  0.0684
  492loPI   C3A 7865  13.651  15.690   9.063 -0.3620  0.0364 -0.0308
  492loPI   C4A 7866  13.694  15.688   8.578 -0.2921  0.0489  0.1872
  492loPI   C5A 7867  13.361  15.718   8.288  0.3333  0.0807 -0.1992
  492loPI   C6A 7868  13.224  15.500   7.832  0.1420 -0.0263  0.0465
  492loPI   C1B 7869  13.447  15.285   9.637 -0.1085  0.0234  0.0855
  492loPI   C2B 7870  13.467  15.305   9.207 -0.2695  0.4097 -0.1741
  492loPI   C3B 7871  13.446  15.277   8.762 -0.1171 -0.3264  0.1010
  492loPI   C4B 7872  13.487  15.216   8.303 -0.3080 -0.1645 -0.0334
  493loPI    C1 7873  11.575  17.372  10.892 -0.2274  0.1091 -0.1725
  493loPI    C2 7874  11.679  17.729  11.039  0.2920  0.0029 -0.2613
  493loPI    C3 7875  11.664  17.409  11.280 -0.0631  0.0587 -0.2042
  493loPI   PO4 7876  11.574  17.451  10.586 -0.1729  0.0525  0.0611
  493loPI   GL1 7877  11.390  17.355  10.204 -0.1041  0.0874  0.0941
  493loPI   GL2 7878  11.235  17.212  10.142  0.1862 -0.0883  0.0269
  493loPI   C1A 7879  11.578  17.547   9.866 -0.0789  0.2222 -0.0409
  493loPI   C2A 7880  11.630  17.557   9.418  0.1573  0.2213  0.0460
  493loPI   C3A 7881  11.586  17.537   8.973 -0.0729 -0.0651 -0.1450
  493loPI   C4A 7882  11.530  17.361   8.520 -0.0210 -0.3312 -0.0104
  493loPI   C5A 7883  11.496  17.263   8.132 -0.1589 -0.3274 -0.0885
  493loPI   C6A 7884  11.496  16.948   7.840 -0.1659 -0.1338  0.0290
  493loPI   C1B 7885  11.383  17.109   9.698 -0.3748  0.0154 -0.2631
  493loPI   C2B 7886  11.342  17.058   9.260 -0.0192 -0.1701 -0.1821
  493loPI   C3B 7887  11.332  17.080   8.909  0.1333 -0.0154  0.0829
  493loPI   C4B 7888  11.180  16.967   8.457 -0.0996 -0.2172 -0.0570
  494loPI    C1 7889  15.787  10.676  10.815  0.1717  0.1914  0.2543
  494loPI    C2 7890  15.519  10.413  10.951  0.0496  0.1030 -0.1426
  494loPI    C3 7891  15.870  10.456  11.138 -0.0747 -0.0765  0.1396
  494loPI   PO4 7892  15.665  10.669  10.496 -0.0763 -0.3256 -0.0582
  494loPI   GL1 7893  15.729  10.575  10.131 -0.0663  0.0875  0.2338
  494loPI   GL2 7894  15.934  10.285  10.170 -0.0139 -0.2530 -0.0821
  494loPI   C1A 7895  15.652  10.595   9.798 -0.1429 -0.0529  0.2371
  494loPI   C2A 7896  15.544  10.652   9.388  0.1315 -0.0425 -0.1260
  494loPI   C3A 7897  15.630  10.644   8.931 -0.0270 -0.0172 -0.2630
  494loPI   C4A 7898  15.528  10.521   8.508 -0.1663  0.1081 -0.0546
  494loPI   C5A 7899  15.812  10.330   8.192  0.0574 -0.0000 -0.2038
  494loPI   C6A 7900  15.999  10.053   7.846 -0.2013 -0.1610 -0.1278
  494loPI   C1B 7901  15.841  10.070   9.828  0.1317  0.1388  0.3546
  494loPI   C2B 7902  15.796  10.125   9.466  0.0138  0.1191  0.0960
  494loPI   C3B 7903  15.805  10.180   9.090  0.0553 -0.1283 -0.0262
  494loPI   C4B 7904  15.727  10.143   8.710 -0.2561  0.0070  0.1807
  495loPI    C1 7905  16.986   4.800  11.590 -0.0054  0.0901 -0.0924
  495loPI    C2 7906  16.650   5.005  11.660 -0.0159  0.0336  0.0235
  495loPI    C3 7907  16.938   4.991  11.938  0.2023  0.3127 -0.1828
  495loPI   PO4 7908  16.956   4.727  11.316 -0.0874 -0.1689 -0.2650
  495loPI   GL1 7909  16.820   4.548  10.853  0.1656 -0.0298  0.2478
  495loPI   GL2 7910  16.867   4.301  10.714  0.0219  0.0554 -0.0355
  495loPI   C1A 7911  16.677   4.744  10.471 -0.1794 -0.0641  0.0194
  495loPI   C2A 7912  16.500   4.727  10.067 -0.0466 -0.2953 -0.2808
  495loPI   C3A 7913  16.468   4.678   9.675  0.0821  0.0326  0.1156
  495loPI   C4A 7914  16.503   4.746   9.272 -0.1271 -0.4540 -0.1756
  495loPI   C5A 7915  16.456   4.759   8.961 -0.0271  0.1241  0.0349
  495loPI   C6A 7916  16.327   4.658   8.537 -0.2427 -0.3489 -0.1401
  495loPI   C1B 7917  16.844   4.329  10.269  0.1766  0.1103 -0.1189
  495loPI   C2B 7918  16.784   4.330   9.883  0.0024  0.0081 -0.1326
  495loPI   C3B 7919  16.747   4.287   9.379  0.1542 -0.0671 -0.3747
  495loPI   C4B 7920  16.681   4.357   8.985 -0.0832 -0.2054 -0.0759
  496loPI    C1 7921  12.402  11.791  11.341 -0.0966 -0.2199  0.0598
  496loPI    C2 7922  12.671  11.823  11.635 -0.4045  0.3156  0.2980
  496loPI    C3 7923  12.349  11.589  11.682 -0.0621 -0.2230  0.0631
  496loPI   PO4 7924  12.510  11.717  11.157  0.2754 -0.1257 -0.0987
  496loPI   GL1 7925  12.717  11.751  10.746  0.1431 -0.1022  0.0897
  496loPI   GL2 7926  12.351  11.614  10.714  0.1463 -0.0152 -0.2223
  496loPI   C1A 7927  12.603  11.789  10.294 -0.1352  0.1411  0.0689
  496loPI   C2A 7928  12.717  11.808   9.820  0.3022  0.0936  0.0053
  496loPI   C3A 7929  12.568  11.850   9.412 -0.1392 -0.1981  0.0055
  496loPI   C4A 7930  12.611  11.880   9.017  0.1585  0.0454 -0.1188
  496loPI   C5A 7931  12.486  11.912   8.589 -0.1321  0.1482 -0.2977
  496loPI   C6A 7932  12.174  12.195   8.374  0.0873 -0.0971 -0.0868
  496loPI   C1B 7933  12.138  11.855  10.391  0.2885 -0.1412 -0.0765
  496loPI   C2B 7934  12.097  11.864   9.918 -0.2816  0.2580  0.2664
  496loPI   C3B 7935  12.064  11.873   9.451 -0.1873  0.1259 -0.2441
  496loPI   C4B 7936  12.061  11.841   8.991 -0.2677 -0.0027 -0.1363
  497loPI    C1 7937  16.008   1.396  11.235  0.0534  0.0188  0.1863
  497loPI    C2 7938  15.671   1.550  11.386  0.0932  0.1585  0.1336
  497loPI    C3 7939  15.865   1.261  11.583 -0.1555 -0.0520  0.0745
  497loPI   PO4 7940  15.961   1.307  11.028 -0.0285 -0.0515 -0.1045
  497loPI   GL1 7941  16.156   1.615  10.631  0.0698  0.0521 -0.0909
  497loPI   GL2 7942  16.284   1.319  10.555 -0.1030  0.0619  0.1402
  497loPI   C1A 7943  16.148   1.785  10.247  0.0411  0.1891 -0.1972
  497loPI   C2A 7944  16.062   1.791   9.855 -0.0916 -0.0715 -0.1164
  497loPI   C3A 7945  16.118   1.718   9.433  0.2470  0.0631  0.0267
  497loPI   C4A 7946  16.138   1.661   8.993  0.2729  0.2334 -0.3521
  497loPI   C5A 7947  15.850   1.654   8.779  0.1573  0.1275 -0.1902
  497loPI   C6A 7948  15.464   1.720   8.569 -0.0941  0.3113 -0.5584
  497loPI   C1B 7949  16.332   1.299  10.138  0.2741  0.1592 -0.1319
  497loPI   C2B 7950  16.296   1.223   9.674  0.1241 -0.1919  0.1963
  497loPI   C3B 7951  16.305   1.249   9.262  0.1065 -0.2041  0.1763
  497loPI   C4B 7952  16.291   1.161   8.846 -0.0831 -0.0613 -0.0772
  498loPI    C1 7953   7.362   4.764  11.097  0.0223  0.1022  0.1003
  498loPI    C2 7954   7.496   4.677  11.463 -0.0376  0.2255  0.1520
  498loPI    C3 7955   7.209   4.454  11.297  0.1116  0.0632  0.1088
  498loPI   PO4 7956   7.543   4.776  10.917 -0.0561 -0.1022  0.4112
  498loPI   GL1 7957   7.753   4.958  10.524  0.0201 -0.0375  0.2041
  498loPI   GL2 7958   7.994   4.777  10.513 -0.1714  0.0936  0.1159
  498loPI   C1A 7959   7.689   4.613  10.147  0.1647 -0.1117  0.0985
  498loPI   C2A 7960   7.541   4.531   9.808 -0.4655  0.3100  0.1578
  498loPI   C3A 7961   7.548   4.463   9.373 -0.1742 -0.0106  0.1084
  498loPI   C4A 7962   7.463   4.402   8.933 -0.0523 -0.1843  0.2418
  498loPI   C5A 7963   7.638   4.518   8.567  0.1639 -0.2206  0.5065
  498loPI   C6A 7964   7.501   4.744   8.248 -0.2712 -0.0144  0.1516
  498loPI   C1B 7965   8.020   5.002  10.141  0.0525  0.1733  0.1043
  498loPI   C2B 7966   7.913   4.959   9.816 -0.1382  0.0247  0.1955
  498loPI   C3B 7967   7.896   4.967   9.439  0.2127 -0.1454 -0.0861
  498loPI   C4B 7968   7.857   4.824   9.007  0.1099 -0.1234 -0.0869
  499loPI    C1 7969   1.675   9.475  10.614  0.3486  0.0191 -0.0943
  499loPI    C2 7970   1.521   9.832  10.705 -0.2430 -0.2729  0.0991
  499loPI    C3 7971   1.867   9.716  10.868 -0.0192  0.2248 -0.0045
  499loPI   PO4 7972   1.740   9.437  10.394 -0.2590 -0.3318 -0.0313
  499loPI   GL1 7973   1.765   9.081  10.143  0.0003 -0.0035 -0.1311
  499loPI   GL2 7974   1.591   9.213   9.955  0.3032 -0.0337  0.1120
  499loPI   C1A 7975   1.811   8.709   9.869 -0.2627  0.1451  0.0285
  499loPI   C2A 7976   1.737   8.521   9.541 -0.2797  0.0762  0.0683
  499loPI   C3A 7977   1.704   8.560   9.141 -0.2671  0.1610 -0.0386
  499loPI   C4A 7978   1.706   8.471   8.796 -0.0289 -0.1789  0.2959
  499loPI   C5A 7979   1.677   8.387   8.402 -0.1722 -0.2004  0.0743
  499loPI   C6A 7980   1.512   7.979   8.207 -0.0520 -0.0982 -0.3406
  499loPI   C1B 7981   1.538   8.973   9.505 -0.2173  0.2299  0.1360
  499loPI   C2B 7982   1.530   9.065   9.075  0.2170  0.0052 -0.0076
  499loPI   C3B 7983   1.498   8.939   8.606 -0.1659  0.0876 -0.0842
  499loPI   C4B 7984   1.488   8.979   8.152 -0.2820  0.0990 -0.2664
  500loPI    C1 7985   2.145  16.635  10.836 -0.1065 -0.2066  0.1861
  500loPI    C2 7986   1.745  16.624  10.842 -0.1168  0.0763  0.1548
  500loPI    C3 7987   1.946  16.728  11.171 -0.0739  0.0606  0.1335
  500loPI   PO4 7988   2.178  16.632  10.607  0.0813 -0.2274 -0.0647
  500loPI   GL1 7989   1.878  16.865  10.401 -0.2275  0.1419 -0.5001
  500loPI   GL2 7990   1.609  16.871  10.442  0.0415 -0.0750 -0.0642
  500loPI   C1A 7991   2.073  16.947  10.034 -0.0723  0.1474  0.1100
  500loPI   C2A 7992   2.104  17.029   9.534 -0.0046  0.3181  0.2420
  500loPI   C3A 7993   2.078  17.004   9.167  0.2215 -0.2555 -0.0213
  500loPI   C4A 7994   2.158  17.005   8.668  0.1864  0.1610  0.1517
  500loPI   C5A 7995   1.937  17.132   8.349  0.1115 -0.2766 -0.0686
  500loPI   C6A 7996   1.625  17.433   8.259  0.1135 -0.1012 -0.0817
  500loPI   C1B 7997   1.566  17.002   9.971 -0.0925 -0.1467 -0.0333
  500loPI   C2B 7998   1.588  17.089   9.501 -0.0584  0.1248  0.1189
  500loPI   C3B 7999   1.534  17.066   9.116  0.1687  0.0524 -0.1751
  500loPI   C4B 8000   1.526  17.148   8.695 -0.2296  0.1502  0.2539
  501loPI    C1 8001  16.072   9.491  10.641  0.1069 -0.2893 -0.1434
  501loPI    C2 8002  15.914   9.465  11.008 -0.0771 -0.0133 -0.1997
  501loPI    C3 8003  16.269   9.643  10.954 -0.1323  0.1043 -0.1771
  501loPI   PO4 8004  15.898   9.314  10.511  0.1655 -0.0896 -0.0402
  501loPI   GL1 8005  15.632   9.283  10.150  0.5083  0.1700 -0.1039
  501loPI   GL2 8006  15.344   9.365  10.344 -0.0080 -0.0759 -0.3404
  501loPI   C1A 8007  15.720   9.167   9.802 -0.0868 -0.1060  0.0193
  501loPI   C2A 8008  15.756   9.245   9.395 -0.1278 -0.2098 -0.0927
  501loPI   C3A 8009  15.730   9.293   8.873  0.0478 -0.0765  0.3317
  501loPI   C4A 8010  15.823   9.184   8.446  0.0374 -0.2185  0.1019
  501loPI   C5A 8011  15.484   9.398   8.194 -0.0590 -0.3191 -0.2116
  501loPI   C6A 8012  15.143   9.656   8.225 -0.0117  0.4055 -0.1282
  501loPI   C1B 8013  15.121   9.302   9.894  0.1188  0.3399 -0.1540
  501loPI   C2B 8014  15.268   9.294   9.488  0.2366 -0.0412  0.0597
  501loPI   C3B 8015  15.286   9.269   9.039 -0.2979 -0.1031 -0.0916
  501loPI   C4B 8016  15.142   9.245   8.609  0.0074 -0.1365 -0.0480
  502loPI    C1 8017   5.318   4.359  11.015  0.0425  0.0317  0.0377
  502loPI    C2 8018   5.539   4.381  11.348  0.1030  0.1789 -0.0114
  502loPI    C3 8019   5.156   4.266  11.369  0.0553  0.3596  0.1331
  502loPI   PO4 8020   5.521   4.392  10.807  0.2103  0.0994 -0.1235
  502loPI   GL1 8021   5.924   4.317  10.494 -0.0376 -0.3429  0.2217
  502loPI   GL2 8022   5.980   4.076  10.274  0.2781  0.0444  0.4827
  502loPI   C1A 8023   6.035   4.496  10.079  0.0379 -0.3250 -0.0572
  502loPI   C2A 8024   6.024   4.458   9.621 -0.1003  0.0965  0.0260
  502loPI   C3A 8025   6.068   4.423   9.224 -0.0685 -0.2670  0.0604
  502loPI   C4A 8026   5.958   4.351   8.737  0.1216  0.0372 -0.2172
  502loPI   C5A 8027   6.025   4.501   8.302  0.0765  0.1845  0.1019
  502loPI   C6A 8028   6.014   4.714   7.935  0.3659 -0.0256 -0.2174
  502loPI   C1B 8029   5.751   4.060   9.914  0.0294 -0.2975  0.0511
  502loPI   C2B 8030   5.813   3.944   9.460 -0.0700  0.2965 -0.1065
  502loPI   C3B 8031   5.743   3.964   9.028  0.0499  0.1218  0.0812
  502loPI   C4B 8032   5.713   3.932   8.664 -0.0689  0.1425  0.0502
  503loPI    C1 8033   0.866   9.375  10.730 -0.1110 -0.0194  0.1909
  503loPI    C2 8034   1.250   9.399  10.837 -0.0290  0.0171 -0.1044
  503loPI    C3 8035   0.967   9.363  11.117  0.1990 -0.1576  0.1085
  503loPI   PO4 8036   0.856   9.192  10.566 -0.2029  0.0021 -0.1535
  503loPI   GL1 8037   0.981   9.207  10.109  0.2775 -0.1225  0.0796
  503loPI   GL2 8038   0.991   9.548   9.931 -0.2146  0.0606 -0.3141
  503loPI   C1A 8039   1.049   9.069   9.741 -0.2010 -0.1751  0.0102
  503loPI   C2A 8040   1.029   9.093   9.332  0.2963  0.2740 -0.0350
  503loPI   C3A 8041   0.955   9.041   8.941 -0.0441  0.2662  0.0927
  503loPI   C4A 8042   1.015   9.028   8.605 -0.1152  0.1450  0.0801
  503loPI   C5A 8043   0.938   9.076   8.175 -0.4727 -0.2776 -0.1906
  503loPI   C6A 8044   0.805   9.332   7.854 -0.1097  0.0942 -0.0556
  503loPI   C1B 8045   0.829   9.558   9.578  0.0074  0.3341 -0.1248
  503loPI   C2B 8046   0.732   9.502   9.189  0.1710 -0.0647 -0.1033
  503loPI   C3B 8047   0.767   9.482   8.705 -0.1594 -0.1103  0.1293
  503loPI   C4B 8048   0.683   9.542   8.244  0.1242 -0.0018 -0.0478
  504loPI    C1 8049  12.462  12.592  11.241  0.0665 -0.3284 -0.3084
  504loPI    C2 8050  12.255  12.262  11.333 -0.0295 -0.2394 -0.2021
  504loPI    C3 8051  12.595  12.346  11.527 -0.2960  0.0127  0.1714
  504loPI   PO4 8052  12.526  12.594  10.937 -0.2495  0.0830 -0.2418
  504loPI   GL1 8053  12.733  12.814  10.564  0.2551  0.1662 -0.2154
  504loPI   GL2 8054  12.935  13.043  10.653  0.1342  0.1114  0.2397
  504loPI   C1A 8055  12.740  12.637  10.127 -0.3685 -0.0272 -0.1111
  504loPI   C2A 8056  12.734  12.721   9.646 -0.0724 -0.1036 -0.0658
  504loPI   C3A 8057  12.728  12.742   9.160  0.1770 -0.1413 -0.1070
  504loPI   C4A 8058  12.768  12.686   8.764 -0.0630  0.0238 -0.0167
  504loPI   C5A 8059  12.985  12.899   8.410 -0.0506 -0.0131  0.2897
  504loPI   C6A 8060  13.203  13.308   8.281 -0.2867 -0.0809  0.1032
  504loPI   C1B 8061  13.124  13.053  10.327  0.3252 -0.1523 -0.0033
  504loPI   C2B 8062  13.058  13.136   9.835  0.4980 -0.2120 -0.2904
  504loPI   C3B 8063  13.030  13.184   9.439  0.1099 -0.1105 -0.0665
  504loPI   C4B 8064  13.000  13.105   8.962  0.0723  0.1777 -0.1103
  505loPI    C1 8065  14.569   9.430  10.914  0.0223  0.0981  0.1986
  505loPI    C2 8066  14.700   9.055  10.955  0.0622  0.1104  0.1836
  505loPI    C3 8067  14.620   9.276  11.279 -0.2063  0.0037  0.1925
  505loPI   PO4 8068  14.328   9.442  10.784  0.0073 -0.2220 -0.0915
  505loPI   GL1 8069  14.209   9.225  10.438  0.1580 -0.2189 -0.2362
  505loPI   GL2 8070  14.400   9.037  10.417  0.0194 -0.1109  0.2120
  505loPI   C1A 8071  14.187   9.415  10.027 -0.0926 -0.0896 -0.0001
  505loPI   C2A 8072  14.180   9.386   9.608 -0.1241  0.0536 -0.1021
  505loPI   C3A 8073  14.114   9.335   9.134 -0.0770 -0.1489 -0.0474
  505loPI   C4A 8074  14.143   9.403   8.707  0.1601  0.0820  0.0834
  505loPI   C5A 8075  14.137   9.392   8.254 -0.1590 -0.4248  0.3112
  505loPI   C6A 8076  14.213   9.539   7.929  0.1064 -0.1008 -0.0088
  505loPI   C1B 8077  14.368   8.953   9.984 -0.2791 -0.3632  0.0684
  505loPI   C2B 8078  14.448   8.879   9.582  0.1561 -0.0840  0.0019
  505loPI   C3B 8079  14.357   8.892   9.129 -0.0233  0.0098 -0.0167
  505loPI   C4B 8080  14.472   9.035   8.692  0.2766  0.2496 -0.0775
  506loPI    C1 8081  11.968  14.275  10.982  0.1221 -0.0525 -0.0435
  506loPI    C2 8082  12.247  13.989  10.995 -0.0846 -0.2478  0.2162
  506loPI    C3 8083  11.972  14.013  11.285 -0.1941  0.0897  0.0887
  506loPI   PO4 8084  11.898  14.320  10.783  0.2190 -0.1632 -0.0687
  506loPI   GL1 8085  11.962  14.110  10.390 -0.2943 -0.0735  0.0098
  506loPI   GL2 8086  12.270  14.083  10.205 -0.2253 -0.1398 -0.2836
  506loPI   C1A 8087  11.866  14.314   9.997 -0.1562  0.4557  0.0879
  506loPI   C2A 8088  12.018  14.209   9.570  0.3155 -0.0213 -0.1311
  506loPI   C3A 8089  12.120  13.994   9.089 -0.2692  0.2048  0.1115
  506loPI   C4A 8090  12.067  13.968   8.667  0.0575 -0.1181 -0.0854
  506loPI   C5A 8091  12.345  13.780   8.400 -0.0872 -0.0198 -0.0061
  506loPI   C6A 8092  12.816  13.683   8.354  0.0072  0.1747  0.0207
  506loPI   C1B 8093  12.462  14.015   9.819  0.0798  0.4479 -0.0101
  506loPI   C2B 8094  12.631  13.999   9.440  0.0320  0.0140 -0.0230
  506loPI   C3B 8095  12.594  13.962   8.970 -0.0606 -0.0656  0.2719
  506loPI   C4B 8096  12.675  14.112   8.520 -0.0149  0.1208  0.0630
  507loPI    C1 8097  15.992   8.966  11.013 -0.0733  0.1633 -0.0951
  507loPI    C2 8098  16.324   9.136  11.159 -0.0531 -0.1278  0.2101
  507loPI    C3 8099  16.016   9.057  11.402 -0.1548 -0.3068  0.0257
  507loPI   PO4 8100  16.039   8.916  10.822  0.3160  0.0713 -0.0208
  507loPI   GL1 8101  16.151   8.628  10.535  0.0318  0.1756  0.0518
  507loPI   GL2 8102  15.879   8.806  10.392 -0.2184  0.1188 -0.3497
  507loPI   C1A 8103  16.219   8.430  10.267 -0.1725  0.3525  0.0488
  507loPI   C2A 8104  16.228   8.337   9.852  0.1192  0.2009  0.1419
  507loPI   C3A 8105  16.233   8.304   9.443 -0.0917  0.3569 -0.3581
  507loPI   C4A 8106  16.198   8.328   8.975 -0.3164  0.0003  0.2274
  507loPI   C5A 8107  16.004   8.373   8.564  0.1324 -0.1041  0.1685
  507loPI   C6A 8108  15.834   8.720   8.337 -0.0447 -0.0250 -0.0470
  507loPI   C1B 8109  16.012   8.786   9.948  0.1284 -0.0649  0.0634
  507loPI   C2B 8110  15.952   8.790   9.577  0.0333 -0.0669  0.0302
  507loPI   C3B 8111  15.874   8.743   9.159  0.3033 -0.1310 -0.2042
  507loPI   C4B 8112  16.002   8.833   8.809  0.1121  0.3290  0.2884
  508loPI    C1 8113  13.031  15.779  10.859  0.0808 -0.1647 -0.0624
  508loPI    C2 8114  13.113  15.964  11.204  0.2005 -0.0253 -0.1646
  508loPI    C3 8115  12.735  15.876  11.110  0.1347  0.2247 -0.1423
  508loPI   PO4 8116  13.129  15.910  10.635  0.3233 -0.0273 -0.0976
  508loPI   GL1 8117  13.448  16.121  10.373  0.1024 -0.0420 -0.0595
  508loPI   GL2 8118  13.828  16.054  10.264  0.0053  0.0298  0.0137
  508loPI   C1A 8119  13.456  16.093   9.922 -0.1135 -0.1009 -0.1571
  508loPI   C2A 8120  13.491  16.121   9.533 -0.3417  0.1791  0.3159
  508loPI   C3A 8121  13.352  16.114   9.017 -0.0504 -0.1058  0.3369
  508loPI   C4A 8122  13.423  16.138   8.669 -0.2214  0.2582  0.1458
  508loPI   C5A 8123  13.453  16.259   8.183 -0.1376  0.1881  0.2352
  508loPI   C6A 8124  13.782  16.362   7.863  0.0103 -0.0492  0.3952
  508loPI   C1B 8125  13.967  16.144   9.835 -0.2068  0.0404 -0.0531
  508loPI   C2B 8126  13.926  16.169   9.318 -0.3731  0.2032  0.2342
  508loPI   C3B 8127  14.004  16.075   8.881 -0.0245 -0.3276  0.1268
  508loPI   C4B 8128  13.897  16.116   8.473  0.2971  0.1120  0.0994
  509loPI    C1 8129  13.507   0.767  11.088  0.1773 -0.0790 -0.2033
  509loPI    C2 8130  13.445   0.556  11.422  0.1879 -0.0243 -0.1668
  509loPI    C3 8131  13.368   0.949  11.416  0.0261 -0.0566 -0.2786
  509loPI   PO4 8132  13.408   0.676  10.928 -0.0653 -0.1144  0.1026
  509loPI   GL1 8133  13.292   0.742  10.527  0.4028  0.1089 -0.1922
  509loPI   GL2 8134  13.507   0.965  10.574 -0.1667 -0.0753 -0.0558
  509loPI   C1A 8135  13.163   0.568  10.182 -0.1286  0.0009 -0.0821
  509loPI   C2A 8136  13.187   0.600   9.755  0.0363  0.4236  0.3435
  509loPI   C3A 8137  13.135   0.515   9.315 -0.0289 -0.0423  0.1511
  509loPI   C4A 8138  13.230   0.606   8.860  0.1626  0.2455 -0.0532
  509loPI   C5A 8139  13.154   0.709   8.464  0.1109 -0.0449  0.0809
  509loPI   C6A 8140  13.264   0.973   8.120  0.3272  0.1157 -0.3682
  509loPI   C1B 8141  13.524   0.994  10.125  0.0318  0.0620  0.0794
  509loPI   C2B 8142  13.427   1.024   9.722 -0.2318 -0.3470  0.4155
  509loPI   C3B 8143  13.478   0.883   9.322 -0.1871  0.0024  0.0097
  509loPI   C4B 8144  13.547   0.979   8.944 -0.0292 -0.2072 -0.0622
  510loPI    C1 8145  15.752  13.284  10.965 -0.0026  0.0695  0.0444
  510loPI    C2 8146  15.621  13.350  11.337  0.1380  0.1397  0.0823
  510loPI    C3 8147  16.007  13.406  11.249  0.0504  0.4082 -0.1435
  510loPI   PO4 8148  15.593  13.502  10.760  0.0093  0.3303 -0.3307
  510loPI   GL1 8149  15.654  13.702  10.319 -0.2303  0.0598  0.0852
  510loPI   GL2 8150  15.869  13.403  10.269  0.2818  0.0193 -0.0839
  510loPI   C1A 8151  15.538  13.697   9.892  0.0421  0.3072  0.1216
  510loPI   C2A 8152  15.653  13.730   9.532 -0.1772 -0.1559 -0.2171
  510loPI   C3A 8153  15.670  13.721   9.110 -0.2275 -0.1006  0.2273
  510loPI   C4A 8154  15.673  13.764   8.770 -0.2417  0.1089 -0.2011
  510loPI   C5A 8155  15.711  13.733   8.323  0.1820  0.2623 -0.1624
  510loPI   C6A 8156  15.769  14.014   7.970 -0.3512 -0.0806  0.0621
  510loPI   C1B 8157  15.873  13.372   9.795 -0.1651  0.2232  0.3144
  510loPI   C2B 8158  15.785  13.311   9.394 -0.0583 -0.1684 -0.3463
  510loPI   C3B 8159  15.842  13.245   9.029  0.2050 -0.3386 -0.2256
  510loPI   C4B 8160  15.834  13.264   8.579  0.0268 -0.2245 -0.0382
  511loPI    C1 8161  12.064  17.207  10.910  0.0310  0.1025 -0.1467
  511loPI    C2 8162  11.806  16.901  10.908  0.0536  0.0814  0.0117
  511loPI    C3 8163  12.100  16.913  11.179 -0.0784  0.3524  0.1474
  511loPI   PO4 8164  12.041  17.258  10.682  0.0984  0.1634 -0.0807
  511loPI   GL1 8165  11.902  17.148  10.352  0.3142  0.1018 -0.2307
  511loPI   GL2 8166  11.994  17.523  10.209  0.2365  0.0324  0.1024
  511loPI   C1A 8167  11.830  17.142   9.956 -0.2149 -0.1521 -0.2439
  511loPI   C2A 8168  11.864  17.127   9.579 -0.1592  0.2011  0.2535
  511loPI   C3A 8169  11.888  17.081   9.129  0.3364 -0.1211  0.0948
  511loPI   C4A 8170  11.820  16.966   8.659  0.1540  0.1972  0.0904
  511loPI   C5A 8171  11.706  16.829   8.294 -0.1293 -0.0038  0.1591
  511loPI   C6A 8172  11.951  16.636   8.000 -0.0461  0.0210 -0.2765
  511loPI   C1B 8173  12.098  17.542   9.785 -0.0164 -0.3442  0.1098
  511loPI   C2B 8174  12.137  17.540   9.323  0.0041  0.0564 -0.0356
  511loPI   C3B 8175  12.085  17.507   8.906  0.0662  0.0310 -0.0648
  511loPI   C4B 8176  12.011  17.377   8.397 -0.0735 -0.0339 -0.2663
  512loPI    C1 8177  12.854  14.487  10.925 -0.0289 -0.1161 -0.3258
  512loPI    C2 8178  12.482  14.460  11.069 -0.0400 -0.0395 -0.3394
  512loPI    C3 8179  12.696  14.793  11.129  0.2164 -0.2780  0.1215
  512loPI   PO4 8180  12.867  14.461  10.663 -0.0332  0.1574 -0.2015
  512loPI   GL1 8181  13.150  14.472  10.291 -0.2503 -0.2313  0.2324
  512loPI   GL2 8182  13.006  14.775  10.203 -0.0302  0.0777 -0.2110
  512loPI   C1A 8183  13.320  14.373   9.920  0.1140 -0.2460 -0.0718
  512loPI   C2A 8184  13.457  14.357   9.544 -0.0945 -0.0693 -0.3082
  512loPI   C3A 8185  13.388  14.399   9.135  0.1105  0.0508  0.1686
  512loPI   C4A 8186  13.486  14.247   8.571  0.0591  0.1526  0.0715
  512loPI   C5A 8187  13.457  14.449   8.162  0.3571 -0.0622  0.3115
  512loPI   C6A 8188  13.712  14.586   7.989  0.0897  0.1359 -0.4202
  512loPI   C1B 8189  13.109  14.875   9.817  0.0261  0.2082  0.0756
  512loPI   C2B 8190  13.145  14.826   9.374 -0.0159 -0.3288 -0.1868
  512loPI   C3B 8191  13.182  14.836   8.938 -0.2091  0.3265  0.0876
  512loPI   C4B 8192  13.255  14.838   8.435 -0.0971  0.1686  0.1789
  513loPI    C1 8193  14.317   2.138  11.382  0.0065  0.0091 -0.0518
  513loPI    C2 8194  14.532   1.974  11.676 -0.1046 -0.0274  0.0094
  513loPI    C3 8195  14.580   2.360  11.585  0.1946 -0.1042 -0.1694
  513loPI   PO4 8196  14.291   1.968  11.218  0.0941 -0.3810 -0.0582
  513loPI   GL1 8197  14.353   1.791  10.870  0.0640  0.1307  0.1860
  513loPI   GL2 8198  14.635   1.929  10.840 -0.1497  0.1305  0.2004
  513loPI   C1A 8199  14.093   1.854  10.482 -0.0519  0.0352  0.2755
  513loPI   C2A 8200  13.981   1.812  10.119 -0.0218  0.4396 -0.3166
  513loPI   C3A 8201  14.012   1.815   9.716  0.2335  0.5157 -0.0361
  513loPI   C4A 8202  13.951   1.854   9.267  0.1459  0.0749  0.2501
  513loPI   C5A 8203  14.121   1.852   8.847  0.0556  0.0398 -0.0585
  513loPI   C6A 8204  14.224   1.895   8.369 -0.0571  0.1309 -0.0928
  513loPI   C1B 8205  14.617   1.903  10.407  0.0087 -0.0178 -0.0299
  513loPI   C2B 8206  14.614   1.815   9.930 -0.0911  0.0101 -0.0217
  513loPI   C3B 8207  14.562   1.754   9.590 -0.2250 -0.1520  0.1966
  513loPI   C4B 8208  14.550   1.779   9.121 -0.0659  0.5115  0.1653
  514loPI    C1 8209   8.606   7.703  11.526 -0.0841 -0.1668 -0.1780
  514loPI    C2 8210   8.430   7.563  11.857  0.1915 -0.0902  0.0041
  514loPI    C3 8211   8.815   7.674  11.866  0.1612  0.0503 -0.3063
  514loPI   PO4 8212   8.349   7.889  11.371 -0.2132  0.3691  0.0812
  514loPI   GL1 8213   8.217   7.751  11.001  0.0944  0.1183 -0.0796
  514loPI   GL2 8214   8.509   7.683  10.873 -0.2210 -0.0184  0.1330
  514loPI   C1A 8215   8.133   7.629  10.523  0.1153 -0.3001  0.0666
  514loPI   C2A 8216   8.172   7.687  10.163  0.2200 -0.0853  0.3776
  514loPI   C3A 8217   8.171   7.599   9.706 -0.1866 -0.1569 -0.0624
  514loPI   C4A 8218   8.144   7.665   9.273 -0.3276  0.1186  0.0178
  514loPI   C5A 8219   8.101   7.527   8.834 -0.2735  0.0292  0.2739
  514loPI   C6A 8220   7.997   7.273   8.494  0.0120  0.0025  0.0192
  514loPI   C1B 8221   8.638   7.670  10.408 -0.2466 -0.0889  0.2613
  514loPI   C2B 8222   8.649   7.643   9.927 -0.0425  0.1424 -0.1191
  514loPI   C3B 8223   8.621   7.648   9.460 -0.2425  0.2431  0.0678
  514loPI   C4B 8224   8.576   7.600   9.029  0.1745 -0.0090  0.1061
  515loPI    C1 8225   5.609   2.230  11.534 -0.1479 -0.1940 -0.0139
  515loPI    C2 8226   5.576   1.837  11.601  0.0274 -0.2314 -0.1407
  515loPI    C3 8227   5.784   2.066  11.854 -0.1391 -0.2063 -0.0251
  515loPI   PO4 8228   5.548   2.263  11.251  0.0737  0.2056 -0.4015
  515loPI   GL1 8229   5.372   2.403  10.782  0.0354  0.1974 -0.0143
  515loPI   GL2 8230   5.387   2.139  10.626  0.0023  0.0033 -0.2200
  515loPI   C1A 8231   5.466   2.643  10.386 -0.0748 -0.0176 -0.1303
  515loPI   C2A 8232   5.419   2.764  10.056 -0.0317  0.1709 -0.1264
  515loPI   C3A 8233   5.445   2.695   9.648  0.0158  0.0307 -0.0838
  515loPI   C4A 8234   5.380   2.678   9.224  0.1128 -0.0882 -0.2407
  515loPI   C5A 8235   5.365   2.655   8.809 -0.0946  0.3355  0.1138
  515loPI   C6A 8236   5.718   2.578   8.495 -0.0927 -0.1562  0.0125
  515loPI   C1B 8237   5.080   2.210  10.259 -0.1233 -0.0506  0.1740
  515loPI   C2B 8238   5.147   2.364   9.853 -0.1603 -0.1046 -0.2007
  515loPI   C3B 8239   5.200   2.241   9.397  0.0164  0.1413 -0.1040
  515loPI   C4B 8240   5.123   2.184   8.996  0.0319 -0.0304  0.0740
  516loPI    C1 8241  11.788   9.580  10.991 -0.1668  0.1602 -0.0876
  516loPI    C2 8242  12.041   9.787  11.222 -0.1047 -0.1777  0.1537
  516loPI    C3 8243  11.651   9.877  11.221 -0.0380  0.1206  0.0410
  516loPI   PO4 8244  11.897   9.601  10.767  0.0378  0.3578  0.0694
  516loPI   GL1 8245  11.687   9.685  10.313  0.1547 -0.0415  0.0858
  516loPI   GL2 8246  11.462   9.400  10.458 -0.0663  0.0625 -0.0032
  516loPI   C1A 8247  11.658   9.631   9.867  0.0025  0.1840 -0.1826
  516loPI   C2A 8248  11.566   9.702   9.407  0.0959  0.0319  0.0839
  516loPI   C3A 8249  11.547   9.589   8.942  0.0538 -0.0151 -0.1646
  516loPI   C4A 8250  11.512   9.588   8.496  0.1022 -0.1429  0.3126
  516loPI   C5A 8251  11.465   9.346   8.149  0.3635  0.2645 -0.0648
  516loPI   C6A 8252  11.127   8.996   8.113 -0.2445  0.1712  0.0599
  516loPI   C1B 8253  11.433   9.237  10.105 -0.0160 -0.2680  0.0760
  516loPI   C2B 8254  11.429   9.208   9.612  0.0168  0.2984  0.3732
  516loPI   C3B 8255  11.281   9.181   9.071  0.3928 -0.0320  0.1159
  516loPI   C4B 8256  11.268   9.174   8.650  0.0381  0.0633 -0.0457
  517loPI    C1 8257   2.762   4.077  11.513 -0.0601  0.0308 -0.2032
  517loPI    C2 8258   2.852   4.262  11.856 -0.0034  0.1815 -0.2983
  517loPI    C3 8259   2.475   4.262  11.721 -0.0604 -0.0355 -0.1442
  517loPI   PO4 8260   2.892   4.212  11.265 -0.3642 -0.0087 -0.2244
  517loPI   GL1 8261   2.916   4.322  10.819  0.4334  0.0457 -0.0419
  517loPI   GL2 8262   3.161   4.113  10.797  0.3176  0.3863 -0.1129
  517loPI   C1A 8263   2.971   4.587  10.482 -0.2774  0.1117 -0.1175
  517loPI   C2A 8264   2.899   4.486  10.013 -0.0182  0.0519 -0.0028
  517loPI   C3A 8265   2.810   4.482   9.569  0.0535  0.0259 -0.0859
  517loPI   C4A 8266   2.900   4.506   9.164 -0.0449  0.0116 -0.2234
  517loPI   C5A 8267   2.845   4.455   8.808 -0.0185  0.0085  0.0784
  517loPI   C6A 8268   2.994   4.645   8.483  0.1235 -0.0301 -0.3117
  517loPI   C1B 8269   3.095   4.067  10.387 -0.0773 -0.1781  0.0195
  517loPI   C2B 8270   3.136   4.036   9.966 -0.0887  0.2246  0.0405
  517loPI   C3B 8271   3.143   4.077   9.498 -0.2238  0.2126  0.1625
  517loPI   C4B 8272   3.142   4.075   9.032  0.1795 -0.4035  0.2014
  518loPI    C1 8273  17.059  16.835  11.214 -0.0310 -0.0908  0.0427
  518loPI    C2 8274  17.045  17.142  11.470  0.1578 -0.0672  0.0261
  518loPI    C3 8275  17.338  16.872  11.498  0.1207 -0.1211 -0.1011
  518loPI   PO4 8276  16.960  16.966  10.921  0.0409  0.2998  0.0279
  518loPI   GL1 8277  17.092  16.799  10.590  0.1880 -0.2851  0.0688
  518loPI   GL2 8278  17.260  17.096  10.521  0.1085  0.1464  0.0464
  518loPI   C1A 8279  16.896  16.758  10.194  0.1198 -0.0146  0.0346
  518loPI   C2A 8280  16.938  16.830   9.835 -0.2731 -0.1116  0.1709
  518loPI   C3A 8281  16.946  16.831   9.400  0.1613 -0.1511 -0.0607
  518loPI   C4A 8282  17.057  16.830   8.990  0.2067  0.0283 -0.0183
  518loPI   C5A 8283  17.193  16.786   8.569 -0.2517 -0.0580 -0.1447
  518loPI   C6A 8284  17.333  16.895   8.112 -0.2309 -0.4219 -0.0884
  518loPI   C1B 8285  17.264  17.108  10.096  0.3962 -0.3391  0.1813
  518loPI   C2B 8286  17.395  17.257   9.733  0.0370  0.1109  0.0139
  518loPI   C3B 8287  17.270  17.171   9.279 -0.1624 -0.1553 -0.1429
  518loPI   C4B 8288  17.333  17.249   8.844  0.0243  0.0074 -0.0322
  519loPI    C1 8289   1.388  10.329  10.719  0.1596  0.0740  0.0604
  519loPI    C2 8290   1.784  10.274  10.718  0.1883  0.2652  0.2298
  519loPI    C3 8291   1.573  10.197  11.049  0.1150  0.3714  0.2082
  519loPI   PO4 8292   1.319  10.237  10.504  0.3919 -0.1322  0.0590
  519loPI   GL1 8293   1.533   9.995  10.260  0.0261  0.1952  0.1411
  519loPI   GL2 8294   1.472   9.785   9.900 -0.1361  0.0728  0.1571
  519loPI   C1A 8295   1.957  10.018   9.924  0.1508  0.3965  0.0113
  519loPI   C2A 8296   2.187   9.942   9.624  0.2962 -0.0188 -0.0410
  519loPI   C3A 8297   2.108   9.868   9.279 -0.0047  0.2239 -0.0512
  519loPI   C4A 8298   2.061   9.853   8.895  0.1475  0.0389  0.1482
  519loPI   C5A 8299   2.047  10.144   8.589  0.1433 -0.3193 -0.3046
  519loPI   C6A 8300   1.820  10.398   8.279 -0.0821 -0.3171  0.2404
  519loPI   C1B 8301   1.340   9.581   9.617 -0.3491  0.0538 -0.2764
  519loPI   C2B 8302   1.297   9.525   9.221 -0.0634 -0.1875  0.0223
  519loPI   C3B 8303   1.264   9.441   8.805  0.0941 -0.3028 -0.1208
  519loPI   C4B 8304   1.251   9.413   8.414 -0.2453 -0.1148  0.1707
  520loPI    C1 8305   8.199  14.434  10.963 -0.2596  0.3614  0.0909
  520loPI    C2 8306   8.120  14.287  11.327 -0.1331  0.1489  0.0341
  520loPI    C3 8307   8.239  14.667  11.286 -0.0413  0.1417  0.2257
  520loPI   PO4 8308   8.280  14.189  10.787  0.1582  0.1063 -0.1080
  520loPI   GL1 8309   8.221  14.125  10.441  0.0195 -0.0010 -0.2274
  520loPI   GL2 8310   8.104  14.395  10.287 -0.1469 -0.0644  0.1098
  520loPI   C1A 8311   8.221  13.958  10.030 -0.0264  0.1121 -0.1331
  520loPI   C2A 8312   8.125  13.976   9.603  0.0424 -0.1991  0.2443
  520loPI   C3A 8313   8.069  13.989   9.101 -0.0045  0.0675 -0.1640
  520loPI   C4A 8314   8.129  14.057   8.660 -0.0602  0.2578  0.2660
  520loPI   C5A 8315   8.162  13.829   8.183 -0.2094 -0.1810 -0.2259
  520loPI   C6A 8316   8.391  13.686   7.679  0.1015 -0.1370 -0.2783
  520loPI   C1B 8317   7.997  14.384  10.002 -0.1527  0.0103  0.2919
  520loPI   C2B 8318   7.836  14.452   9.596 -0.0902  0.2760 -0.0931
  520loPI   C3B 8319   7.876  14.495   9.090  0.4722  0.1860 -0.1599
  520loPI   C4B 8320   7.934  14.520   8.693 -0.0761 -0.3147 -0.2779
  521loPI    C1 8321   0.552   4.765  11.324  0.1691  0.0577  0.0193
  521loPI    C2 8322   0.909   4.945  11.327  0.0899  0.2175 -0.0249
  521loPI    C3 8323   0.610   5.089  11.552  0.0426  0.1058 -0.0157
  521loPI   PO4 8324   0.539   4.795  10.993 -0.0507  0.1010 -0.0269
  521loPI   GL1 8325   0.948   4.799  10.695 -0.0841 -0.1598 -0.0345
  521loPI   GL2 8326   0.783   5.070  10.604 -0.0191  0.3065  0.0545
  521loPI   C1A 8327   0.904   4.708  10.282  0.2400  0.0265 -0.0658
  521loPI   C2A 8328   0.823   4.685   9.868 -0.1920  0.1247  0.0050
  521loPI   C3A 8329   0.694   4.633   9.416 -0.0479 -0.0968 -0.0232
  521loPI   C4A 8330   0.759   4.567   9.068  0.1349  0.0170 -0.1621
  521loPI   C5A 8331   0.636   4.629   8.683  0.0119  0.0066  0.0601
  521loPI   C6A 8332   0.329   4.659   8.382  0.0633  0.2443 -0.0940
  521loPI   C1B 8333   0.643   5.102  10.174 -0.1377  0.3957 -0.0112
  521loPI   C2B 8334   0.518   5.098   9.793 -0.1163 -0.2402 -0.0903
  521loPI   C3B 8335   0.505   5.135   9.415 -0.2501  0.0805 -0.1421
  521loPI   C4B 8336   0.526   5.094   8.995  0.1161  0.1386  0.1141
  522loPI    C1 8337   3.014  11.355  10.271 -0.3193  0.1703 -0.1086
  522loPI    C2 8338   2.816  11.627  10.487  0.1081  0.2424  0.2067
  522loPI    C3 8339   3.096  11.400  10.660  0.2102  0.0505 -0.1980
  522loPI   PO4 8340   3.039  11.455  10.034 -0.2320  0.2639  0.0676
  522loPI   GL1 8341   3.190  11.579   9.686 -0.0625 -0.1496  0.0251
  522loPI   GL2 8342   3.302  11.255   9.657  0.1843 -0.1888 -0.1382
  522loPI   C1A 8343   3.268  11.574   9.180  0.1393 -0.1094 -0.0633
  522loPI   C2A 8344   3.265  11.747   8.719 -0.1087  0.1956 -0.1178
  522loPI   C3A 8345   3.134  11.876   8.275  0.4757  0.2002 -0.1109
  522loPI   C4A 8346   3.018  11.871   7.811  0.0113 -0.1034 -0.1073
  522loPI   C5A 8347   2.707  11.594   7.633 -0.1547  0.1040 -0.1971
  522loPI   C6A 8348   2.626  11.185   7.380 -0.3439  0.1235 -0.1331
  522loPI   C1B 8349   3.572  11.187   9.340 -0.0157 -0.0180 -0.2752
  522loPI   C2B 8350   3.517  11.191   8.916  0.0315 -0.0814  0.1271
  522loPI   C3B 8351   3.527  11.234   8.405  0.4285 -0.0293 -0.3374
  522loPI   C4B 8352   3.432  11.152   8.025  0.0424 -0.0101  0.0344
  523loPI    C1 8353  12.639   2.981  11.058 -0.0204 -0.3443  0.1873
  523loPI    C2 8354  12.823   3.110  11.388 -0.0408  0.1243  0.0227
  523loPI    C3 8355  12.433   3.024  11.397 -0.0231  0.0536  0.1396
  523loPI   PO4 8356  12.716   3.137  10.859 -0.2317  0.1443 -0.0210
  523loPI   GL1 8357  12.954   3.202  10.592 -0.0664  0.2038  0.3464
  523loPI   GL2 8358  12.752   3.160  10.375 -0.0710  0.1240  0.2177
  523loPI   C1A 8359  13.298   3.106  10.344  0.0814  0.0557 -0.0292
  523loPI   C2A 8360  13.365   3.224   9.931 -0.1289 -0.2345  0.1331
  523loPI   C3A 8361  13.304   3.208   9.518 -0.0422  0.3986  0.4768
  523loPI   C4A 8362  13.301   3.232   9.120  0.0825  0.0739 -0.0857
  523loPI   C5A 8363  13.284   3.121   8.737  0.0499  0.1727 -0.1761
  523loPI   C6A 8364  13.496   2.761   8.562 -0.0618 -0.0885  0.0892
  523loPI   C1B 8365  12.871   3.152  10.046 -0.1364 -0.1962  0.1064
  523loPI   C2B 8366  12.846   3.279   9.590  0.2061 -0.0199  0.1062
  523loPI   C3B 8367  12.789   3.208   9.123 -0.1757  0.0889 -0.1484
  523loPI   C4B 8368  12.779   3.195   8.631  0.0090 -0.0431 -0.0945
  524loPI    C1 8369   3.958  16.560  10.833  0.0678  0.4658  0.0697
  524loPI    C2 8370   3.919  16.852  11.102  0.1353  0.2135  0.3591
  524loPI    C3 8371   4.129  16.524  11.193 -0.1427 -0.0331  0.1281
  524loPI   PO4 8372   3.662  16.578  10.718  0.1696  0.0751  0.0712
  524loPI   GL1 8373   3.448  16.679  10.443  0.1689  0.0485  0.0520
  524loPI   GL2 8374   3.351  16.392  10.283 -0.0500 -0.0932 -0.2246
  524loPI   C1A 8375   3.635  16.866  10.098  0.0413  0.0313  0.3144
  524loPI   C2A 8376   3.625  16.968   9.633 -0.1875 -0.1605  0.1502
  524loPI   C3A 8377   3.666  17.013   9.182  0.0663 -0.1126 -0.0842
  524loPI   C4A 8378   3.711  17.000   8.777 -0.1404  0.1191 -0.0193
  524loPI   C5A 8379   3.769  16.987   8.275  0.0502  0.1200  0.1502
  524loPI   C6A 8380   3.718  17.032   7.860 -0.2130  0.2077 -0.1636
  524loPI   C1B 8381   3.423  16.417   9.909  0.0457  0.2457 -0.0714
  524loPI   C2B 8382   3.345  16.543   9.569  0.1291  0.0128 -0.0993
  524loPI   C3B 8383   3.386  16.483   9.083 -0.4164 -0.2067  0.1005
  524loPI   C4B 8384   3.443  16.506   8.649  0.0259 -0.0759 -0.1356
  525loPI    C1 8385  16.222   7.053  11.219 -0.0373  0.1424 -0.1344
  525loPI    C2 8386  16.362   7.284  11.514 -0.1604  0.0622 -0.0121
  525loPI    C3 8387  16.056   7.036  11.582  0.0344 -0.2125 -0.1148
  525loPI   PO4 8388  16.282   7.226  11.021  0.2764  0.0772  0.0582
  525loPI   GL1 8389  16.282   7.210  10.609  0.0422 -0.0037  0.2020
  525loPI   GL2 8390  16.297   6.981  10.433  0.0213 -0.0825 -0.1791
  525loPI   C1A 8391  16.305   7.460  10.273 -0.0504  0.3014 -0.0931
  525loPI   C2A 8392  16.249   7.485   9.797 -0.3444  0.0994  0.1221
  525loPI   C3A 8393  16.208   7.467   9.342 -0.2625 -0.0335  0.4451
  525loPI   C4A 8394  16.131   7.422   8.864  0.0248  0.0960  0.2638
  525loPI   C5A 8395  16.265   7.436   8.397 -0.0174  0.2031 -0.0708
  525loPI   C6A 8396  16.511   7.376   8.049  0.0176  0.1855  0.1747
  525loPI   C1B 8397  16.419   6.965   9.992 -0.0800  0.1613 -0.2289
  525loPI   C2B 8398  16.463   6.922   9.558  0.0130 -0.0680 -0.1534
  525loPI   C3B 8399  16.440   7.069   9.186  0.0880 -0.0647 -0.2164
  525loPI   C4B 8400  16.441   7.066   8.723 -0.1083 -0.0156 -0.1693
  526loPI    C1 8401  12.799  15.285  11.006  0.1172 -0.2189  0.1418
  526loPI    C2 8402  12.618  15.398  11.345  0.0234 -0.0213  0.0272
  526loPI    C3 8403  13.010  15.463  11.296  0.0040  0.1010  0.0314
  526loPI   PO4 8404  12.717  15.344  10.818  0.3652 -0.1479 -0.0262
  526loPI   GL1 8405  12.622  15.388  10.431  0.0971  0.2275  0.0279
  526loPI   GL2 8406  12.799  15.252  10.320  0.1263 -0.1773 -0.4019
  526loPI   C1A 8407  12.462  15.550  10.065  0.1277 -0.1309  0.1741
  526loPI   C2A 8408  12.501  15.537   9.619  0.0972 -0.1839  0.0733
  526loPI   C3A 8409  12.606  15.614   9.230 -0.0457  0.2761  0.0350
  526loPI   C4A 8410  12.633  15.702   8.775 -0.0166  0.1316 -0.0759
  526loPI   C5A 8411  12.894  15.552   8.355  0.1059  0.1273 -0.0566
  526loPI   C6A 8412  12.999  15.191   8.217  0.0954  0.1699  0.1137
  526loPI   C1B 8413  12.900  15.327   9.891  0.0694  0.1419  0.1551
  526loPI   C2B 8414  12.979  15.266   9.518  0.2291  0.0794  0.2358
  526loPI   C3B 8415  12.954  15.282   9.141 -0.0780 -0.0458  0.3034
  526loPI   C4B 8416  12.894  15.191   8.710 -0.1766 -0.2004  0.2937
  527loPI    C1 8417  16.273  15.546  11.188  0.2167  0.0655 -0.0241
  527loPI    C2 8418  16.526  15.844  11.272  0.0784  0.2334 -0.1955
  527loPI    C3 8419  16.174  15.822  11.461  0.2154  0.0032  0.0387
  527loPI   PO4 8420  16.222  15.549  10.903  0.2219  0.0915 -0.0610
  527loPI   GL1 8421  16.098  15.814  10.567  0.0808 -0.0727 -0.0769
  527loPI   GL2 8422  16.290  15.622  10.323 -0.2561  0.3886  0.3150
  527loPI   C1A 8423  16.000  15.979  10.152 -0.1066 -0.0698 -0.3141
  527loPI   C2A 8424  16.015  15.986   9.754 -0.2463  0.0310 -0.1274
  527loPI   C3A 8425  15.955  15.982   9.395  0.1023 -0.0807 -0.2117
  527loPI   C4A 8426  16.017  15.965   8.998 -0.0486  0.0117 -0.1690
  527loPI   C5A 8427  15.977  15.995   8.592 -0.2207  0.2919  0.1026
  527loPI   C6A 8428  16.131  15.913   8.143 -0.1531 -0.0022  0.2531
  527loPI   C1B 8429  16.230  15.558   9.927 -0.2769  0.0867  0.0327
  527loPI   C2B 8430  16.238  15.548   9.476 -0.1729  0.3302 -0.0323
  527loPI   C3B 8431  16.217  15.427   9.060  0.0025  0.0967 -0.3149
  527loPI   C4B 8432  16.251  15.576   8.700  0.2534 -0.0227  0.2448
  528loPI    C1 8433  10.579   9.597  10.894 -0.1846 -0.1106  0.0418
  528loPI    C2 8434  10.324   9.869  11.039  0.0920  0.1442  0.0575
  528loPI    C3 8435  10.583   9.688  11.284  0.1791  0.1622 -0.0208
  528loPI   PO4 8436  10.452   9.558  10.663  0.3043 -0.2003 -0.0554
  528loPI   GL1 8437  10.328   9.869  10.336  0.1301  0.0108  0.1643
  528loPI   GL2 8438  10.641   9.899  10.228 -0.2449 -0.0704 -0.0492
  528loPI   C1A 8439  10.164   9.785   9.977  0.0225  0.1017  0.1134
  528loPI   C2A 8440  10.156   9.723   9.510 -0.2454  0.0185  0.0679
  528loPI   C3A 8441  10.085   9.781   9.053  0.1721 -0.0337  0.1041
  528loPI   C4A 8442  10.099   9.825   8.602 -0.3144 -0.2974  0.4468
  528loPI   C5A 8443  10.247   9.777   8.168 -0.0651 -0.1816  0.0822
  528loPI   C6A 8444  10.346   9.842   7.783 -0.0259 -0.2741 -0.1473
  528loPI   C1B 8445  10.631   9.694   9.799  0.1495 -0.1571 -0.1062
  528loPI   C2B 8446  10.657   9.639   9.366 -0.3950 -0.1869  0.2857
  528loPI   C3B 8447  10.621   9.710   8.930 -0.1249  0.1200  0.2355
  528loPI   C4B 8448  10.570   9.625   8.555  0.0260 -0.0650  0.0095
  529loPI    C1 8449  11.038   8.839  11.106  0.1226 -0.0947 -0.1540
  529loPI    C2 8450  11.278   8.537  11.212  0.2445 -0.0100 -0.1867
  529loPI    C3 8451  11.037   8.705  11.483  0.1057 -0.1993 -0.1908
  529loPI   PO4 8452  10.887   8.774  10.911  0.0038 -0.2547 -0.2254
  529loPI   GL1 8453  10.897   8.710  10.557  0.1566  0.1206 -0.0214
  529loPI   GL2 8454  10.643   8.522  10.340 -0.1777 -0.1211  0.2000
  529loPI   C1A 8455  11.012   8.897  10.186  0.0123 -0.0224  0.1505
  529loPI   C2A 8456  10.972   8.738   9.717  0.0053  0.0325  0.0583
  529loPI   C3A 8457  11.022   8.774   9.257 -0.0041 -0.1765 -0.3311
  529loPI   C4A 8458  11.020   8.715   8.892 -0.0729  0.2199  0.1383
  529loPI   C5A 8459  10.856   8.646   8.439  0.1191 -0.1789  0.0012
  529loPI   C6A 8460  10.662   8.910   8.036 -0.0037 -0.2948 -0.0977
  529loPI   C1B 8461  10.309   8.449  10.101 -0.0290 -0.2397  0.0856
  529loPI   C2B 8462  10.263   8.361   9.683  0.3888 -0.1700  0.1773
  529loPI   C3B 8463  10.213   8.353   9.163 -0.0242 -0.1152 -0.0493
  529loPI   C4B 8464  10.185   8.380   8.758 -0.0105 -0.0738  0.0142
  530loPI    C1 8465   3.122   3.789  11.206  0.0846  0.1568 -0.0959
  530loPI    C2 8466   3.232   3.447  11.382 -0.1298  0.1555  0.0395
  530loPI    C3 8467   2.860   3.586  11.431 -0.1301  0.2619 -0.2476
  530loPI   PO4 8468   3.392   3.917  11.215  0.1960  0.1253 -0.0030
  530loPI   GL1 8469   3.642   3.975  10.882 -0.0612 -0.0382  0.3080
  530loPI   GL2 8470   3.965   3.838  10.883  0.1035 -0.0743  0.3649
  530loPI   C1A 8471   3.631   3.877  10.483 -0.2604  0.2756 -0.1480
  530loPI   C2A 8472   3.642   4.029  10.105 -0.2966 -0.0995  0.2226
  530loPI   C3A 8473   3.683   4.077   9.655  0.0649  0.2475 -0.2095
  530loPI   C4A 8474   3.636   4.113   9.270 -0.1515 -0.1969 -0.0468
  530loPI   C5A 8475   3.613   3.972   8.941 -0.0500 -0.2284 -0.2617
  530loPI   C6A 8476   3.829   4.155   8.604 -0.1878 -0.1815 -0.1019
  530loPI   C1B 8477   4.152   3.929  10.487  0.1454 -0.3276  0.0426
  530loPI   C2B 8478   4.164   3.997  10.043 -0.0016  0.0035 -0.1056
  530loPI   C3B 8479   4.160   4.045   9.601 -0.0255 -0.4207 -0.2797
  530loPI   C4B 8480   4.115   4.029   9.085 -0.1449  0.2484 -0.0069
  531loPI    C1 8481   9.853   7.195  11.044 -0.0166 -0.0773 -0.2395
  531loPI    C2 8482  10.196   7.026  10.927  0.1616  0.1017  0.0131
  531loPI    C3 8483   9.955   6.834  11.183  0.0483 -0.0436 -0.1991
  531loPI   PO4 8484   9.812   7.334  10.788 -0.2350  0.0510  0.1789
  531loPI   GL1 8485   9.874   7.229  10.346 -0.1327 -0.0205 -0.2264
  531loPI   GL2 8486  10.244   7.160  10.469  0.4385  0.0454 -0.1266
  531loPI   C1A 8487   9.943   7.143   9.923 -0.1125  0.1509 -0.0443
  531loPI   C2A 8488   9.915   7.042   9.467 -0.2253 -0.1196 -0.0066
  531loPI   C3A 8489   9.856   7.107   9.067  0.1718 -0.2402 -0.0046
  531loPI   C4A 8490   9.727   7.000   8.650  0.0728 -0.3457  0.2430
  531loPI   C5A 8491   9.606   6.996   8.262 -0.1556 -0.0361  0.0170
  531loPI   C6A 8492   9.753   6.755   7.933 -0.1767 -0.0556 -0.1535
  531loPI   C1B 8493  10.406   6.921  10.034  0.1088 -0.0138 -0.0236
  531loPI   C2B 8494  10.391   6.993   9.613  0.1434  0.1721 -0.0687
  531loPI   C3B 8495  10.363   7.031   9.145 -0.0854 -0.4654 -0.1911
  531loPI   C4B 8496  10.241   6.930   8.758  0.1368 -0.2528  0.2846
  532loPI    C1 8497  14.591   1.531  11.444  0.0849 -0.2041  0.1264
  532loPI    C2 8498  14.777   1.198  11.563  0.0480 -0.1926  0.2178
  532loPI    C3 8499  14.875   1.550  11.725  0.2326 -0.1284 -0.0259
  532loPI   PO4 8500  14.640   1.454  11.105 -0.3300 -0.2275 -0.0213
  532loPI   GL1 8501  14.596   1.334  10.729 -0.1287 -0.2632 -0.1926
  532loPI   GL2 8502  14.257   1.269  10.746  0.2070  0.0756  0.0418
  532loPI   C1A 8503  14.800   1.373  10.417  0.2156 -0.3170  0.0639
  532loPI   C2A 8504  14.821   1.345   9.935  0.0335  0.2161 -0.1600
  532loPI   C3A 8505  14.831   1.337   9.515 -0.1410  0.2076 -0.2407
  532loPI   C4A 8506  14.752   1.226   9.069 -0.2864  0.0359 -0.1484
  532loPI   C5A 8507  14.484   1.210   8.651 -0.0166 -0.0194  0.1547
  532loPI   C6A 8508  14.312   1.440   8.608 -0.1345 -0.0630  0.1394
  532loPI   C1B 8509  14.265   1.421  10.342 -0.0081 -0.2838  0.1194
  532loPI   C2B 8510  14.255   1.402   9.970  0.0274 -0.3906  0.2777
  532loPI   C3B 8511  14.237   1.356   9.529 -0.0808  0.1203  0.0261
  532loPI   C4B 8512  14.284   1.303   9.090  0.1084 -0.2462 -0.2830
  533loPI    C1 8513  13.927   7.221  11.235  0.0971 -0.2941 -0.0762
  533loPI    C2 8514  14.075   6.882  11.387  0.1287 -0.1441  0.2357
  533loPI    C3 8515  13.828   7.109  11.606  0.0497 -0.0014  0.0027
  533loPI   PO4 8516  14.083   7.347  11.109 -0.0668 -0.2517 -0.2522
  533loPI   GL1 8517  13.907   7.467  10.690  0.2903  0.0694 -0.1901
  533loPI   GL2 8518  14.132   7.352  10.565  0.3164 -0.1355  0.1205
  533loPI   C1A 8519  13.692   7.282  10.306 -0.2014 -0.0317  0.0524
  533loPI   C2A 8520  13.780   7.208   9.819  0.0902 -0.2401  0.1186
  533loPI   C3A 8521  13.891   7.186   9.407 -0.0130 -0.1283  0.1821
  533loPI   C4A 8522  13.791   7.126   9.003 -0.0962 -0.0770  0.0641
  533loPI   C5A 8523  13.905   7.196   8.561  0.3627 -0.3304  0.1404
  533loPI   C6A 8524  13.921   7.560   8.300  0.2307 -0.3143 -0.0123
  533loPI   C1B 8525  14.415   7.455  10.247  0.0424 -0.0604 -0.2390
  533loPI   C2B 8526  14.499   7.516   9.884  0.0641 -0.1063  0.0128
  533loPI   C3B 8527  14.666   7.540   9.536  0.0446  0.1116  0.0315
  533loPI   C4B 8528  14.556   7.513   9.076 -0.1066 -0.0658 -0.3344
  534loPI    C1 8529  11.224  13.721  11.006  0.0035 -0.1806 -0.0751
  534loPI    C2 8530  11.146  13.413  11.249  0.1194 -0.0756  0.0976
  534loPI    C3 8531  11.211  13.776  11.402  0.1562 -0.0005 -0.0941
  534loPI   PO4 8532  11.329  13.613  10.786 -0.3905 -0.0261 -0.1640
  534loPI   GL1 8533  11.624  13.453  10.495 -0.0722 -0.1287 -0.1119
  534loPI   GL2 8534  11.727  13.678  10.352  0.0143  0.3536 -0.3531
  534loPI   C1A 8535  11.553  13.324  10.052 -0.0327  0.0125  0.1379
  534loPI   C2A 8536  11.490  13.294   9.613 -0.1946  0.0776  0.2959
  534loPI   C3A 8537  11.483  13.167   9.170 -0.0277 -0.0212  0.1218
  534loPI   C4A 8538  11.389  13.100   8.686 -0.5796 -0.1300 -0.0476
  534loPI   C5A 8539  11.698  12.782   8.434  0.3814  0.1177 -0.0961
  534loPI   C6A 8540  11.821  12.609   8.162  0.0860  0.2243 -0.1275
  534loPI   C1B 8541  11.765  13.791   9.940  0.0731  0.0305  0.1645
  534loPI   C2B 8542  11.773  13.728   9.461  0.2119 -0.3227  0.2639
  534loPI   C3B 8543  11.780  13.610   9.090 -0.1418  0.1760 -0.0557
  534loPI   C4B 8544  11.755  13.557   8.700 -0.1351 -0.0873 -0.0665
  535loPI    C1 8545  13.470  13.820  11.138  0.1571  0.3431  0.1570
  535loPI    C2 8546  13.333  14.174  11.264  0.1685  0.3125  0.2565
  535loPI    C3 8547  13.513  13.926  11.521 -0.0365  0.1408  0.2370
  535loPI   PO4 8548  13.617  13.759  10.954 -0.0421  0.0528 -0.2201
  535loPI   GL1 8549  13.657  13.785  10.490  0.3852 -0.2251  0.0560
  535loPI   GL2 8550  13.527  14.164  10.372  0.1938 -0.4510  0.5009
  535loPI   C1A 8551  13.819  13.423  10.180  0.1160 -0.0357 -0.0855
  535loPI   C2A 8552  13.810  13.431   9.698  0.0705  0.2028  0.4249
  535loPI   C3A 8553  13.811  13.429   9.289 -0.0169  0.1159  0.0190
  535loPI   C4A 8554  13.907  13.457   8.750 -0.0350 -0.0041  0.0532
  535loPI   C5A 8555  13.792  13.703   8.347 -0.0892 -0.0691 -0.1627
  535loPI   C6A 8556  13.780  14.032   8.119 -0.2032 -0.2456 -0.2039
  535loPI   C1B 8557  13.536  13.875  10.027 -0.0505 -0.0597 -0.0322
  535loPI   C2B 8558  13.626  13.926   9.618  0.3003 -0.2167 -0.1177
  535loPI   C3B 8559  13.606  13.940   9.250 -0.0012 -0.2969 -0.0841
  535loPI   C4B 8560  13.589  13.823   8.862  0.1385  0.2622  0.0111
  536loPI    C1 8561  17.746   4.902  10.987 -0.0445 -0.0740 -0.0677
  536loPI    C2 8562  17.888   4.680  11.288 -0.2002 -0.1395 -0.0413
  536loPI    C3 8563  17.552   4.892  11.336 -0.0964  0.0392 -0.0927
  536loPI   PO4 8564  17.769   4.751  10.739 -0.0627  0.2216 -0.0756
  536loPI   GL1 8565  17.719   4.808  10.323  0.1139  0.1639 -0.2848
  536loPI   GL2 8566  17.818   5.118  10.332 -0.0524 -0.0786  0.0169
  536loPI   C1A 8567  17.636   4.722   9.960  0.0924 -0.2037  0.1081
  536loPI   C2A 8568  17.623   4.665   9.498  0.2916  0.0886  0.1100
  536loPI   C3A 8569  17.518   4.711   9.178 -0.1748  0.0408  0.1824
  536loPI   C4A 8570  17.520   4.760   8.735  0.0474  0.0886 -0.2692
  536loPI   C5A 8571  17.468   4.737   8.333 -0.0103 -0.1004  0.1346
  536loPI   C6A 8572  17.774   4.656   8.014 -0.0314 -0.1244 -0.2519
  536loPI   C1B 8573  17.797   5.175   9.900  0.0470  0.2513  0.1928
  536loPI   C2B 8574  17.824   5.102   9.433 -0.0170 -0.2368 -0.2011
  536loPI   C3B 8575  17.807   5.111   8.984  0.1586  0.2016  0.0918
  536loPI   C4B 8576  17.897   5.080   8.537 -0.0457 -0.2204  0.5778
  537loPI    C1 8577   2.369  16.984  11.203  0.0348 -0.2350 -0.1296
  537loPI    C2 8578   2.442  17.215  11.522 -0.0097  0.0737 -0.3385
  537loPI    C3 8579   2.202  16.897  11.556  0.1897 -0.0460 -0.0074
  537loPI   PO4 8580   2.344  17.053  10.962  0.0743 -0.0933  0.0606
  537loPI   GL1 8581   2.370  17.147  10.570  0.0178  0.0664 -0.0510
  537loPI   GL2 8582   2.463  16.919  10.380  0.2656 -0.1977 -0.0926
  537loPI   C1A 8583   2.379  17.377  10.165 -0.0884 -0.0216 -0.0650
  537loPI   C2A 8584   2.388  17.360   9.805  0.4096 -0.1926  0.0046
  537loPI   C3A 8585   2.358  17.453   9.323 -0.1954  0.0103  0.0541
  537loPI   C4A 8586   2.393  17.555   8.946  0.0285 -0.3119  0.0127
  537loPI   C5A 8587   2.278  17.504   8.537 -0.0840  0.1599  0.4176
  537loPI   C6A 8588   2.586  17.647   8.257 -0.1050  0.0138 -0.4842
  537loPI   C1B 8589   2.651  17.022   9.993  0.1254 -0.1224 -0.2324
  537loPI   C2B 8590   2.656  17.021   9.574 -0.2536  0.2528 -0.1892
  537loPI   C3B 8591   2.589  17.026   9.130  0.2351  0.2716  0.1030
  537loPI   C4B 8592   2.672  17.047   8.743  0.1697 -0.0483  0.0975
  538loPI    C1 8593   3.780   0.799  11.568  0.0272  0.1707  0.1512
  538loPI    C2 8594   3.938   0.575  11.859 -0.0263 -0.2381 -0.1266
  538loPI    C3 8595   3.568   0.720  11.898  0.0310 -0.1444  0.0816
  538loPI   PO4 8596   3.849   0.713  11.343 -0.2399 -0.2000  0.0823
  538loPI   GL1 8597   3.732   0.678  10.811  0.1380 -0.0650 -0.0969
  538loPI   GL2 8598   3.970   0.776  10.854 -0.3800 -0.1788 -0.1546
  538loPI   C1A 8599   3.719   0.971  10.436  0.1536  0.0516  0.1192
  538loPI   C2A 8600   3.748   0.888  10.019 -0.0741 -0.0580  0.1058
  538loPI   C3A 8601   3.673   0.957   9.582 -0.2635 -0.0390  0.2776
  538loPI   C4A 8602   3.733   1.033   9.104  0.2662  0.3195  0.0881
  538loPI   C5A 8603   3.951   1.008   8.697  0.2757  0.0700  0.1271
  538loPI   C6A 8604   4.373   1.102   8.598  0.1963 -0.0083 -0.1767
  538loPI   C1B 8605   4.193   0.853  10.479 -0.0769  0.0247 -0.0179
  538loPI   C2B 8606   4.275   0.880  10.109 -0.1194 -0.1122 -0.1690
  538loPI   C3B 8607   4.191   0.983   9.663 -0.0075 -0.0824 -0.1530
  538loPI   C4B 8608   4.229   0.941   9.157 -0.0301  0.0096  0.2632
  539loPI    C1 8609  16.961   2.643  11.477 -0.0597 -0.1172  0.1141
  539loPI    C2 8610  17.301   2.523  11.651 -0.0042 -0.1199  0.0047
  539loPI    C3 8611  16.970   2.571  11.871  0.0909 -0.0244  0.1285
  539loPI   PO4 8612  16.999   2.540  11.242  0.0647 -0.2348 -0.1325
  539loPI   GL1 8613  16.921   2.298  10.897  0.2131  0.2905 -0.0390
  539loPI   GL2 8614  17.231   2.551  10.786  0.1769  0.2354  0.2460
  539loPI   C1A 8615  16.902   2.163  10.406  0.1909  0.0468 -0.1830
  539loPI   C2A 8616  16.919   2.184  10.014 -0.0233 -0.3280  0.2220
  539loPI   C3A 8617  16.897   2.011   9.616 -0.1434  0.0080 -0.0492
  539loPI   C4A 8618  16.819   2.152   9.276 -0.0847  0.0086 -0.2847
  539loPI   C5A 8619  16.758   2.162   8.882 -0.0392  0.0271 -0.0246
  539loPI   C6A 8620  16.513   2.142   8.552  0.1230  0.1619 -0.0764
  539loPI   C1B 8621  17.175   2.554  10.367 -0.2432  0.3173 -0.0482
  539loPI   C2B 8622  17.283   2.615   9.935 -0.1291 -0.1414  0.0276
  539loPI   C3B 8623  17.132   2.563   9.579 -0.1189  0.0836  0.0031
  539loPI   C4B 8624  17.104   2.544   9.064 -0.0887  0.0804  0.1466
  540loPI    C1 8625   8.787   1.600  11.173 -0.1802  0.1180 -0.0032
  540loPI    C2 8626   8.710   1.956  11.339 -0.2124  0.0317  0.1699
  540loPI    C3 8627   8.753   1.633  11.571 -0.0161 -0.0476  0.0257
  540loPI   PO4 8628   9.011   1.621  11.044  0.3188  0.5284 -0.0733
  540loPI   GL1 8629   9.022   1.630  10.497 -0.0579  0.0514 -0.1606
  540loPI   GL2 8630   9.145   1.980  10.503  0.2297 -0.0008 -0.1024
  540loPI   C1A 8631   8.943   1.550  10.184  0.0335  0.1236 -0.2269
  540loPI   C2A 8632   8.844   1.420   9.761 -0.4238 -0.1431 -0.0644
  540loPI   C3A 8633   8.858   1.297   9.369 -0.1309 -0.1992  0.1368
  540loPI   C4A 8634   8.751   1.232   8.981 -0.2095 -0.3068 -0.2967
  540loPI   C5A 8635   8.683   1.238   8.484 -0.0377 -0.0242 -0.0663
  540loPI   C6A 8636   8.376   1.390   8.197  0.1217  0.0486 -0.0343
  540loPI   C1B 8637   9.310   2.154  10.091 -0.0135 -0.1440 -0.1259
  540loPI   C2B 8638   9.382   2.213   9.662 -0.0545 -0.2906 -0.3183
  540loPI   C3B 8639   9.385   2.119   9.197  0.3637 -0.0371 -0.2697
  540loPI   C4B 8640   9.849   2.082   9.085 -0.0599  0.1629  0.2698
  541loPI    C1 8641  16.832  16.211  11.145  0.0681 -0.1829 -0.0704
  541loPI    C2 8642  16.728  16.261  11.529  0.0334 -0.1016 -0.0901
  541loPI    C3 8643  17.107  16.321  11.414  0.0309 -0.0659 -0.0796
  541loPI   PO4 8644  16.730  16.401  10.975 -0.1913 -0.0436  0.0481
  541loPI   GL1 8645  16.649  16.534  10.631 -0.0732  0.1198  0.3670
  541loPI   GL2 8646  16.789  16.357  10.447 -0.0606  0.3015 -0.1403
  541loPI   C1A 8647  16.301  16.370  10.282 -0.1851 -0.2434  0.1039
  541loPI   C2A 8648  16.263  16.443   9.810 -0.0373 -0.0243 -0.0094
  541loPI   C3A 8649  16.215  16.399   9.328  0.1944  0.0278  0.2624
  541loPI   C4A 8650  16.304  16.397   9.000  0.0802 -0.0445 -0.0255
  541loPI   C5A 8651  16.352  16.410   8.553  0.0936  0.1758  0.1522
  541loPI   C6A 8652  16.608  16.417   8.156  0.0383  0.1322  0.1569
  541loPI   C1B 8653  16.789  16.331   9.929  0.1430 -0.1771 -0.0231
  541loPI   C2B 8654  16.716  16.435   9.586 -0.0672 -0.3787 -0.3033
  541loPI   C3B 8655  16.835  16.398   9.131 -0.1833 -0.0283  0.0710
  541loPI   C4B 8656  16.878  16.424   8.638  0.2895 -0.0328  0.2117
  542loPI    C1 8657   5.681  12.311  10.499  0.1942 -0.3015 -0.1523
  542loPI    C2 8658   5.399  12.335  10.782  0.1449 -0.1010 -0.2172
  542loPI    C3 8659   5.785  12.363  10.881  0.1245  0.0512 -0.1778
  542loPI   PO4 8660   5.614  12.369  10.307 -0.0270 -0.0097  0.1168
  542loPI   GL1 8661   5.510  12.478   9.953 -0.0820  0.4518 -0.0125
  542loPI   GL2 8662   5.729  12.802   9.935  0.1433  0.3338  0.2724
  542loPI   C1A 8663   5.410  12.372   9.510  0.1669  0.1126  0.1964
  542loPI   C2A 8664   5.387  12.405   9.063 -0.0869  0.0134  0.3252
  542loPI   C3A 8665   5.333  12.464   8.652  0.2434  0.2502 -0.1143
  542loPI   C4A 8666   5.349  12.438   8.256 -0.1894  0.1004  0.1934
  542loPI   C5A 8667   5.640  12.363   7.956  0.0713  0.1450 -0.2449
  542loPI   C6A 8668   6.026  12.124   7.990  0.0475  0.2733 -0.1406
  542loPI   C1B 8669   5.710  12.814   9.429 -0.1593  0.1785  0.2614
  542loPI   C2B 8670   5.688  12.862   9.009  0.2126  0.1568 -0.1712
  542loPI   C3B 8671   5.609  12.847   8.568 -0.3813 -0.0330 -0.2590
  542loPI   C4B 8672   5.700  12.854   8.140  0.0913  0.2601  0.0131
  543loPI    C1 8673   4.694   7.792  11.097 -0.1242 -0.1514  0.1538
  543loPI    C2 8674   4.331   7.958  11.124 -0.1517 -0.2104  0.1472
  543loPI    C3 8675   4.382   7.571  11.211 -0.1451 -0.2757 -0.1362
  543loPI   PO4 8676   4.757   7.877  10.848 -0.0905  0.1725  0.0598
  543loPI   GL1 8677   4.824   7.985  10.411  0.1365  0.2037  0.0738
  543loPI   GL2 8678   5.152   8.039  10.268 -0.3307 -0.1665 -0.0328
  543loPI   C1A 8679   4.451   7.731  10.170 -0.1183 -0.1257  0.2057
  543loPI   C2A 8680   4.316   7.634   9.781 -0.3209  0.0670 -0.1413
  543loPI   C3A 8681   4.250   7.443   9.303  0.2516 -0.0539  0.3559
  543loPI   C4A 8682   4.243   7.586   8.896 -0.1471 -0.1502 -0.2195
  543loPI   C5A 8683   4.310   7.544   8.426 -0.4538  0.0999  0.0681
  543loPI   C6A 8684   4.329   7.196   8.207 -0.0646  0.0440  0.1396
  543loPI   C1B 8685   5.131   7.965   9.951 -0.1325  0.0453  0.3734
  543loPI   C2B 8686   5.090   8.025   9.466  0.0211 -0.2933 -0.0347
  543loPI   C3B 8687   5.146   8.066   9.082  0.0202  0.3193 -0.0122
  543loPI   C4B 8688   5.094   7.932   8.726 -0.0425  0.2209  0.0586
  544loPI    C1 8689   2.874   1.875  11.372  0.0945  0.2665  0.0810
  544loPI    C2 8690   3.069   1.819  11.717 -0.1749  0.1455  0.2165
  544loPI    C3 8691   2.767   1.577  11.616 -0.1811  0.2590 -0.0458
  544loPI   PO4 8692   3.068   1.901  11.208 -0.0704  0.3300  0.0249
  544loPI   GL1 8693   2.960   2.078  10.791 -0.0597 -0.1507 -0.1030
  544loPI   GL2 8694   3.118   1.775  10.637 -0.0715 -0.1681 -0.1498
  544loPI   C1A 8695   3.027   2.241  10.397  0.0427  0.0852  0.0023
  544loPI   C2A 8696   3.083   2.350   9.954 -0.3494  0.2614  0.0923
  544loPI   C3A 8697   3.018   2.356   9.531 -0.1517 -0.2916  0.0114
  544loPI   C4A 8698   3.020   2.334   8.988  0.0407 -0.0401  0.0380
  544loPI   C5A 8699   3.207   2.584   8.617  0.2775  0.2265  0.3166
  544loPI   C6A 8700   3.381   2.698   8.285 -0.1513  0.1625 -0.0665
  544loPI   C1B 8701   3.262   1.820  10.227 -0.0888  0.1261 -0.3098
  544loPI   C2B 8702   3.271   1.888   9.773  0.3604  0.1252 -0.0123
  544loPI   C3B 8703   3.198   1.873   9.266  0.0104  0.1199 -0.0772
  544loPI   C4B 8704   3.284   1.903   8.831  0.0152 -0.2372 -0.0314
  545loPI    C1 8705  15.824   8.035  11.071  0.0389  0.0495  0.0351
  545loPI    C2 8706  16.032   7.986  11.410 -0.1246 -0.0147  0.1275
  545loPI    C3 8707  15.762   8.280  11.381  0.0273  0.1131 -0.0173
  545loPI   PO4 8708  16.027   7.979  10.920 -0.0522 -0.3475  0.1725
  545loPI   GL1 8709  16.033   8.030  10.533  0.0212 -0.2425  0.0070
  545loPI   GL2 8710  15.834   8.241  10.501 -0.0750  0.2453 -0.1638
  545loPI   C1A 8711  15.901   7.981  10.103  0.0648  0.0459  0.2476
  545loPI   C2A 8712  16.014   7.913   9.614 -0.0041  0.0374  0.0935
  545loPI   C3A 8713  15.958   7.869   9.230 -0.0016  0.0012 -0.1127
  545loPI   C4A 8714  15.880   7.913   8.812  0.0759 -0.1573 -0.1623
  545loPI   C5A 8715  15.919   7.786   8.392  0.2313  0.0976  0.1033
  545loPI   C6A 8716  15.808   7.462   8.029 -0.5646  0.2642  0.0416
  545loPI   C1B 8717  15.731   8.444  10.121 -0.3058  0.2005  0.1651
  545loPI   C2B 8718  15.690   8.332   9.743  0.2490 -0.3191  0.0733
  545loPI   C3B 8719  15.703   8.369   9.365  0.2469  0.0980  0.2891
  545loPI   C4B 8720  15.640   8.391   8.983 -0.1608  0.1361  0.0250
  546loPI    C1 8721   6.271  11.782  10.911 -0.1371 -0.1499  0.0921
  546loPI    C2 8722   6.190  11.536  11.216 -0.1558 -0.0172  0.1951
  546loPI    C3 8723   6.360  11.891  11.285  0.2958 -0.1887  0.0050
  546loPI   PO4 8724   6.344  11.663  10.647  0.0476 -0.1783  0.1305
  546loPI   GL1 8725   6.089  11.568  10.285 -0.1295  0.5228  0.0086
  546loPI   GL2 8726   6.102  11.202  10.327  0.0163  0.0693  0.2158
  546loPI   C1A 8727   6.352  11.503   9.977 -0.1175  0.0713 -0.5789
  546loPI   C2A 8728   6.484  11.383   9.662  0.0352 -0.1056  0.0617
  546loPI   C3A 8729   6.421  11.426   9.222  0.1981 -0.1992 -0.0446
  546loPI   C4A 8730   6.374  11.470   8.770 -0.1140 -0.0318  0.2354
  546loPI   C5A 8731   6.247  11.350   8.306  0.1279 -0.6006  0.1341
  546loPI   C6A 8732   5.909  11.502   8.123 -0.0749  0.1557 -0.3806
  546loPI   C1B 8733   6.169  11.016   9.955 -0.0253  0.2262 -0.1176
  546loPI   C2B 8734   6.142  11.058   9.527 -0.0646 -0.0983  0.1654
  546loPI   C3B 8735   6.128  11.061   9.051 -0.0946  0.1835  0.1877
  546loPI   C4B 8736   6.089  11.091   8.658  0.2737 -0.0459 -0.3552
  547loPI    C1 8737  14.733   4.703  11.356  0.0146  0.2404 -0.0651
  547loPI    C2 8738  15.102   4.787  11.226  0.0645  0.1365  0.0075
  547loPI    C3 8739  14.990   4.896  11.594  0.0254  0.1604 -0.0114
  547loPI   PO4 8740  14.639   4.710  11.095  0.1834 -0.1195 -0.1283
  547loPI   GL1 8741  14.671   4.438  10.718  0.0264 -0.0965  0.2576
  547loPI   GL2 8742  14.741   4.116  10.700 -0.1073  0.0535  0.0302
  547loPI   C1A 8743  14.684   4.381  10.210 -0.0661  0.0967  0.1424
  547loPI   C2A 8744  14.705   4.377   9.811 -0.1244 -0.4037  0.2670
  547loPI   C3A 8745  14.705   4.416   9.435 -0.1194 -0.1577  0.0553
  547loPI   C4A 8746  14.583   4.472   9.003  0.1956 -0.1656 -0.1131
  547loPI   C5A 8747  14.617   4.560   8.607  0.0452  0.1197 -0.0392
  547loPI   C6A 8748  14.554   4.704   8.204  0.1052 -0.0312  0.0991
  547loPI   C1B 8749  14.934   3.967  10.299 -0.1388 -0.2809  0.2736
  547loPI   C2B 8750  14.979   3.939   9.890  0.0401  0.1811 -0.0161
  547loPI   C3B 8751  14.885   3.955   9.541  0.1967 -0.0600  0.0798
  547loPI   C4B 8752  14.852   4.024   9.037  0.1782 -0.0203 -0.2318
  548loPI    C1 8753  14.092   4.636  11.201  0.2689 -0.0676 -0.3047
  548loPI    C2 8754  14.288   4.503  11.524  0.0833 -0.0650 -0.1898
  548loPI    C3 8755  14.251   4.897  11.460 -0.2246 -0.0587  0.0028
  548loPI   PO4 8756  14.192   4.505  10.975  0.3944  0.4601 -0.1202
  548loPI   GL1 8757  14.185   4.578  10.512  0.2280 -0.2660  0.1792
  548loPI   GL2 8758  14.412   4.844  10.507 -0.0463 -0.1926  0.2526
  548loPI   C1A 8759  14.214   4.379  10.067 -0.0830 -0.2505 -0.0014
  548loPI   C2A 8760  14.149   4.422   9.616 -0.1652  0.3181 -0.3601
  548loPI   C3A 8761  14.152   4.383   9.165  0.2514 -0.2279 -0.2978
  548loPI   C4A 8762  14.000   4.461   8.795 -0.1829 -0.0988 -0.0949
  548loPI   C5A 8763  14.055   4.539   8.356  0.0285  0.1356 -0.2761
  548loPI   C6A 8764  13.812   4.750   8.100  0.0449 -0.1273 -0.1953
  548loPI   C1B 8765  14.348   4.846  10.130  0.2311 -0.0294 -0.1840
  548loPI   C2B 8766  14.472   4.844   9.682 -0.0054  0.3092 -0.1473
  548loPI   C3B 8767  14.399   4.843   9.257 -0.1106  0.0124  0.2576
  548loPI   C4B 8768  14.439   4.914   8.866 -0.0868 -0.1094  0.1292
  549loPI    C1 8769  14.613  15.405  10.851 -0.1856 -0.1051  0.0363
  549loPI    C2 8770  14.921  15.212  11.018 -0.0191  0.0664 -0.0679
  549loPI    C3 8771  14.586  15.274  11.228 -0.0371 -0.2428  0.0001
  549loPI   PO4 8772  14.711  15.615  10.761 -0.2729 -0.0986 -0.1600
  549loPI   GL1 8773  14.579  15.800  10.395 -0.1915 -0.2098 -0.1555
  549loPI   GL2 8774  14.430  16.071  10.484 -0.0686  0.3071  0.2779
  549loPI   C1A 8775  14.750  15.608  10.106 -0.1918 -0.3043 -0.0767
  549loPI   C2A 8776  14.819  15.540   9.608  0.0639 -0.1199  0.0211
  549loPI   C3A 8777  14.738  15.649   9.145  0.2423  0.2628 -0.2166
  549loPI   C4A 8778  14.729  15.641   8.694  0.1715  0.1024  0.3649
  549loPI   C5A 8779  14.676  15.758   8.184  0.3182 -0.0275 -0.2295
  549loPI   C6A 8780  14.321  15.856   7.962  0.3406 -0.2194 -0.1829
  549loPI   C1B 8781  14.455  16.109  10.000  0.2489 -0.1036  0.0316
  549loPI   C2B 8782  14.545  16.027   9.525  0.0262  0.0401  0.2567
  549loPI   C3B 8783  14.460  16.060   9.057 -0.0455  0.0682 -0.1729
  549loPI   C4B 8784  14.472  16.081   8.639  0.1351 -0.2613  0.1422
  550loPI    C1 8785   9.846  15.224  10.818  0.0822 -0.1902  0.0323
  550loPI    C2 8786   9.861  15.487  11.120  0.1631 -0.1531 -0.0038
  550loPI    C3 8787  10.197  15.313  10.988  0.1408 -0.0990 -0.1340
  550loPI   PO4 8788   9.683  15.384  10.602  0.0439 -0.0564 -0.0457
  550loPI   GL1 8789   9.744  15.527  10.216 -0.2025 -0.1753 -0.0987
  550loPI   GL2 8790   9.940  15.334  10.162  0.1104 -0.2069  0.0766
  550loPI   C1A 8791   9.500  15.301   9.914  0.4917 -0.1109  0.0052
  550loPI   C2A 8792   9.499  15.233   9.505 -0.3208 -0.2301 -0.1252
  550loPI   C3A 8793   9.649  15.252   9.093  0.1304  0.1442  0.0256
  550loPI   C4A 8794   9.693  15.260   8.628  0.5001  0.2034 -0.0775
  550loPI   C5A 8795   9.803  15.421   8.273  0.3059 -0.3975 -0.1056
  550loPI   C6A 8796  10.084  15.764   8.108  0.1723  0.0861 -0.0175
  550loPI   C1B 8797  10.053  15.264   9.782  0.1376  0.1027  0.1780
  550loPI   C2B 8798  10.154  15.223   9.463  0.0260 -0.1968 -0.0073
  550loPI   C3B 8799  10.170  15.299   8.994  0.0054 -0.0782 -0.1799
  550loPI   C4B 8800  10.214  15.313   8.501 -0.3432 -0.1500 -0.0271
  551loPI    C1 8801   8.613  11.608  10.895 -0.2135  0.0972  0.0770
  551loPI    C2 8802   8.729  11.676  11.271 -0.1004  0.0723  0.0472
  551loPI    C3 8803   8.359  11.545  11.196 -0.2263  0.3742  0.1268
  551loPI   PO4 8804   8.655  11.846  10.746  0.1161  0.0925  0.1807
  551loPI   GL1 8805   8.775  11.986  10.407  0.0183 -0.1026 -0.1684
  551loPI   GL2 8806   8.515  12.063  10.208 -0.1318 -0.0307 -0.0722
  551loPI   C1A 8807   9.047  12.026  10.045  0.1077 -0.1988 -0.1886
  551loPI   C2A 8808   8.960  12.029   9.507 -0.1948  0.1736  0.3082
  551loPI   C3A 8809   9.034  12.050   9.023  0.0946 -0.1402 -0.0870
  551loPI   C4A 8810   8.931  11.949   8.588  0.2130 -0.1540  0.1063
  551loPI   C5A 8811   8.938  12.186   8.226  0.2002  0.0036  0.1078
  551loPI   C6A 8812   9.169  12.125   7.819  0.2714  0.2586 -0.2457
  551loPI   C1B 8813   8.525  12.109   9.792 -0.0337 -0.0926  0.1178
  551loPI   C2B 8814   8.475  12.068   9.370  0.1227 -0.0060 -0.0695
  551loPI   C3B 8815   8.474  12.193   8.907 -0.1059  0.1609 -0.2275
  551loPI   C4B 8816   8.436  12.267   8.431 -0.1044 -0.1763 -0.1541
  552loPI    C1 8817   6.711  14.281  10.797  0.0407 -0.2671 -0.1568
  552loPI    C2 8818   7.080  14.268  10.951 -0.0360 -0.2580  0.0301
  552loPI    C3 8819   6.787  14.050  11.115 -0.1913 -0.0036  0.0957
  552loPI   PO4 8820   6.741  14.271  10.569  0.3255 -0.0486  0.0448
  552loPI   GL1 8821   6.737  14.236  10.141 -0.0354  0.2364  0.0134
  552loPI   GL2 8822   7.039  14.110  10.101 -0.0930  0.0145 -0.0131
  552loPI   C1A 8823   6.674  14.148   9.710  0.3709  0.0414 -0.2692
  552loPI   C2A 8824   6.591  14.107   9.208  0.1119  0.3912  0.0988
  552loPI   C3A 8825   6.527  14.144   8.803  0.0302 -0.0311 -0.1823
  552loPI   C4A 8826   6.476  14.239   8.378  0.2611 -0.0885  0.0518
  552loPI   C5A 8827   6.714  14.603   8.134 -0.0781  0.2278 -0.0407
  552loPI   C6A 8828   6.788  14.977   8.089 -0.1546 -0.2903  0.1031
  552loPI   C1B 8829   7.121  14.014   9.717  0.2753  0.1841 -0.0284
  552loPI   C2B 8830   7.106  14.001   9.291  0.0576 -0.1559  0.2090
  552loPI   C3B 8831   7.108  14.012   8.867 -0.0460 -0.0569  0.0294
  552loPI   C4B 8832   6.933  14.014   8.394 -0.2125  0.0683 -0.0179
  553loPI    C1 8833  16.878   7.380  11.334  0.0011  0.1500  0.0720
  553loPI    C2 8834  16.823   7.728  11.522 -0.1313  0.1077  0.1126
  553loPI    C3 8835  17.171   7.534  11.559 -0.0913  0.1892  0.1660
  553loPI   PO4 8836  16.789   7.395  11.027  0.2231 -0.2230 -0.0477
  553loPI   GL1 8837  17.037   7.247  10.691 -0.0879  0.1701 -0.0772
  553loPI   GL2 8838  17.270   7.169  10.545  0.2647 -0.3253 -0.2808
  553loPI   C1A 8839  16.774   7.486  10.366  0.2023 -0.3791 -0.3842
  553loPI   C2A 8840  16.755   7.415   9.957 -0.1101 -0.2647  0.0209
  553loPI   C3A 8841  16.804   7.362   9.453 -0.3232 -0.0071 -0.0886
  553loPI   C4A 8842  16.731   7.442   8.973  0.0001  0.1372 -0.0393
  553loPI   C5A 8843  16.783   7.459   8.595  0.1452  0.1613 -0.1484
  553loPI   C6A 8844  17.054   7.343   8.233 -0.0596  0.1753 -0.1411
  553loPI   C1B 8845  17.242   7.351  10.197 -0.0275 -0.2065  0.2288
  553loPI   C2B 8846  17.288   7.392   9.756  0.1618  0.0760 -0.4047
  553loPI   C3B 8847  17.239   7.318   9.232  0.0432 -0.5205  0.1170
  553loPI   C4B 8848  17.270   7.362   8.829 -0.1144 -0.1617  0.2144
  554loPI    C1 8849   1.766   1.278  11.137 -0.1878  0.0529  0.0805
  554loPI    C2 8850   2.001   0.959  11.189 -0.2002  0.0277 -0.0170
  554loPI    C3 8851   1.906   1.190  11.501 -0.0943  0.0042  0.0330
  554loPI   PO4 8852   1.576   1.237  10.978 -0.0066 -0.2133 -0.0704
  554loPI   GL1 8853   1.634   0.924  10.601  0.1894 -0.1472  0.2738
  554loPI   GL2 8854   1.968   1.086  10.642 -0.1466  0.2571  0.0527
  554loPI   C1A 8855   1.669   1.085  10.127  0.0384  0.1104 -0.3438
  554loPI   C2A 8856   1.692   1.169   9.676 -0.0660  0.0864  0.0999
  554loPI   C3A 8857   1.650   1.040   9.265  0.0570 -0.2431 -0.2638
  554loPI   C4A 8858   1.683   1.018   8.847 -0.1359  0.1670 -0.1310
  554loPI   C5A 8859   1.388   0.841   8.494 -0.1974  0.0231 -0.1689
  554loPI   C6A 8860   0.957   1.008   8.357 -0.0122 -0.0576 -0.0349
  554loPI   C1B 8861   2.112   1.032  10.232  0.2535 -0.1334  0.1143
  554loPI   C2B 8862   2.154   1.086   9.809 -0.1469  0.1316 -0.1625
  554loPI   C3B 8863   2.121   1.054   9.364 -0.3924 -0.2354 -0.2648
  554loPI   C4B 8864   2.249   1.003   8.943  0.1836  0.0785  0.2511
  555loPI    C1 8865   0.499   5.676  11.387 -0.0423  0.1268  0.0592
  555loPI    C2 8866   0.296   5.994  11.521 -0.0623  0.2400 -0.2333
  555loPI    C3 8867   0.696   6.005  11.502 -0.0566  0.2054 -0.1368
  555loPI   PO4 8868   0.334   5.585  11.017 -0.2760  0.0658 -0.2546
  555loPI   GL1 8869   0.669   5.816  10.644 -0.2380  0.1229 -0.0974
  555loPI   GL2 8870   0.504   5.577  10.580  0.0890 -0.0973 -0.1041
  555loPI   C1A 8871   0.641   5.922  10.208  0.3805 -0.0721  0.2094
  555loPI   C2A 8872   0.626   5.937   9.766 -0.0546  0.1889  0.0987
  555loPI   C3A 8873   0.605   6.012   9.401  0.1307  0.0491 -0.1908
  555loPI   C4A 8874   0.614   5.934   8.958 -0.2537 -0.2135  0.0515
  555loPI   C5A 8875   0.437   5.850   8.611  0.0739  0.1605 -0.1373
  555loPI   C6A 8876   0.113   5.536   8.315  0.3820  0.0442 -0.2377
  555loPI   C1B 8877   0.310   5.535  10.121 -0.0600  0.0014 -0.1840
  555loPI   C2B 8878   0.282   5.546   9.685 -0.0766 -0.2814 -0.0157
  555loPI   C3B 8879   0.337   5.603   9.272  0.1200  0.1625  0.2396
  555loPI   C4B 8880   0.267   5.496   8.874 -0.1663  0.1695 -0.0667
  556loPI    C1 8881  15.913  10.021  10.880 -0.0876  0.1018  0.0617
  556loPI    C2 8882  15.658   9.955  11.181  0.1484 -0.1222  0.2169
  556loPI    C3 8883  16.052   9.934  11.245  0.2054  0.0608 -0.0567
  556loPI   PO4 8884  15.775  10.053  10.648  0.2291 -0.0638 -0.1226
  556loPI   GL1 8885  15.730   9.795  10.306  0.1298  0.0899  0.0200
  556loPI   GL2 8886  15.968   9.719  10.106  0.1622 -0.0080  0.0622
  556loPI   C1A 8887  15.478   9.667   9.933  0.1817 -0.2142  0.1369
  556loPI   C2A 8888  15.500   9.701   9.497  0.3555 -0.1427 -0.0565
  556loPI   C3A 8889  15.462   9.791   9.016 -0.2137 -0.1341 -0.0723
  556loPI   C4A 8890  15.483   9.719   8.610 -0.3144 -0.0040 -0.2090
  556loPI   C5A 8891  15.720   9.870   8.249  0.0786  0.0601  0.0740
  556loPI   C6A 8892  16.087   9.629   8.079 -0.1426 -0.0327  0.0058
  556loPI   C1B 8893  16.021   9.635   9.695  0.0067  0.0133  0.3351
  556loPI   C2B 8894  15.980   9.672   9.289 -0.1476 -0.2406 -0.0837
  556loPI   C3B 8895  16.030   9.749   8.945  0.0944  0.0663  0.1861
  556loPI   C4B 8896  16.027   9.661   8.614  0.2391  0.0052  0.2646
  557loPI    C1 8897  15.036   2.584  11.744  0.0219  0.0365  0.0623
  557loPI    C2 8898  15.234   2.367  12.015  0.1112 -0.1539 -0.1522
  557loPI    C3 8899  15.384   2.716  11.889  0.0828 -0.0780  0.0212
  557loPI   PO4 8900  15.023   2.437  11.443 -0.1042 -0.2584 -0.1968
  557loPI   GL1 8901  15.188   2.463  11.058  0.0583 -0.1757  0.0987
  557loPI   GL2 8902  15.526   2.391  11.029 -0.1852 -0.2038  0.3077
  557loPI   C1A 8903  14.914   2.303  10.719  0.1548 -0.2229  0.0101
  557loPI   C2A 8904  14.791   2.287  10.216  0.2462  0.1722  0.0067
  557loPI   C3A 8905  14.853   2.236   9.795 -0.2880  0.1440 -0.1468
  557loPI   C4A 8906  14.800   2.181   9.415  0.1874  0.0071  0.1093
  557loPI   C5A 8907  14.772   2.241   9.004  0.1299  0.2441  0.1327
  557loPI   C6A 8908  14.606   1.959   8.713 -0.0209  0.0103 -0.4176
  557loPI   C1B 8909  15.616   2.571  10.619 -0.1570 -0.0457 -0.0566
  557loPI   C2B 8910  15.675   2.659  10.254 -0.0756  0.3238 -0.1599
  557loPI   C3B 8911  15.517   2.646   9.763  0.0884 -0.1138 -0.1298
  557loPI   C4B 8912  15.613   2.566   9.315 -0.1830  0.3427  0.2235
  558loPI    C1 8913  11.443   4.972  11.260  0.3184 -0.0008  0.0975
  558loPI    C2 8914  11.169   4.698  11.360 -0.1135  0.2851 -0.2636
  558loPI    C3 8915  11.451   4.805  11.623 -0.1637 -0.2282  0.0115
  558loPI   PO4 8916  11.476   4.990  11.049 -0.2068 -0.0732  0.2578
  558loPI   GL1 8917  11.564   5.192  10.631 -0.1083 -0.0256 -0.0580
  558loPI   GL2 8918  11.911   5.127  10.472  0.0708 -0.0705  0.0300
  558loPI   C1A 8919  11.500   5.186  10.273 -0.2446  0.3370 -0.1061
  558loPI   C2A 8920  11.413   5.149   9.812  0.0009  0.2153 -0.0540
  558loPI   C3A 8921  11.355   5.066   9.383  0.0078 -0.1476  0.0008
  558loPI   C4A 8922  11.277   5.098   8.930  0.2545 -0.0382 -0.0155
  558loPI   C5A 8923  11.004   5.137   8.588 -0.1280 -0.0899 -0.3880
  558loPI   C6A 8924  10.931   4.886   8.263  0.1382 -0.1093 -0.1361
  558loPI   C1B 8925  11.949   5.140  10.088  0.0928 -0.2263 -0.1451
  558loPI   C2B 8926  11.876   5.063   9.633  0.0630 -0.3458 -0.0853
  558loPI   C3B 8927  11.781   5.004   9.192  0.3411  0.0304  0.0279
  558loPI   C4B 8928  11.814   5.159   8.822  0.1672 -0.4573 -0.1824
  559loPI    C1 8929   0.263   9.845  10.978  0.0345 -0.0588 -0.0936
  559loPI    C2 8930   0.424  10.202  10.898  0.0321  0.0025  0.1649
  559loPI    C3 8931   0.198  10.154  11.224  0.1336 -0.2658  0.1979
  559loPI   PO4 8932   0.136   9.791  10.741 -0.0462  0.0182  0.0561
  559loPI   GL1 8933   0.133   9.670  10.264 -0.1335 -0.1105 -0.2021
  559loPI   GL2 8934  -0.236   9.598  10.150 -0.0233  0.0546  0.2639
  559loPI   C1A 8935   0.210   9.545   9.814 -0.2390  0.0864  0.0109
  559loPI   C2A 8936   0.294   9.528   9.436  0.1497 -0.1537  0.0273
  559loPI   C3A 8937   0.220   9.555   9.048  0.0174  0.0416 -0.0946
  559loPI   C4A 8938   0.255   9.566   8.600  0.0627  0.1160  0.0756
  559loPI   C5A 8939   0.177   9.659   8.173  0.0584  0.0062 -0.3000
  559loPI   C6A 8940   0.390   9.851   7.946  0.0174  0.3002 -0.2323
  559loPI   C1B 8941  -0.249   9.454   9.669 -0.0671  0.1850 -0.2325
  559loPI   C2B 8942  -0.280   9.556   9.194 -0.1665  0.3167 -0.3948
  559loPI   C3B 8943  -0.264   9.557   8.794 -0.2466  0.3713 -0.0043
  559loPI   C4B 8944  -0.309   9.642   8.310 -0.1020 -0.2356  0.1089
  560loPI    C1 8945  11.630  10.662  10.964  0.2691  0.0135  0.0140
  560loPI    C2 8946  11.749  10.968  10.735  0.1181  0.2133  0.1980
  560loPI    C3 8947  11.577  11.038  11.090 -0.2165 -0.0766  0.0995
  560loPI   PO4 8948  11.578  10.475  10.679  0.0375  0.2730 -0.1850
  560loPI   GL1 8949  11.697  10.570  10.292  0.0448  0.0182  0.0736
  560loPI   GL2 8950  11.995  10.856  10.245  0.0153 -0.0467  0.1367
  560loPI   C1A 8951  11.771  10.527   9.951 -0.0286  0.0693  0.0312
  560loPI   C2A 8952  11.756  10.538   9.524  0.1111  0.0903 -0.1850
  560loPI   C3A 8953  11.719  10.571   9.126 -0.1633 -0.0086 -0.0485
  560loPI   C4A 8954  11.721  10.482   8.649  0.2852  0.2407 -0.0392
  560loPI   C5A 8955  11.467  10.600   8.343 -0.0604 -0.0943 -0.3065
  560loPI   C6A 8956  11.410  10.805   7.966 -0.1976  0.2262  0.2635
  560loPI   C1B 8957  12.015  11.037   9.824 -0.1740  0.2332 -0.0211
  560loPI   C2B 8958  11.978  10.964   9.433  0.0146 -0.3367 -0.0586
  560loPI   C3B 8959  12.003  10.952   8.999 -0.0766 -0.0384  0.0426
  560loPI   C4B 8960  12.004  10.909   8.549 -0.1137  0.0228 -0.2698
  561loPI    C1 8961   6.898  12.997  10.890 -0.2587 -0.1080  0.0295
  561loPI    C2 8962   6.636  13.108  11.171 -0.2725  0.0346 -0.0391
  561loPI    C3 8963   7.012  13.243  11.184 -0.2649  0.0166 -0.0715
  561loPI   PO4 8964   6.761  13.000  10.717  0.0356 -0.0159  0.0676
  561loPI   GL1 8965   6.961  12.906  10.348  0.0243  0.3330 -0.0330
  561loPI   GL2 8966   6.748  12.796  10.233  0.0010  0.2081 -0.5147
  561loPI   C1A 8967   7.079  13.121   9.938  0.0422  0.1884 -0.4765
  561loPI   C2A 8968   6.980  13.132   9.403 -0.1544 -0.0492 -0.1080
  561loPI   C3A 8969   7.015  13.166   8.970 -0.0570  0.1212  0.1548
  561loPI   C4A 8970   6.953  13.233   8.478 -0.0998 -0.0327  0.0451
  561loPI   C5A 8971   6.973  13.568   8.115  0.0960 -0.1404  0.1281
  561loPI   C6A 8972   7.147  13.431   7.677 -0.1631  0.0632  0.0106
  561loPI   C1B 8973   6.743  12.776   9.812  0.1500  0.1183  0.1782
  561loPI   C2B 8974   6.703  12.735   9.363  0.1610  0.0014  0.0999
  561loPI   C3B 8975   6.700  12.757   8.916 -0.2210  0.0021  0.0659
  561loPI   C4B 8976   6.663  12.815   8.439 -0.0216 -0.0286 -0.0125
  562loPI    C1 8977   8.394  10.801  10.810 -0.0242 -0.0282 -0.0372
  562loPI    C2 8978   8.151  10.592  11.049  0.1443 -0.2800 -0.0813
  562loPI    C3 8979   8.485  10.755  11.197  0.0243 -0.0555 -0.0518
  562loPI   PO4 8980   8.397  10.776  10.628  0.0744  0.1060 -0.2058
  562loPI   GL1 8981   8.249  10.984  10.369 -0.4313  0.1729  0.0553
  562loPI   GL2 8982   8.063  10.813  10.151  0.2326  0.3093 -0.0392
  562loPI   C1A 8983   8.574  10.817   9.998 -0.1566 -0.1136  0.0566
  562loPI   C2A 8984   8.716  10.791   9.556  0.0884 -0.0846  0.4603
  562loPI   C3A 8985   8.691  10.790   9.133  0.1146 -0.0841  0.0915
  562loPI   C4A 8986   8.573  10.738   8.711 -0.1956  0.2021 -0.0385
  562loPI   C5A 8987   8.600  10.888   8.230  0.1116 -0.1035  0.1244
  562loPI   C6A 8988   8.463  10.884   7.757  0.1586 -0.2681  0.0835
  562loPI   C1B 8989   8.149  10.850   9.692 -0.0702  0.1643  0.1820
  562loPI   C2B 8990   8.176  10.865   9.282 -0.0364 -0.1591  0.4113
  562loPI   C3B 8991   8.094  10.845   8.845  0.0155  0.1296  0.0064
  562loPI   C4B 8992   8.090  10.823   8.422 -0.3692  0.0520  0.1893
  563loPI    C1 8993   8.131  12.515  11.306  0.2412 -0.1196  0.0549
  563loPI    C2 8994   8.517  12.537  11.407  0.2148 -0.0799  0.1492
  563loPI    C3 8995   8.269  12.301  11.614  0.1997 -0.1490  0.0534
  563loPI   PO4 8996   8.132  12.496  10.981 -0.1085  0.1287  0.2286
  563loPI   GL1 8997   7.946  12.418  10.637  0.0707 -0.0833  0.1779
  563loPI   GL2 8998   8.042  12.187  10.465 -0.0860  0.4205  0.0438
  563loPI   C1A 8999   7.869  12.658  10.185 -0.0843 -0.3512 -0.0687
  563loPI   C2A 9000   7.825  12.659   9.767  0.0677  0.3079 -0.1725
  563loPI   C3A 9001   7.731  12.710   9.279 -0.2759 -0.1172  0.0777
  563loPI   C4A 9002   7.807  12.698   8.928  0.0884  0.2219 -0.2216
  563loPI   C5A 9003   7.746  12.704   8.444 -0.0885  0.3436 -0.0697
  563loPI   C6A 9004   7.938  12.739   8.075 -0.1302  0.1276  0.0902
  563loPI   C1B 9005   8.102  12.184  10.028 -0.0190 -0.1044  0.0374
  563loPI   C2B 9006   8.027  12.205   9.618  0.1638 -0.1278  0.0730
  563loPI   C3B 9007   7.943  12.177   9.146  0.1381 -0.0001  0.2318
  563loPI   C4B 9008   7.985  12.303   8.668 -0.1455 -0.0210 -0.1786
  564loPI    C1 9009   2.426   2.035  11.672  0.2768 -0.0009  0.0176
  564loPI    C2 9010   2.125   1.902  11.900  0.0306  0.0505 -0.2712
  564loPI    C3 9011   2.380   2.175  12.044 -0.0111 -0.0527  0.0039
  564loPI   PO4 9012   2.361   1.916  11.392  0.0566 -0.0726 -0.1091
  564loPI   GL1 9013   2.571   1.889  11.020  0.1149  0.2336  0.0186
  564loPI   GL2 9014   2.325   1.990  10.824  0.2107 -0.2708  0.4126
  564loPI   C1A 9015   2.607   1.835  10.509 -0.1761  0.1318  0.0231
  564loPI   C2A 9016   2.842   1.900  10.064  0.0790 -0.0728 -0.0476
  564loPI   C3A 9017   2.807   1.879   9.585  0.2459  0.3642  0.0756
  564loPI   C4A 9018   2.697   1.930   9.166  0.0589  0.0437  0.0943
  564loPI   C5A 9019   2.634   1.870   8.670 -0.0696  0.1843 -0.0819
  564loPI   C6A 9020   2.801   1.776   8.266  0.0162 -0.0602 -0.1260
  564loPI   C1B 9021   2.123   2.035  10.529 -0.0051  0.2166  0.1629
  564loPI   C2B 9022   2.264   1.956  10.049 -0.2160 -0.5245 -0.1623
  564loPI   C3B 9023   2.290   1.953   9.612 -0.1387  0.0983 -0.1483
  564loPI   C4B 9024   2.194   1.945   9.218  0.3604 -0.2091  0.1156
  565loPI    C1 9025   2.158   3.693  11.129 -0.0436 -0.1207 -0.0020
  565loPI    C2 9026   1.932   3.684  11.459 -0.1274  0.0846 -0.0523
  565loPI    C3 9027   2.300   3.839  11.474 -0.1577  0.1586 -0.0706
  565loPI   PO4 9028   2.015   3.676  10.943 -0.2337  0.0173  0.0013
  565loPI   GL1 9029   1.687   3.678  10.628  0.2001  0.1653  0.2116
  565loPI   GL2 9030   1.557   4.000  10.716  0.1595  0.0807 -0.0017
  565loPI   C1A 9031   1.826   3.772  10.280  0.1067  0.0717  0.0863
  565loPI   C2A 9032   1.789   3.740   9.866 -0.0325 -0.0770  0.2107
  565loPI   C3A 9033   1.755   3.717   9.489  0.2706  0.1853 -0.1467
  565loPI   C4A 9034   1.696   3.696   9.118  0.1257 -0.0367 -0.0005
  565loPI   C5A 9035   1.705   3.682   8.686 -0.0890 -0.0701  0.0858
  565loPI   C6A 9036   1.731   3.830   8.270 -0.1765  0.1154 -0.0618
  565loPI   C1B 9037   1.587   4.230  10.240  0.0202  0.0157 -0.2972
  565loPI   C2B 9038   1.614   4.215   9.808  0.2438  0.1715  0.2996
  565loPI   C3B 9039   1.480   4.144   9.426 -0.0795 -0.3460  0.0601
  565loPI   C4B 9040   1.421   4.128   8.962  0.0580  0.0156  0.5375
  566loPI    C1 9041   9.198   2.672  11.104 -0.1302  0.1887  0.2176
  566loPI    C2 9042   9.076   2.340  11.289  0.1203  0.0444  0.1288
  566loPI    C3 9043   9.000   2.698  11.450 -0.2180 -0.0497  0.1871
  566loPI   PO4 9044   9.171   2.616  10.905 -0.0569 -0.1241 -0.1133
  566loPI   GL1 9045   9.217   2.770  10.501 -0.1096  0.1613 -0.0063
  566loPI   GL2 9046   9.111   2.497  10.426 -0.0200  0.1961 -0.1112
  566loPI   C1A 9047   9.269   3.009  10.121  0.1078  0.0765  0.1914
  566loPI   C2A 9048   9.286   3.112   9.767  0.1662  0.3850  0.1280
  566loPI   C3A 9049   9.392   3.074   9.308 -0.0642  0.0953  0.0721
  566loPI   C4A 9050   9.424   2.985   8.936  0.2617 -0.1409  0.2234
  566loPI   C5A 9051   9.635   2.997   8.557  0.2305 -0.0978 -0.0589
  566loPI   C6A 9052   9.749   2.756   8.350  0.0861 -0.1012 -0.0894
  566loPI   C1B 9053   9.019   2.576   9.975 -0.2967  0.0204  0.0086
  566loPI   C2B 9054   9.086   2.632   9.578 -0.1955 -0.1712 -0.1150
  566loPI   C3B 9055   9.050   2.591   9.099  0.1159 -0.2406 -0.1359
  566loPI   C4B 9056   9.062   2.749   8.699  0.3199  0.1814 -0.0374
  567loPI    C1 9057   1.490   8.561  10.810  0.0514 -0.1071  0.1651
  567loPI    C2 9058   1.348   8.306  11.084 -0.2175  0.0977  0.2206
  567loPI    C3 9059   1.573   8.618  11.197  0.1363 -0.1256  0.1498
  567loPI   PO4 9060   1.264   8.547  10.638 -0.0481  0.1010  0.2334
  567loPI   GL1 9061   0.987   8.723  10.339  0.2485  0.0181 -0.0693
  567loPI   GL2 9062   1.186   8.738  10.085  0.0599  0.0919 -0.3755
  567loPI   C1A 9063   0.719   8.761   9.836  0.0319  0.1730 -0.1998
  567loPI   C2A 9064   0.710   8.615   9.370  0.1175 -0.0172 -0.0346
  567loPI   C3A 9065   0.649   8.647   8.907 -0.2512  0.0580 -0.0958
  567loPI   C4A 9066   0.754   8.560   8.501  0.0841  0.1717 -0.3785
  567loPI   C5A 9067   0.688   8.664   8.119 -0.1194 -0.2669  0.2734
  567loPI   C6A 9068   0.461   8.443   7.862  0.0657 -0.1857  0.0979
  567loPI   C1B 9069   1.192   8.559   9.671  0.2141 -0.0974  0.1387
  567loPI   C2B 9070   1.191   8.593   9.232 -0.4217  0.3550 -0.3605
  567loPI   C3B 9071   1.193   8.580   8.816 -0.0151 -0.1871 -0.0418
  567loPI   C4B 9072   1.194   8.560   8.329 -0.1885  0.0837  0.1075
  568loPI    C1 9073   0.882  10.064  10.215  0.0525 -0.1031 -0.1113
  568loPI    C2 9074   0.657  10.385  10.135 -0.0294 -0.0808  0.1981
  568loPI    C3 9075   0.801  10.328  10.504  0.4961 -0.0825  0.0014
  568loPI   PO4 9076   1.055  10.029  10.097  0.1096 -0.2148 -0.1358
  568loPI   GL1 9077   1.052  10.052   9.719 -0.0559  0.0233 -0.0534
  568loPI   GL2 9078   0.932  10.365   9.761 -0.0037  0.0691 -0.2562
  568loPI   C1A 9079   1.093   9.975   9.356 -0.0449  0.1113 -0.2789
  568loPI   C2A 9080   1.072   9.891   8.969  0.0569  0.2301  0.1609
  568loPI   C3A 9081   1.124   9.892   8.542  0.2007  0.3944  0.3989
  568loPI   C4A 9082   0.888  10.017   8.220 -0.4487  0.0551 -0.0689
  568loPI   C5A 9083   0.944   9.893   7.842  0.3641  0.0327 -0.0906
  568loPI   C6A 9084   1.217  10.065   7.644 -0.0909 -0.2286 -0.2233
  568loPI   C1B 9085   1.149  10.422   9.409  0.0533  0.0682 -0.3597
  568loPI   C2B 9086   1.193  10.364   9.022  0.2289 -0.3893  0.2128
  568loPI   C3B 9087   0.909  10.359   8.672  0.1667 -0.2823 -0.1864
  568loPI   C4B 9088   0.927  10.550   8.279 -0.0955  0.1593 -0.2302
  569loPI    C1 9089  12.435  16.305  10.685 -0.3366 -0.1080  0.0458
  569loPI    C2 9090  12.413  16.541  11.007 -0.1791  0.0726 -0.0742
  569loPI    C3 9091  12.292  16.161  11.030  0.1099 -0.0031  0.2826
  569loPI   PO4 9092  12.340  16.363  10.472 -0.1001 -0.0951 -0.2912
  569loPI   GL1 9093  12.079  16.174  10.203 -0.0136  0.1355  0.0608
  569loPI   GL2 9094  12.407  15.997  10.192 -0.1873 -0.2586 -0.0462
  569loPI   C1A 9095  12.162  15.843   9.795  0.0663 -0.2096 -0.1693
  569loPI   C2A 9096  12.213  15.922   9.338  0.0573  0.0349  0.0181
  569loPI   C3A 9097  12.297  16.051   8.980 -0.0115  0.0491  0.2146
  569loPI   C4A 9098  12.342  16.119   8.546 -0.0829  0.0562  0.0648
  569loPI   C5A 9099  12.612  15.989   8.151  0.2820  0.1500  0.1149
  569loPI   C6A 9100  12.629  15.606   7.878 -0.3414  0.0750  0.0510
  569loPI   C1B 9101  12.595  16.107   9.756  0.3109  0.1097 -0.0405
  569loPI   C2B 9102  12.618  16.117   9.390 -0.2344  0.0123  0.2239
  569loPI   C3B 9103  12.805  16.163   8.971  0.0980  0.0032  0.2237
  569loPI   C4B 9104  12.954  16.094   8.521  0.1197 -0.2364  0.1054
  570loPI    C1 9105  11.586   8.140  11.195 -0.0666 -0.1742 -0.3015
  570loPI    C2 9106  11.336   7.829  11.217 -0.0500 -0.1865 -0.2846
  570loPI    C3 9107  11.629   7.868  11.485 -0.2580  0.0235 -0.0830
  570loPI   PO4 9108  11.602   8.124  10.888 -0.1085  0.1688  0.1144
  570loPI   GL1 9109  11.561   8.047  10.459 -0.0486 -0.0486 -0.1465
  570loPI   GL2 9110  11.664   8.390  10.345 -0.1606  0.1942  0.1586
  570loPI   C1A 9111  11.511   7.888  10.076  0.4849 -0.0454  0.0814
  570loPI   C2A 9112  11.456   7.835   9.597  0.3329  0.0978  0.1314
  570loPI   C3A 9113  11.441   7.851   9.155  0.1833  0.0076  0.2467
  570loPI   C4A 9114  11.486   7.901   8.716 -0.0436 -0.0453 -0.0889
  570loPI   C5A 9115  11.903   7.762   8.389 -0.1426  0.0935 -0.0675
  570loPI   C6A 9116  12.138   7.738   7.968 -0.2484  0.0526  0.0268
  570loPI   C1B 9117  11.798   8.254   9.932 -0.0159 -0.4988 -0.1008
  570loPI   C2B 9118  11.776   8.227   9.530  0.0764  0.0232  0.0047
  570loPI   C3B 9119  11.792   8.193   9.107  0.2580  0.1613 -0.1072
  570loPI   C4B 9120  11.747   8.280   8.627 -0.1444  0.3295  0.1172
  571loPI    C1 9121  10.815   1.285  11.263 -0.1768 -0.0158  0.0661
  571loPI    C2 9122  10.886   0.899  11.185  0.1923  0.1019 -0.2082
  571loPI    C3 9123  11.044   1.069  11.511  0.0111  0.0185 -0.0753
  571loPI   PO4 9124  10.814   1.411  11.043  0.0444 -0.0209  0.1447
  571loPI   GL1 9125  10.956   1.515  10.667 -0.0693  0.0323  0.2002
  571loPI   GL2 9126  10.577   1.592  10.477 -0.1148  0.0447  0.2289
  571loPI   C1A 9127  11.089   1.535  10.229  0.1783 -0.0408 -0.4149
  571loPI   C2A 9128  11.052   1.574   9.806  0.0393  0.0890 -0.0663
  571loPI   C3A 9129  11.081   1.549   9.492 -0.1043  0.1026 -0.3127
  571loPI   C4A 9130  11.150   1.553   9.160 -0.0537  0.0898  0.0446
  571loPI   C5A 9131  11.163   1.441   8.757 -0.2252  0.2057  0.0141
  571loPI   C6A 9132  11.300   1.351   8.389  0.0688  0.0742  0.0958
  571loPI   C1B 9133  10.576   1.587  10.022  0.0910  0.0167  0.0415
  571loPI   C2B 9134  10.615   1.528   9.562 -0.2060 -0.2039  0.0322
  571loPI   C3B 9135  10.565   1.596   9.133  0.2895 -0.2251 -0.3010
  571loPI   C4B 9136  10.635   1.556   8.607  0.0406 -0.0209 -0.1367
  572loPI    C1 9137   9.724   8.736  10.973 -0.4555  0.0327 -0.0691
  572loPI    C2 9138   9.487   8.428  10.881 -0.0192 -0.3068 -0.0918
  572loPI    C3 9139   9.678   8.436  11.233 -0.1088 -0.0058 -0.0467
  572loPI   PO4 9140   9.971   8.785  10.820  0.0228 -0.2315 -0.1362
  572loPI   GL1 9141  10.178   8.743  10.468 -0.2180 -0.2296  0.2096
  572loPI   GL2 9142   9.852   8.530  10.369  0.1302  0.2138 -0.1509
  572loPI   C1A 9143  10.095   8.917  10.030  0.1897 -0.3633  0.0653
  572loPI   C2A 9144  10.093   8.910   9.596 -0.3234 -0.0849  0.0872
  572loPI   C3A 9145   9.995   8.837   9.152  0.0033 -0.0182 -0.0907
  572loPI   C4A 9146   9.989   8.853   8.776  0.2314  0.3039 -0.0630
  572loPI   C5A 9147   9.797   8.780   8.401 -0.0387 -0.1988 -0.1416
  572loPI   C6A 9148   9.566   8.648   8.165  0.0582 -0.2559 -0.0867
  572loPI   C1B 9149   9.750   8.474   9.906 -0.1806  0.3050 -0.0203
  572loPI   C2B 9150   9.776   8.441   9.496  0.1928  0.1827 -0.1106
  572loPI   C3B 9151   9.749   8.443   9.053 -0.2600 -0.0567 -0.5879
  572loPI   C4B 9152   9.731   8.349   8.564  0.0024  0.3620  0.3957
  573loPI    C1 9153   4.222  13.324  10.745  0.2774  0.2210  0.2331
  573loPI    C2 9154   3.946  13.359  11.033  0.0038  0.1391 -0.0136
  573loPI    C3 9155   4.214  13.062  11.048 -0.0494  0.0969  0.1221
  573loPI   PO4 9156   4.105  13.356  10.523  0.1313 -0.2351 -0.1491
  573loPI   GL1 9157   4.114  13.284  10.087 -0.2065 -0.0169 -0.0632
  573loPI   GL2 9158   4.394  13.225   9.920  0.3270 -0.1686 -0.1950
  573loPI   C1A 9159   4.010  13.308   9.627  0.0331 -0.0091 -0.0396
  573loPI   C2A 9160   3.947  13.337   9.166 -0.0449  0.1629 -0.0109
  573loPI   C3A 9161   3.895  13.425   8.710 -0.0316 -0.0851 -0.0590
  573loPI   C4A 9162   3.949  13.495   8.340 -0.1501 -0.0312  0.0354
  573loPI   C5A 9163   3.794  13.731   8.061 -0.0272  0.1325 -0.2524
  573loPI   C6A 9164   3.555  14.189   8.078 -0.2129 -0.2799  0.0320
  573loPI   C1B 9165   4.488  13.292   9.463 -0.0492  0.0773  0.2201
  573loPI   C2B 9166   4.416  13.268   9.040  0.0302  0.2648  0.4338
  573loPI   C3B 9167   4.416  13.421   8.566 -0.0333  0.0359 -0.1018
  573loPI   C4B 9168   4.439  13.505   8.102  0.0546  0.2063 -0.1573
  574loPI    C1 9169   2.396   7.712  10.965  0.0586 -0.2912  0.0232
  574loPI    C2 9170   2.688   7.513  11.154  0.1869  0.0058  0.1446
  574loPI    C3 9171   2.684   7.913  11.157 -0.1830  0.0063  0.0815
  574loPI   PO4 9172   2.438   7.710  10.585  0.2538  0.0098  0.1449
  574loPI   GL1 9173   2.656   7.742  10.216 -0.1281 -0.1213 -0.1854
  574loPI   GL2 9174   2.833   7.984  10.200 -0.0241 -0.0667 -0.3836
  574loPI   C1A 9175   2.713   7.618   9.763 -0.5191 -0.1543  0.2113
  574loPI   C2A 9176   2.787   7.643   9.326 -0.0403 -0.1996  0.1879
  574loPI   C3A 9177   2.759   7.569   8.857 -0.0883  0.1491 -0.0915
  574loPI   C4A 9178   2.667   7.569   8.386 -0.1765 -0.0746 -0.0402
  574loPI   C5A 9179   2.298   7.706   8.077 -0.3474  0.4441 -0.1326
  574loPI   C6A 9180   1.918   7.663   8.012 -0.2016  0.2111  0.2857
  574loPI   C1B 9181   3.023   8.162   9.907 -0.0929  0.4679 -0.0166
  574loPI   C2B 9182   3.106   8.042   9.554 -0.1458 -0.2363  0.3078
  574loPI   C3B 9183   3.066   8.041   9.125 -0.0771 -0.0368  0.2014
  574loPI   C4B 9184   2.996   7.999   8.679 -0.0751 -0.1726 -0.2625
  575loPI    C1 9185   0.309   9.075  11.000 -0.1159 -0.0025 -0.0520
  575loPI    C2 9186   0.090   9.391  11.112 -0.2410 -0.1181  0.0336
  575loPI    C3 9187   0.490   9.411  11.119 -0.2484  0.0237  0.0781
  575loPI   PO4 9188   0.032   8.931  10.900 -0.0709  0.2980 -0.1145
  575loPI   GL1 9189   0.057   8.821  10.447 -0.1215  0.0531 -0.2870
  575loPI   GL2 9190  -0.190   8.674  10.367  0.1725 -0.0441 -0.2747
  575loPI   C1A 9191  -0.039   9.110  10.106  0.1603 -0.3282 -0.3225
  575loPI   C2A 9192   0.074   9.103   9.674  0.1689  0.1283 -0.1700
  575loPI   C3A 9193  -0.084   9.116   9.297 -0.1908  0.1035  0.2288
  575loPI   C4A 9194  -0.016   9.151   8.885 -0.0950  0.1833 -0.2365
  575loPI   C5A 9195  -0.029   9.175   8.420  0.1703 -0.0410 -0.1323
  575loPI   C6A 9196  -0.382   9.043   8.101  0.0012 -0.2502 -0.2096
  575loPI   C1B 9197  -0.290   8.731   9.862 -0.0005 -0.0311 -0.0144
  575loPI   C2B 9198  -0.311   8.639   9.359  0.2800  0.2125 -0.1650
  575loPI   C3B 9199  -0.292   8.760   8.926 -0.0989  0.0719  0.1888
  575loPI   C4B 9200  -0.286   8.690   8.496 -0.1253 -0.1698 -0.1126
  576loPI    C1 9201   2.118   4.271  11.345 -0.0570 -0.2306  0.1576
  576loPI    C2 9202   1.799   4.088  11.187  0.0932 -0.3452 -0.0163
  576loPI    C3 9203   1.808   4.174  11.577 -0.2036 -0.2261 -0.0335
  576loPI   PO4 9204   2.365   4.198  11.128  0.0121 -0.2801  0.0592
  576loPI   GL1 9205   2.351   4.151  10.793  0.0217  0.0309  0.1752
  576loPI   GL2 9206   2.042   4.104  10.587 -0.2353  0.0493  0.0479
  576loPI   C1A 9207   2.609   4.136  10.420  0.0354 -0.2886  0.2997
  576loPI   C2A 9208   2.598   4.079   9.876 -0.1333 -0.3433  0.1861
  576loPI   C3A 9209   2.512   4.128   9.401  0.1195 -0.4812  0.0013
  576loPI   C4A 9210   2.463   4.010   8.927 -0.1468 -0.3173 -0.1855
  576loPI   C5A 9211   2.520   3.903   8.426  0.1612 -0.0237  0.2347
  576loPI   C6A 9212   2.248   3.669   8.210  0.2469 -0.2485 -0.0108
  576loPI   C1B 9213   2.144   4.197  10.182  0.3131  0.2220 -0.1315
  576loPI   C2B 9214   2.142   4.129   9.761 -0.0842  0.0560 -0.2494
  576loPI   C3B 9215   2.001   4.098   9.311 -0.1156 -0.0490 -0.0496
  576loPI   C4B 9216   1.975   4.084   8.788 -0.2245  0.1498  0.0536
  577loPI    C1 9217  16.550  11.314  11.156 -0.0403 -0.1780 -0.0250
  577loPI    C2 9218  16.545  11.708  11.225  0.1979 -0.2077  0.1722
  577loPI    C3 9219  16.249  11.477  11.363  0.0629 -0.1000  0.0646
  577loPI   PO4 9220  16.670  11.257  10.850  0.1033  0.2049 -0.0813
  577loPI   GL1 9221  16.485  11.287  10.471  0.2094 -0.2066 -0.0122
  577loPI   GL2 9222  16.201  11.449  10.311 -0.0883  0.0622  0.0885
  577loPI   C1A 9223  16.657  11.491  10.096 -0.0483 -0.1156  0.4222
  577loPI   C2A 9224  16.704  11.396   9.651  0.4303 -0.1037 -0.0659
  577loPI   C3A 9225  16.590  11.455   9.219 -0.0477 -0.0687 -0.0285
  577loPI   C4A 9226  16.755  11.521   8.796 -0.2517 -0.1410  0.2815
  577loPI   C5A 9227  16.844  11.438   8.421  0.1493  0.2298 -0.2265
  577loPI   C6A 9228  16.887  11.303   7.945  0.1266  0.1165  0.0594
  577loPI   C1B 9229  16.138  11.497   9.903 -0.0579  0.3732  0.2077
  577loPI   C2B 9230  16.128  11.530   9.419  0.0978  0.0077 -0.1118
  577loPI   C3B 9231  16.182  11.454   8.998  0.1516  0.0407  0.0021
  577loPI   C4B 9232  16.348  11.473   8.623  0.2517  0.0489 -0.2169
  578loPI    C1 9233   6.881   0.796  10.691 -0.1533  0.0806  0.3248
  578loPI    C2 9234   6.542   0.774  10.480 -0.2852  0.1081  0.5310
  578loPI    C3 9235   6.699   0.443  10.642  0.0000  0.0296  0.1094
  578loPI   PO4 9236   7.013   0.870  10.529  0.0211 -0.3616  0.0035
  578loPI   GL1 9237   6.899   0.872  10.133 -0.2885 -0.3382  0.0377
  578loPI   GL2 9238   6.651   1.203  10.108 -0.1135 -0.1763  0.0023
  578loPI   C1A 9239   6.855   0.833   9.748  0.3556  0.1306  0.2067
  578loPI   C2A 9240   6.834   0.913   9.283 -0.0752 -0.0003 -0.2646
  578loPI   C3A 9241   6.866   0.668   8.987  0.0331  0.0017 -0.1682
  578loPI   C4A 9242   6.817   0.698   8.537  0.1470  0.1823 -0.3657
  578loPI   C5A 9243   6.778   0.546   8.221  0.1385  0.4799  0.0253
  578loPI   C6A 9244   6.827   0.147   8.177  0.3043  0.2229  0.1134
  578loPI   C1B 9245   6.756   1.307   9.719 -0.0613  0.1557 -0.3503
  578loPI   C2B 9246   6.631   1.411   9.319 -0.0857  0.3746  0.2353
  578loPI   C3B 9247   6.582   1.140   8.933 -0.0514 -0.1868  0.1467
  578loPI   C4B 9248   6.459   1.069   8.504  0.1422 -0.0335  0.0078
  579loPI    C1 9249  10.924  11.851  11.180 -0.0536  0.2130 -0.0777
  579loPI    C2 9250  11.187  12.030  11.424  0.1979 -0.1791 -0.0518
  579loPI    C3 9251  10.810  11.971  11.544  0.1834  0.0891  0.0400
  579loPI   PO4 9252  10.956  11.934  10.964 -0.0269  0.2769  0.0583
  579loPI   GL1 9253  11.186  11.787  10.609 -0.1536  0.1602 -0.0662
  579loPI   GL2 9254  10.885  11.759  10.533 -0.2712  0.0023 -0.0717
  579loPI   C1A 9255  11.391  11.561  10.281  0.2388  0.2267 -0.0908
  579loPI   C2A 9256  11.268  11.473   9.891  0.0383  0.2109 -0.0579
  579loPI   C3A 9257  11.255  11.484   9.453  0.2167 -0.0575 -0.0647
  579loPI   C4A 9258  11.304  11.397   8.980 -0.0833  0.0042 -0.0306
  579loPI   C5A 9259  11.157  11.458   8.562 -0.0275  0.1264  0.2399
  579loPI   C6A 9260  11.207  11.309   8.150 -0.1398 -0.1127  0.1881
  579loPI   C1B 9261  10.825  11.575  10.118 -0.1425 -0.1644  0.3004
  579loPI   C2B 9262  10.794  11.550   9.678  0.0978 -0.0893 -0.1067
  579loPI   C3B 9263  10.697  11.549   9.353  0.1755 -0.1353  0.1059
  579loPI   C4B 9264  10.803  11.518   8.907 -0.1386  0.0199  0.0458
  580loPI    C1 9265   9.397   5.825  11.057 -0.2295  0.2436 -0.1417
  580loPI    C2 9266   9.541   6.086  11.324 -0.0554  0.1113 -0.1039
  580loPI    C3 9267   9.343   5.762  11.449  0.0583  0.0301 -0.1331
  580loPI   PO4 9268   9.415   5.963  10.809  0.1777  0.2661 -0.0098
  580loPI   GL1 9269   9.408   6.280  10.503 -0.0080 -0.0802 -0.0813
  580loPI   GL2 9270   9.731   6.294  10.434  0.0365  0.0703 -0.3559
  580loPI   C1A 9271   9.320   6.270  10.118  0.0537  0.2276  0.1643
  580loPI   C2A 9272   9.239   6.282   9.677 -0.0587 -0.0191 -0.1027
  580loPI   C3A 9273   9.311   6.212   9.178 -0.2822  0.2892  0.0963
  580loPI   C4A 9274   9.183   6.165   8.704 -0.2458  0.0911 -0.1001
  580loPI   C5A 9275   9.117   5.807   8.433  0.1568 -0.0707  0.0631
  580loPI   C6A 9276   9.164   5.428   8.176  0.0511 -0.1928  0.0373
  580loPI   C1B 9277   9.910   6.255  10.103 -0.1602 -0.2472 -0.0204
  580loPI   C2B 9278   9.812   6.219   9.673 -0.1250  0.1065  0.3190
  580loPI   C3B 9279   9.838   6.144   9.226 -0.0660 -0.0210  0.1232
  580loPI   C4B 9280   9.715   6.146   8.815 -0.1274  0.4148  0.0283
  581loPI    C1 9281   4.326  15.092  11.055 -0.1082 -0.3725  0.1582
  581loPI    C2 9282   4.658  15.229  11.230 -0.0271 -0.2608 -0.0788
  581loPI    C3 9283   4.300  15.361  11.350  0.0443  0.0793 -0.2285
  581loPI   PO4 9284   4.373  15.132  10.746  0.2413  0.1026  0.0162
  581loPI   GL1 9285   4.737  15.452  10.534 -0.1768  0.2322 -0.0815
  581loPI   GL2 9286   4.363  15.487  10.387  0.3407  0.0293 -0.1415
  581loPI   C1A 9287   4.893  15.477  10.102  0.0083  0.0790 -0.4067
  581loPI   C2A 9288   4.829  15.495   9.658  0.1930 -0.1684  0.1162
  581loPI   C3A 9289   4.879  15.607   9.232  0.2170  0.0303 -0.3850
  581loPI   C4A 9290   4.873  15.605   8.856 -0.1561 -0.0952 -0.2717
  581loPI   C5A 9291   4.830  15.667   8.436 -0.0054 -0.1813  0.1297
  581loPI   C6A 9292   4.544  15.528   8.184 -0.1013 -0.0426  0.0474
  581loPI   C1B 9293   4.397  15.538  10.009 -0.3504 -0.2915 -0.0455
  581loPI   C2B 9294   4.325  15.606   9.573 -0.0412  0.0716  0.2507
  581loPI   C3B 9295   4.267  15.604   9.137  0.0561  0.3043  0.0007
  581loPI   C4B 9296   4.351  15.661   8.725 -0.2358  0.2716 -0.0049
  582loPI    C1 9297   3.865  15.055  11.203  0.3114  0.0220  0.0515
  582loPI    C2 9298   3.849  15.211  11.571  0.2207  0.0250  0.0464
  582loPI    C3 9299   3.552  14.976  11.440  0.1849  0.1372 -0.0754
  582loPI   PO4 9300   3.852  15.239  11.011 -0.0987 -0.1650 -0.0519
  582loPI   GL1 9301   3.882  15.266  10.603  0.0082  0.0799 -0.0641
  582loPI   GL2 9302   3.733  15.017  10.409 -0.0049  0.0144  0.0426
  582loPI   C1A 9303   3.915  15.480  10.195 -0.1565  0.0857 -0.1236
  582loPI   C2A 9304   3.846  15.578   9.771 -0.0534  0.1969  0.1092
  582loPI   C3A 9305   3.826  15.635   9.383 -0.1582 -0.1105 -0.4725
  582loPI   C4A 9306   3.798  15.588   8.946  0.2825 -0.0216  0.2056
  582loPI   C5A 9307   3.866  15.668   8.609  0.0645 -0.2865  0.1027
  582loPI   C6A 9308   4.112  15.742   8.267 -0.1062  0.0759 -0.3879
  582loPI   C1B 9309   3.600  15.082  10.024 -0.2300 -0.2167  0.3388
  582loPI   C2B 9310   3.514  15.183   9.627  0.0524  0.3572 -0.2787
  582loPI   C3B 9311   3.643  15.218   9.235 -0.1386 -0.0044 -0.1605
  582loPI   C4B 9312   3.475  15.197   8.829  0.0196 -0.0510  0.1266
  583loPI    C1 9313   4.652  13.812  10.946  0.0203  0.1228  0.1175
  583loPI    C2 9314   4.423  13.541  11.130 -0.0569  0.0195 -0.1271
  583loPI    C3 9315   4.532  13.874  11.323 -0.2159 -0.0415  0.0714
  583loPI   PO4 9316   4.579  13.774  10.669  0.2174  0.1596  0.2818
  583loPI   GL1 9317   4.283  13.798  10.347  0.2881  0.0250  0.0001
  583loPI   GL2 9318   4.075  13.993  10.373  0.0143 -0.0400 -0.2762
  583loPI   C1A 9319   4.320  13.710   9.883 -0.0631  0.2706 -0.1789
  583loPI   C2A 9320   4.276  13.755   9.486 -0.4419 -0.2615 -0.2461
  583loPI   C3A 9321   4.225  13.811   9.095  0.0105  0.0282  0.1092
  583loPI   C4A 9322   4.193  13.940   8.662  0.1022  0.1835 -0.0791
  583loPI   C5A 9323   4.049  14.199   8.250  0.4072  0.1384  0.1214
  583loPI   C6A 9324   3.966  14.465   7.905 -0.0564  0.0999  0.2393
  583loPI   C1B 9325   4.066  14.152   9.965  0.1336 -0.0505  0.1363
  583loPI   C2B 9326   4.093  14.242   9.492  0.0559  0.1823 -0.2599
  583loPI   C3B 9327   4.057  14.337   9.063 -0.1385  0.0770 -0.2802
  583loPI   C4B 9328   4.041  14.397   8.749 -0.1686 -0.0800  0.0886
  584loPI    C1 9329  10.761   3.561  11.343 -0.2251 -0.3240 -0.0511
  584loPI    C2 9330  10.633   3.922  11.458  0.0130 -0.2254 -0.0902
  584loPI    C3 9331  10.579   3.606  11.697  0.1183 -0.1000  0.1024
  584loPI   PO4 9332  10.864   3.708  11.095 -0.0684  0.0277 -0.0979
  584loPI   GL1 9333  10.787   3.595  10.685 -0.4218  0.2994  0.1532
  584loPI   GL2 9334  10.626   3.842  10.566  0.1770 -0.1301 -0.2140
  584loPI   C1A 9335  10.738   3.384  10.388 -0.0715 -0.1890  0.1126
  584loPI   C2A 9336  10.697   3.413  10.005  0.0957  0.2554  0.1130
  584loPI   C3A 9337  10.657   3.302   9.640 -0.0356  0.1258  0.1039
  584loPI   C4A 9338  10.732   3.361   9.313 -0.3618 -0.0320  0.0703
  584loPI   C5A 9339  10.710   3.351   8.872 -0.3183 -0.2030 -0.0156
  584loPI   C6A 9340  10.495   3.365   8.611 -0.1458  0.1562 -0.0599
  584loPI   C1B 9341  10.545   3.932  10.197 -0.1506  0.1613 -0.2153
  584loPI   C2B 9342  10.451   3.823   9.751  0.1172 -0.0568  0.1231
  584loPI   C3B 9343  10.540   3.853   9.384  0.2719  0.2349  0.0485
  584loPI   C4B 9344  10.521   3.821   8.917 -0.0282 -0.2098  0.0606
  585loPI    C1 9345  16.186  17.332  11.125 -0.1908 -0.1432 -0.0041
  585loPI    C2 9346  15.847  17.246  11.319 -0.0974  0.0211  0.2373
  585loPI    C3 9347  16.092  17.529  11.460 -0.0031  0.1119 -0.0980
  585loPI   PO4 9348  16.091  17.335  10.874 -0.0539  0.0562 -0.1199
  585loPI   GL1 9349  16.094  17.224  10.491  0.1830 -0.1748  0.0409
  585loPI   GL2 9350  15.811  17.203  10.415 -0.0907  0.0623  0.2032
  585loPI   C1A 9351  16.247  17.393  10.211 -0.1278  0.0236 -0.0543
  585loPI   C2A 9352  16.193  17.365   9.767 -0.2037 -0.1282 -0.3277
  585loPI   C3A 9353  16.231  17.344   9.364  0.1551  0.1656 -0.1294
  585loPI   C4A 9354  16.335  17.280   8.951  0.2026 -0.2704 -0.0693
  585loPI   C5A 9355  16.307  17.149   8.529 -0.2348 -0.0369  0.1107
  585loPI   C6A 9356  16.078  17.323   8.143  0.1558  0.6691  0.0650
  585loPI   C1B 9357  15.766  17.419  10.055  0.3207 -0.1767  0.2037
  585loPI   C2B 9358  15.737  17.311   9.582  0.0025  0.0584  0.0490
  585loPI   C3B 9359  15.766  17.335   9.113  0.0719  0.1683  0.0577
  585loPI   C4B 9360  15.840  17.317   8.728  0.0378 -0.1813  0.0304
  586loPI    C1 9361   7.936  15.568  10.990 -0.1476 -0.2298 -0.0118
  586loPI    C2 9362   7.920  15.856  11.268  0.0114 -0.0422 -0.1933
  586loPI    C3 9363   7.963  15.473  11.377  0.0197  0.0247  0.0413
  586loPI   PO4 9364   8.041  15.732  10.773 -0.1651 -0.0829 -0.0051
  586loPI   GL1 9365   8.034  15.673  10.360  0.1737  0.1293 -0.2340
  586loPI   GL2 9366   8.327  15.462  10.204 -0.0132  0.1621 -0.1044
  586loPI   C1A 9367   7.808  15.748   9.965  0.0335 -0.0990 -0.0446
  586loPI   C2A 9368   7.789  15.797   9.542 -0.1008  0.1874  0.1525
  586loPI   C3A 9369   7.752  15.762   9.103 -0.1432  0.0825  0.1971
  586loPI   C4A 9370   7.736  15.626   8.692  0.0005 -0.0838 -0.0396
  586loPI   C5A 9371   7.711  15.798   8.289  0.1596 -0.0536  0.0107
  586loPI   C6A 9372   7.503  15.731   7.964  0.0757  0.1829  0.3211
  586loPI   C1B 9373   8.586  15.318   9.858  0.0809  0.1355 -0.3416
  586loPI   C2B 9374   8.570  15.375   9.502 -0.0863 -0.0540 -0.1296
  586loPI   C3B 9375   8.508  15.315   9.116 -0.1054  0.0266  0.1317
  586loPI   C4B 9376   8.677  15.072   8.716  0.2451  0.0610 -0.0570
  587loPI    C1 9377   9.065   4.666  11.305  0.0388  0.1705  0.1910
  587loPI    C2 9378   8.784   4.393  11.384  0.1620 -0.0035  0.0366
  587loPI    C3 9379   8.702   4.782  11.425 -0.1734 -0.0420 -0.2218
  587loPI   PO4 9380   9.181   4.562  11.021  0.0920  0.2084  0.2071
  587loPI   GL1 9381   9.258   4.500  10.656  0.0578  0.1824  0.0665
  587loPI   GL2 9382   9.080   4.746  10.445  0.2293 -0.1804  0.2321
  587loPI   C1A 9383   9.193   4.344  10.169  0.0609 -0.3070  0.1764
  587loPI   C2A 9384   9.298   4.387   9.760  0.3736 -0.1688 -0.1323
  587loPI   C3A 9385   9.164   4.379   9.399  0.2430  0.0074 -0.0434
  587loPI   C4A 9386   9.208   4.314   8.965  0.0310 -0.0012 -0.0226
  587loPI   C5A 9387   9.100   4.502   8.614 -0.0336  0.0370  0.3069
  587loPI   C6A 9388   9.287   4.954   8.399  0.3064 -0.0607  0.0373
  587loPI   C1B 9389   9.053   4.922  10.061 -0.0557 -0.1832 -0.2571
  587loPI   C2B 9390   8.979   4.878   9.607  0.1869 -0.0166 -0.1213
  587loPI   C3B 9391   8.976   4.763   9.198  0.0261  0.2996  0.2976
  587loPI   C4B 9392   8.924   4.943   8.812  0.0228 -0.0409  0.0517
  588loPI    C1 9393   0.687   7.797  11.225 -0.0275 -0.1488 -0.0718
  588loPI    C2 9394   0.831   8.147  11.354 -0.1656 -0.1138 -0.0108
  588loPI    C3 9395   0.525   7.975  11.544 -0.2257 -0.1714 -0.1589
  588loPI   PO4 9396   0.622   7.783  10.906  0.0088  0.3395  0.1316
  588loPI   GL1 9397   0.564   7.858  10.514  0.3242 -0.0967 -0.2060
  588loPI   GL2 9398   0.267   7.907  10.490 -0.0063 -0.0400 -0.1471
  588loPI   C1A 9399   0.729   7.785  10.148  0.2455 -0.2293 -0.3984
  588loPI   C2A 9400   0.606   7.741   9.695  0.0732  0.1843 -0.1617
  588loPI   C3A 9401   0.663   7.777   9.268 -0.2568 -0.0919 -0.1462
  588loPI   C4A 9402   0.685   7.696   8.771  0.0331  0.1378 -0.2935
  588loPI   C5A 9403   0.525   7.798   8.444 -0.0136 -0.0708  0.0107
  588loPI   C6A 9404   0.492   8.217   8.259  0.3332  0.1981 -0.1236
  588loPI   C1B 9405   0.212   7.799  10.027  0.0090 -0.0569 -0.0350
  588loPI   C2B 9406   0.159   7.788   9.463 -0.1842  0.1531 -0.0282
  588loPI   C3B 9407   0.196   7.738   9.094 -0.0357  0.2664 -0.0347
  588loPI   C4B 9408   0.085   7.874   8.682  0.3328  0.0699  0.2440
  589loPI    C1 9409   9.699  14.441  10.727 -0.3125 -0.3158  0.0467
  589loPI    C2 9410   9.544  14.803  10.797 -0.3144 -0.2989 -0.0440
  589loPI    C3 9411   9.603  14.550  11.100 -0.1744 -0.1677  0.0401
  589loPI   PO4 9412   9.700  14.410  10.515 -0.0146 -0.1734  0.0968
  589loPI   GL1 9413   9.807  14.403  10.114  0.1678  0.0694  0.1556
  589loPI   GL2 9414  10.102  14.435   9.979  0.0733  0.2599  0.0388
  589loPI   C1A 9415   9.554  14.280   9.750 -0.0461 -0.0219 -0.0273
  589loPI   C2A 9416   9.578  14.382   9.295  0.1981  0.4137 -0.0849
  589loPI   C3A 9417   9.357  14.315   8.853 -0.3997 -0.1078  0.1451
  589loPI   C4A 9418   9.351  14.439   8.468  0.0046  0.2444 -0.0425
  589loPI   C5A 9419   9.640  14.441   8.148 -0.2146  0.1635  0.0492
  589loPI   C6A 9420   9.998  14.593   8.035 -0.0766  0.0453  0.0893
  589loPI   C1B 9421  10.048  14.275   9.564  0.0074 -0.0758 -0.0841
  589loPI   C2B 9422   9.995  14.141   9.154  0.1051  0.1399 -0.4493
  589loPI   C3B 9423   9.880  14.350   8.789 -0.0876  0.1049 -0.2657
  589loPI   C4B 9424   9.948  14.688   8.513 -0.2902  0.1877  0.0746
  590loPI    C1 9425   0.080   7.062  11.066  0.1272  0.2660  0.0620
  590loPI    C2 9426  -0.238   7.208  10.872  0.2405  0.2199 -0.1624
  590loPI    C3 9427  -0.142   7.349  11.234 -0.2102  0.0225  0.0425
  590loPI   PO4 9428   0.211   6.966  10.882 -0.3230 -0.0739 -0.3428
  590loPI   GL1 9429   0.053   6.920  10.476  0.0031 -0.0295  0.1569
  590loPI   GL2 9430   0.335   6.820  10.411  0.0691  0.0064 -0.4006
  590loPI   C1A 9431  -0.262   6.926  10.211  0.1946  0.4113 -0.2888
  590loPI   C2A 9432  -0.338   6.946   9.705 -0.0985 -0.0119 -0.0384
  590loPI   C3A 9433  -0.369   6.856   9.316 -0.1164  0.4337  0.1103
  590loPI   C4A 9434  -0.397   6.895   8.881  0.0519  0.0102 -0.2333
  590loPI   C5A 9435  -0.434   6.991   8.439  0.1664  0.1654  0.0051
  590loPI   C6A 9436  -0.240   7.288   8.147  0.0224 -0.0031  0.2818
  590loPI   C1B 9437   0.164   6.864   9.945 -0.1260 -0.0929  0.3224
  590loPI   C2B 9438   0.174   6.879   9.490 -0.3176  0.1731  0.0770
  590loPI   C3B 9439   0.100   6.813   9.049 -0.3054 -0.0182  0.2876
  590loPI   C4B 9440   0.043   6.834   8.595  0.0946  0.0782  0.0235
  591loPI    C1 9441   0.979  11.645  10.489  0.2535  0.2117  0.0304
  591loPI    C2 9442   0.714  11.452  10.718  0.0046  0.2322 -0.2336
  591loPI    C3 9443   1.106  11.398  10.776 -0.0590 -0.1021 -0.0935
  591loPI   PO4 9444   0.894  11.592  10.255 -0.0135  0.0075  0.0697
  591loPI   GL1 9445   0.731  11.620   9.890  0.1415  0.3434 -0.1752
  591loPI   GL2 9446   0.786  11.362   9.663 -0.0352 -0.1740 -0.2718
  591loPI   C1A 9447   0.739  11.796   9.496  0.1306  0.1431 -0.0613
  591loPI   C2A 9448   0.816  11.870   9.011  0.1016 -0.1159  0.1587
  591loPI   C3A 9449   0.759  11.815   8.656 -0.0115  0.1714 -0.2504
  591loPI   C4A 9450   0.734  11.814   8.234  0.1697  0.1067 -0.0010
  591loPI   C5A 9451   0.944  11.519   7.952  0.0870  0.2240  0.0393
  591loPI   C6A 9452   0.768  11.237   7.723  0.0953  0.0564 -0.3642
  591loPI   C1B 9453   0.732  11.280   9.253  0.2026 -0.0623  0.0231
  591loPI   C2B 9454   0.679  11.266   8.960 -0.4852  0.2200  0.2626
  591loPI   C3B 9455   0.477  11.400   8.670  0.0591 -0.0561  0.0909
  591loPI   C4B 9456   0.483  11.430   8.235  0.1718  0.3850 -0.1644
  592loPI    C1 9457  14.619   5.229  11.363  0.2109 -0.2529  0.0212
  592loPI    C2 9458  14.708   5.590  11.511 -0.1217 -0.0881 -0.1695
  592loPI    C3 9459  14.697   5.272  11.753  0.0454  0.0508  0.0241
  592loPI   PO4 9460  14.728   5.195  11.163 -0.1827  0.1780  0.1041
  592loPI   GL1 9461  14.927   5.023  10.818  0.0765 -0.5784 -0.0437
  592loPI   GL2 9462  14.810   5.268  10.613 -0.0307 -0.1424  0.1646
  592loPI   C1A 9463  14.910   4.846  10.387  0.0910 -0.0024  0.5056
  592loPI   C2A 9464  14.917   4.874  10.015  0.0520 -0.0347  0.2446
  592loPI   C3A 9465  14.970   4.869   9.630  0.3089  0.2211  0.0109
  592loPI   C4A 9466  14.890   4.851   9.217 -0.2751 -0.1047 -0.0817
  592loPI   C5A 9467  14.945   4.861   8.790 -0.2340 -0.0820 -0.3540
  592loPI   C6A 9468  15.126   4.680   8.447 -0.1915 -0.1772  0.0316
  592loPI   C1B 9469  14.710   5.279  10.121  0.0695 -0.2767 -0.0655
  592loPI   C2B 9470  14.769   5.329   9.664  0.2711 -0.2816 -0.0702
  592loPI   C3B 9471  14.714   5.291   9.238 -0.0178  0.2859 -0.1953
  592loPI   C4B 9472  14.690   5.373   8.786  0.2923 -0.0596 -0.0083
  593loPI    C1 9473   6.402  11.052  10.779 -0.0423  0.0675 -0.0849
  593loPI    C2 9474   6.379  11.106  11.174 -0.0154 -0.0046 -0.0733
  593loPI    C3 9475   6.570  11.373  10.947  0.0351 -0.0022 -0.0282
  593loPI   PO4 9476   6.188  10.869  10.686 -0.1245 -0.1358  0.1084
  593loPI   GL1 9477   6.036  10.709  10.310 -0.2157 -0.1289 -0.1386
  593loPI   GL2 9478   5.822  10.446  10.192  0.1836 -0.1268 -0.1383
  593loPI   C1A 9479   6.320  10.534   9.912 -0.0164  0.1615  0.1382
  593loPI   C2A 9480   6.325  10.557   9.494 -0.0453 -0.2276 -0.0777
  593loPI   C3A 9481   6.360  10.525   9.124  0.0672  0.1010  0.2700
  593loPI   C4A 9482   6.308  10.620   8.615  0.0644 -0.0762 -0.0247
  593loPI   C5A 9483   6.194  10.874   8.227  0.1263  0.1547 -0.0970
  593loPI   C6A 9484   6.232  11.031   7.798  0.0738 -0.0370 -0.2262
  593loPI   C1B 9485   5.863  10.558   9.739  0.1476 -0.2619  0.2028
  593loPI   C2B 9486   5.892  10.648   9.313  0.0287 -0.1153  0.3529
  593loPI   C3B 9487   5.824  10.680   8.869 -0.0563  0.1105  0.1615
  593loPI   C4B 9488   5.805  10.651   8.464 -0.2086  0.1392 -0.1675
  594loPI    C1 9489  17.083   5.318  11.118 -0.0673  0.1454  0.0391
  594loPI    C2 9490  17.237   5.253  11.482 -0.0323  0.0576  0.0091
  594loPI    C3 9491  16.876   5.422  11.444 -0.0878 -0.0423  0.0877
  594loPI   PO4 9492  17.133   5.105  10.985 -0.2553  0.0985 -0.2375
  594loPI   GL1 9493  17.378   5.090  10.664  0.0077 -0.0315 -0.2512
  594loPI   GL2 9494  17.173   4.885  10.509 -0.2315 -0.2487  0.1710
  594loPI   C1A 9495  17.386   5.154  10.175  0.2961 -0.1112 -0.1766
  594loPI   C2A 9496  17.322   5.067   9.693 -0.0542 -0.0576 -0.1913
  594loPI   C3A 9497  17.359   5.155   9.267  0.1543  0.1608  0.1883
  594loPI   C4A 9498  17.154   5.156   8.796  0.2113  0.0298 -0.3432
  594loPI   C5A 9499  17.089   5.292   8.382  0.1696  0.0463 -0.0606
  594loPI   C6A 9500  16.820   5.647   8.310  0.0511  0.1599  0.0975
  594loPI   C1B 9501  17.038   4.778  10.027  0.2126 -0.1636 -0.0257
  594loPI   C2B 9502  16.967   4.758   9.585 -0.5606 -0.0508 -0.2782
  594loPI   C3B 9503  17.024   4.826   9.164  0.0408 -0.1833 -0.1627
  594loPI   C4B 9504  16.888   4.745   8.702 -0.0002  0.1101  0.2573
  595loPI    C1 9505   3.263   6.088  10.845 -0.0005 -0.3164  0.1116
  595loPI    C2 9506   3.027   5.850  11.064 -0.2876 -0.0420  0.1075
  595loPI    C3 9507   3.099   6.226  11.182  0.1825 -0.1318  0.1270
  595loPI   PO4 9508   3.561   5.941  10.748  0.3600  0.1235  0.2423
  595loPI   GL1 9509   3.728   5.701  10.506  0.1563  0.0633 -0.0348
  595loPI   GL2 9510   3.967   5.831  10.501  0.1639 -0.1060  0.1547
  595loPI   C1A 9511   3.624   5.809  10.071  0.2045 -0.1410  0.0165
  595loPI   C2A 9512   3.651   5.835   9.557  0.4259 -0.0805  0.0136
  595loPI   C3A 9513   3.683   5.892   9.128 -0.0841  0.4192  0.3726
  595loPI   C4A 9514   3.705   5.787   8.635  0.1193  0.3604 -0.2268
  595loPI   C5A 9515   3.820   5.840   8.225  0.0033  0.1758 -0.0591
  595loPI   C6A 9516   4.045   6.186   8.170 -0.2123 -0.2812  0.2318
  595loPI   C1B 9517   4.213   5.764   9.994  0.0670  0.3562 -0.0914
  595loPI   C2B 9518   4.144   5.695   9.607 -0.0133 -0.2870 -0.3105
  595loPI   C3B 9519   4.218   5.808   9.107  0.0115  0.3847  0.2364
  595loPI   C4B 9520   4.229   5.836   8.644 -0.0587  0.1157 -0.0534
  596loPI    C1 9521   1.203  11.293  10.000 -0.1045  0.2155 -0.0286
  596loPI    C2 9522   1.397  11.309  10.349  0.0642  0.0762 -0.1141
  596loPI    C3 9523   1.057  11.100  10.318  0.0440  0.0966 -0.0320
  596loPI   PO4 9524   1.547  11.332   9.812  0.2956  0.1509 -0.1681
  596loPI   GL1 9525   1.568  11.410   9.418 -0.3140  0.1783  0.1281
  596loPI   GL2 9526   1.259  11.523   9.268 -0.0423  0.0660 -0.0550
  596loPI   C1A 9527   1.616  11.282   9.030  0.1674  0.1189  0.0201
  596loPI   C2A 9528   1.564  11.297   8.610  0.2785 -0.1985 -0.0525
  596loPI   C3A 9529   1.439  11.339   8.108 -0.0826 -0.1210 -0.2075
  596loPI   C4A 9530   1.294  11.467   7.633 -0.3996  0.1849  0.0682
  596loPI   C5A 9531   1.007  11.610   7.388  0.2374 -0.0504  0.0601
  596loPI   C6A 9532   0.828  11.465   6.908 -0.0054 -0.0765  0.3310
  596loPI   C1B 9533   1.144  11.475   8.747  0.0165 -0.1463  0.1732
  596loPI   C2B 9534   0.951  11.354   8.438 -0.4360 -0.3911 -0.1879
  596loPI   C3B 9535   1.035  11.039   8.248  0.0535 -0.0341  0.2517
  596loPI   C4B 9536   0.915  10.794   7.849  0.2303  0.1873 -0.2079
  597loPI    C1 9537   0.538   0.561  11.214  0.2107  0.0566  0.0950
  597loPI    C2 9538   0.751   0.261  11.370  0.0279 -0.2634 -0.2547
  597loPI    C3 9539   0.371   0.201  11.262 -0.0451  0.1275 -0.2294
  597loPI   PO4 9540   0.662   0.697  10.972 -0.1109  0.0820  0.0397
  597loPI   GL1 9541   0.615   0.776  10.506  0.0235 -0.1079 -0.2408
  597loPI   GL2 9542   0.523   0.525  10.484  0.0410  0.1715  0.3123
  597loPI   C1A 9543   0.621   1.128  10.172  0.4229  0.1447 -0.0186
  597loPI   C2A 9544   0.696   1.192   9.701  0.5177  0.1046  0.0122
  597loPI   C3A 9545   0.694   1.163   9.244  0.0988 -0.1923 -0.0829
  597loPI   C4A 9546   0.619   1.116   8.808 -0.0087  0.2412 -0.1525
  597loPI   C5A 9547   0.486   1.396   8.479  0.0818  0.0067 -0.0392
  597loPI   C6A 9548   0.661   1.646   8.046  0.2097 -0.2309 -0.1744
  597loPI   C1B 9549   0.376   0.654  10.038  0.0884 -0.0866 -0.2001
  597loPI   C2B 9550   0.364   0.762   9.590 -0.0558 -0.0695  0.0117
  597loPI   C3B 9551   0.415   0.676   9.167 -0.0939  0.1200  0.1674
  597loPI   C4B 9552   0.265   0.767   8.779 -0.0629  0.2897 -0.0988
  598loPI    C1 9553   2.611   0.105  11.047  0.1995 -0.0201 -0.2432
  598loPI    C2 9554   2.789   0.193  11.395 -0.0266 -0.3623 -0.0354
  598loPI    C3 9555   3.006   0.057  11.088  0.1688 -0.0939 -0.0189
  598loPI   PO4 9556   2.458   0.292  10.863 -0.1929 -0.1904  0.1399
  598loPI   GL1 9557   2.512   0.463  10.495 -0.0617  0.1203  0.1408
  598loPI   GL2 9558   2.542   0.803  10.416  0.0783 -0.2528 -0.1398
  598loPI   C1A 9559   2.399   0.575  10.060 -0.0276  0.0648  0.4980
  598loPI   C2A 9560   2.395   0.655   9.647  0.2581  0.3344  0.0853
  598loPI   C3A 9561   2.455   0.628   9.228  0.0281  0.1171  0.1815
  598loPI   C4A 9562   2.441   0.545   8.813  0.1724  0.0658 -0.0591
  598loPI   C5A 9563   2.517   0.711   8.370 -0.1947 -0.1241  0.1591
  598loPI   C6A 9564   2.654   0.750   7.933 -0.2361  0.2461  0.1511
  598loPI   C1B 9565   2.678   0.989  10.086 -0.0803  0.2747 -0.1206
  598loPI   C2B 9566   2.700   1.039   9.566  0.2665  0.0251 -0.0963
  598loPI   C3B 9567   2.782   0.970   9.169 -0.0495 -0.0361  0.2456
  598loPI   C4B 9568   2.740   1.091   8.665 -0.0127  0.1703 -0.2683
  599loPI    C1 9569   1.702  14.749  10.736  0.0532  0.1127  0.1410
  599loPI    C2 9570   1.701  14.392  10.917 -0.3267  0.0285 -0.0167
  599loPI    C3 9571   1.515  14.703  11.086  0.0601  0.1747  0.1529
  599loPI   PO4 9572   1.731  14.735  10.531  0.0193 -0.0442  0.0630
  599loPI   GL1 9573   1.657  14.996  10.078 -0.1231 -0.0278  0.1834
  599loPI   GL2 9574   1.477  15.227   9.938 -0.0778  0.1519  0.0632
  599loPI   C1A 9575   1.699  14.818   9.689  0.0073  0.0679  0.1164
  599loPI   C2A 9576   1.415  14.536   9.553  0.0307  0.0974  0.1153
  599loPI   C3A 9577   1.370  14.456   9.226  0.0921 -0.2026 -0.0178
  599loPI   C4A 9578   1.422  14.506   8.736 -0.0126 -0.0097 -0.0387
  599loPI   C5A 9579   1.372  14.554   8.305 -0.2183 -0.0327  0.2752
  599loPI   C6A 9580   1.662  14.503   7.934 -0.1719  0.2678 -0.2723
  599loPI   C1B 9581   1.538  15.286   9.476  0.1231  0.0062  0.0860
  599loPI   C2B 9582   1.500  15.305   9.114  0.0577 -0.0191  0.2229
  599loPI   C3B 9583   1.469  15.438   8.646  0.0817  0.1741 -0.0937
  599loPI   C4B 9584   1.588  15.432   8.274 -0.1224 -0.2153 -0.1595
  600loPI    C1 9585  16.770   0.187  11.188  0.1269 -0.0178  0.0576
  600loPI    C2 9586  16.506   0.474  11.097  0.0570 -0.1467 -0.1548
  600loPI    C3 9587  16.787   0.541  11.374 -0.1175  0.0364 -0.0188
  600loPI   PO4 9588  16.804  -0.001  10.927 -0.0688 -0.0561 -0.0050
  600loPI   GL1 9589  16.968   0.117  10.553 -0.0774  0.1033  0.0586
  600loPI   GL2 9590  17.123  -0.141  10.414 -0.0358 -0.2878  0.0893
  600loPI   C1A 9591  16.925   0.397  10.290  0.2342  0.0982 -0.0466
  600loPI   C2A 9592  16.909   0.430   9.882  0.0174 -0.1001 -0.0059
  600loPI   C3A 9593  16.749   0.391   9.435 -0.0852  0.3075  0.0949
  600loPI   C4A 9594  16.777   0.339   9.027  0.0807  0.2898  0.0285
  600loPI   C5A 9595  16.712   0.198   8.711  0.0794  0.1721 -0.0029
  600loPI   C6A 9596  16.543  -0.171   8.698 -0.2011 -0.1058  0.1208
  600loPI   C1B 9597  17.156  -0.214  10.046  0.1154  0.0138 -0.1435
  600loPI   C2B 9598  17.169  -0.084   9.696  0.1539 -0.0206  0.2442
  600loPI   C3B 9599  17.079   0.019   9.260 -0.2092 -0.1080  0.2366
  600loPI   C4B 9600  17.042  -0.147   8.864 -0.1962 -0.0918  0.1078
  601loPI    C1 9601   5.218  14.458  11.168 -0.0489 -0.0027 -0.0910
  601loPI    C2 9602   5.613  14.517  11.196 -0.0877  0.2875 -0.1283
  601loPI    C3 9603   5.371  14.630  11.494 -0.1442  0.1152 -0.1078
  601loPI   PO4 9604   5.134  14.543  10.946  0.1216 -0.1365  0.0780
  601loPI   GL1 9605   5.100  14.609  10.483  0.0323  0.0359 -0.1920
  601loPI   GL2 9606   4.996  14.472  10.324 -0.0600 -0.1801  0.2068
  601loPI   C1A 9607   5.464  14.560  10.125  0.0289  0.1971 -0.5009
  601loPI   C2A 9608   5.331  14.568   9.721  0.0439 -0.0746 -0.0204
  601loPI   C3A 9609   5.348  14.635   9.247 -0.0253 -0.1279  0.2491
  601loPI   C4A 9610   5.300  14.624   8.839  0.0670  0.1520 -0.2463
  601loPI   C5A 9611   5.326  14.664   8.394  0.2971 -0.0706 -0.3294
  601loPI   C6A 9612   5.720  14.850   8.166  0.1323 -0.1249  0.0116
  601loPI   C1B 9613   4.858  14.676   9.905  0.0560  0.1784  0.1517
  601loPI   C2B 9614   4.860  14.587   9.475  0.1097 -0.2089  0.3878
  601loPI   C3B 9615   4.851  14.627   9.093  0.2922 -0.2319  0.0907
  601loPI   C4B 9616   4.830  14.704   8.605 -0.0905 -0.1608  0.2607
  602loPI    C1 9617   0.334  15.409  11.129  0.0599 -0.1954  0.0023
  602loPI    C2 9618   0.402  15.110  11.387  0.1689 -0.0551  0.1383
  602loPI    C3 9619   0.383  15.488  11.518 -0.2089 -0.0222  0.0038
  602loPI   PO4 9620   0.390  15.301  10.841  0.2046  0.0686 -0.0473
  602loPI   GL1 9621   0.373  15.428  10.496 -0.1434 -0.0446 -0.0913
  602loPI   GL2 9622   0.424  15.250  10.243  0.1313 -0.4229 -0.2913
  602loPI   C1A 9623   0.294  15.773  10.153 -0.1322 -0.0017  0.0241
  602loPI   C2A 9624   0.166  15.810   9.772 -0.1569 -0.3064 -0.1596
  602loPI   C3A 9625   0.247  15.815   9.339 -0.2388 -0.1951  0.1007
  602loPI   C4A 9626   0.236  15.864   8.953  0.1340  0.1132  0.1144
  602loPI   C5A 9627   0.185  15.953   8.526 -0.1243 -0.0517  0.1202
  602loPI   C6A 9628  -0.036  16.084   8.149 -0.2517 -0.0292 -0.0688
  602loPI   C1B 9629   0.429  15.392   9.884 -0.1485  0.0971  0.0402
  602loPI   C2B 9630   0.524  15.409   9.518  0.3439 -0.0282  0.4288
  602loPI   C3B 9631   0.474  15.454   9.016 -0.2631 -0.2871  0.2745
  602loPI   C4B 9632   0.428  15.537   8.595  0.5124 -0.1343 -0.1902
  603loPI    C1 9633  13.506   1.561  11.175  0.0171  0.0448 -0.0168
  603loPI    C2 9634  13.700   1.215  11.124  0.0479  0.0817 -0.1517
  603loPI    C3 9635  13.673   1.376  11.489 -0.1258 -0.1560 -0.0569
  603loPI   PO4 9636  13.382   1.638  10.945  0.0427 -0.2990 -0.0306
  603loPI   GL1 9637  13.576   1.802  10.611 -0.2947 -0.2427 -0.0273
  603loPI   GL2 9638  13.762   1.483  10.696  0.0486  0.0564  0.1191
  603loPI   C1A 9639  13.528   1.977  10.299  0.1598  0.3042  0.2665
  603loPI   C2A 9640  13.502   1.846   9.941 -0.2794  0.0108 -0.0138
  603loPI   C3A 9641  13.471   1.862   9.428 -0.2749  0.0535 -0.1508
  603loPI   C4A 9642  13.560   1.844   8.957 -0.3301  0.0859  0.0171
  603loPI   C5A 9643  13.393   1.760   8.591 -0.3041  0.3853 -0.3355
  603loPI   C6A 9644  13.212   1.476   8.290  0.2732  0.1623 -0.1461
  603loPI   C1B 9645  13.726   1.441  10.295 -0.2721 -0.1212  0.2066
  603loPI   C2B 9646  13.782   1.394   9.863  0.0255 -0.0702  0.2380
  603loPI   C3B 9647  13.707   1.404   9.477 -0.0058 -0.0630  0.2171
  603loPI   C4B 9648  13.758   1.412   8.965  0.1002 -0.2869 -0.0728
  604loPI    C1 9649   4.346   3.080  11.502  0.1560  0.1600 -0.0321
  604loPI    C2 9650   4.318   2.708  11.649  0.2926  0.1504 -0.0298
  604loPI    C3 9651   4.281   3.023  11.893 -0.2429  0.1472 -0.0957
  604loPI   PO4 9652   4.512   3.066  11.318 -0.3056 -0.0215 -0.0138
  604loPI   GL1 9653   4.490   2.992  10.869  0.1062 -0.0858  0.0225
  604loPI   GL2 9654   4.203   3.048  10.759  0.1646  0.1838 -0.0680
  604loPI   C1A 9655   4.671   3.160  10.498  0.0453 -0.0806  0.1341
  604loPI   C2A 9656   4.621   3.213   9.997  0.2268  0.0471 -0.0640
  604loPI   C3A 9657   4.654   3.190   9.531  0.0812  0.2745  0.2009
  604loPI   C4A 9658   4.605   3.148   9.122 -0.0225 -0.0161 -0.0138
  604loPI   C5A 9659   4.772   3.028   8.645  0.2306  0.1532 -0.3722
  604loPI   C6A 9660   4.980   2.609   8.443 -0.0144 -0.0996  0.5731
  604loPI   C1B 9661   4.175   3.128  10.352 -0.2343 -0.0726  0.1475
  604loPI   C2B 9662   4.164   3.135   9.906 -0.0456 -0.0479 -0.1128
  604loPI   C3B 9663   4.160   3.226   9.557  0.0483  0.2456 -0.2391
  604loPI   C4B 9664   4.057   3.076   9.079  0.2627  0.0343  0.1828
  605loPI    C1 9665   7.114  12.113  10.913  0.0835 -0.0898  0.1209
  605loPI    C2 9666   6.812  11.890  11.052 -0.0321 -0.0729 -0.1003
  605loPI    C3 9667   6.837  12.276  11.151  0.0430 -0.1283  0.1004
  605loPI   PO4 9668   7.164  12.045  10.649  0.1746  0.1504 -0.1713
  605loPI   GL1 9669   7.012  12.030  10.255 -0.0409 -0.0065 -0.0962
  605loPI   GL2 9670   6.863  12.312  10.227  0.2659 -0.0224  0.1471
  605loPI   C1A 9671   7.224  11.929   9.924 -0.0356  0.3587 -0.1377
  605loPI   C2A 9672   7.249  11.751   9.571 -0.3607 -0.1320  0.2843
  605loPI   C3A 9673   7.133  11.810   9.223 -0.2448  0.1849  0.3645
  605loPI   C4A 9674   7.143  11.854   8.684 -0.0993 -0.1127  0.1584
  605loPI   C5A 9675   6.931  11.927   8.364 -0.1305 -0.2143 -0.0366
  605loPI   C6A 9676   6.748  12.149   8.107  0.0061  0.0460 -0.4485
  605loPI   C1B 9677   6.934  12.306   9.720 -0.1046 -0.0563  0.3604
  605loPI   C2B 9678   7.025  12.252   9.345  0.0543 -0.3739  0.0017
  605loPI   C3B 9679   6.936  12.323   8.967 -0.2435  0.1774 -0.2556
  605loPI   C4B 9680   6.900  12.370   8.551 -0.0636 -0.4046 -0.3099
  606loPI    C1 9681   9.939   5.875  10.997 -0.1116 -0.0293 -0.0450
  606loPI    C2 9682  10.148   5.535  10.980  0.0510  0.0722 -0.1017
  606loPI    C3 9683   9.799   5.546  11.175  0.1532 -0.0701  0.0923
  606loPI   PO4 9684   9.930   5.912  10.728 -0.1667 -0.0556  0.0507
  606loPI   GL1 9685  10.164   6.060  10.438  0.0960  0.1700 -0.1479
  606loPI   GL2 9686  10.458   6.266  10.433 -0.1852 -0.2267  0.1118
  606loPI   C1A 9687  10.356   6.038   9.967 -0.0950 -0.3039  0.2699
  606loPI   C2A 9688  10.305   6.124   9.533  0.2220 -0.0735 -0.0141
  606loPI   C3A 9689  10.372   6.124   9.092 -0.1465 -0.1982  0.2133
  606loPI   C4A 9690  10.317   6.153   8.605  0.3206  0.4399  0.1220
  606loPI   C5A 9691  10.045   5.819   8.357  0.2019  0.3915 -0.5477
  606loPI   C6A 9692   9.624   5.574   8.186  0.2130 -0.1274  0.2805
  606loPI   C1B 9693  10.681   6.465  10.117 -0.0905 -0.2727  0.0923
  606loPI   C2B 9694  10.636   6.491   9.737 -0.1827 -0.0719 -0.0458
  606loPI   C3B 9695  10.645   6.438   9.372 -0.0857  0.0327 -0.0627
  606loPI   C4B 9696  10.529   6.591   8.906 -0.0757  0.0078 -0.1250
  607loPI    C1 9697  14.010  13.348  10.902  0.1161 -0.1325 -0.1014
  607loPI    C2 9698  13.673  13.273  10.701  0.0921  0.2977 -0.2333
  607loPI    C3 9699  13.686  13.218  11.097 -0.0356 -0.0107 -0.2687
  607loPI   PO4 9700  14.207  13.403  10.697 -0.3568 -0.0822  0.0643
  607loPI   GL1 9701  14.413  13.559  10.338 -0.2161  0.0394 -0.1362
  607loPI   GL2 9702  14.726  13.476  10.298 -0.0060 -0.1701  0.3277
  607loPI   C1A 9703  14.273  13.379   9.891  0.1067  0.0670 -0.2027
  607loPI   C2A 9704  14.302  13.419   9.506  0.3485 -0.1202  0.0671
  607loPI   C3A 9705  14.327  13.350   9.085 -0.3288 -0.4393 -0.1446
  607loPI   C4A 9706  14.375  13.312   8.661 -0.0632  0.1415 -0.0463
  607loPI   C5A 9707  14.571  13.489   8.260 -0.0532 -0.0347 -0.0629
  607loPI   C6A 9708  14.575  13.586   7.833 -0.0368  0.0216 -0.1465
  607loPI   C1B 9709  14.812  13.421   9.862 -0.1862  0.3363 -0.1397
  607loPI   C2B 9710  14.740  13.410   9.366 -0.1022  0.3026 -0.1082
  607loPI   C3B 9711  14.839  13.373   8.924  0.1723  0.2404  0.0154
  607loPI   C4B 9712  14.928  13.218   8.429  0.1361  0.0575 -0.0541
  608loPI    C1 9713  11.056  17.163  10.641  0.1144  0.0271  0.2048
  608loPI    C2 9714  10.977  16.898  10.352  0.1338  0.2289  0.0117
  608loPI    C3 9715  10.756  16.902  10.685 -0.0082  0.1165 -0.0799
  608loPI   PO4 9716  11.006  17.339  10.596 -0.1782 -0.4005  0.2234
  608loPI   GL1 9717  10.915  17.617  10.263 -0.1391  0.0590 -0.1931
  608loPI   GL2 9718  10.639  17.676  10.199 -0.0105 -0.1282 -0.0951
  608loPI   C1A 9719  11.101  17.606   9.851  0.2609 -0.2848  0.0901
  608loPI   C2A 9720  11.140  17.473   9.409  0.1030 -0.0062 -0.2092
  608loPI   C3A 9721  11.082  17.610   8.980 -0.1674  0.3432 -0.2839
  608loPI   C4A 9722  10.969  17.556   8.570 -0.1424 -0.1669 -0.0462
  608loPI   C5A 9723  11.020  17.324   8.195  0.0913  0.1079  0.0885
  608loPI   C6A 9724  10.999  17.398   7.752 -0.0131  0.2090 -0.0504
  608loPI   C1B 9725  10.590  17.553   9.795 -0.0576 -0.0995  0.3204
  608loPI   C2B 9726  10.579  17.472   9.314 -0.0255 -0.1328  0.3159
  608loPI   C3B 9727  10.511  17.626   8.907 -0.0865  0.0501 -0.1142
  608loPI   C4B 9728  10.503  17.796   8.578  0.1407 -0.0666  0.0550
  609POPI    C1 9729  17.613   5.381  11.161 -0.1101  0.1821 -0.0560
  609POPI    C2 9730  17.781   5.677  11.372  0.1270  0.0739 -0.0894
  609POPI    C3 9731  17.705   5.325  11.546 -0.1752  0.1585 -0.0438
  609POPI   PO4 9732  17.705   5.392  10.947  0.0203  0.3594 -0.1519
  609POPI   GL1 9733  17.789   5.545  10.550 -0.2220 -0.0675 -0.0517
  609POPI   GL2 9734  17.965   5.919  10.399  0.0172 -0.0630  0.2555
  609POPI   C1A 9735  17.605   5.598  10.132  0.1812 -0.0308  0.2042
  609POPI   D2A 9736  17.609   5.562   9.623 -0.2084  0.0975  0.1285
  609POPI   C3A 9737  17.683   5.558   9.187  0.4219 -0.0208 -0.3025
  609POPI   C4A 9738  17.563   5.419   8.638  0.0840 -0.1176  0.1235
  609POPI   C1B 9739  17.939   5.916   9.918 -0.1449 -0.1344 -0.0704
  609POPI   C2B 9740  17.955   6.026   9.474 -0.2252  0.2265 -0.1614
  609POPI   C3B 9741  17.965   5.985   9.049  0.0258  0.1712 -0.0216
  609POPI   C4B 9742  17.760   5.873   8.666 -0.2365 -0.0744 -0.2050
  610POPI    C1 9743   4.707  17.243  11.395  0.2923 -0.0828 -0.1008
  610POPI    C2 9744   4.674  17.019  11.724 -0.1736 -0.0065 -0.0894
  610POPI    C3 9745   4.854  17.375  11.742  0.3027 -0.2414 -0.0440
  610POPI   PO4 9746   4.733  17.085  11.227 -0.1197 -0.0617  0.2887
  610POPI   GL1 9747   4.863  16.996  10.777  0.5722 -0.0743 -0.1212
  610POPI   GL2 9748   4.772  17.333  10.816  0.0715  0.0577  0.0408
  610POPI   C1A 9749   4.655  16.873  10.453 -0.3530  0.1385 -0.3187
  610POPI   D2A 9750   4.675  16.867  10.064  0.1482 -0.2447  0.1976
  610POPI   C3A 9751   4.616  16.787   9.578  0.1625  0.0808 -0.1723
  610POPI   C4A 9752   4.628  16.893   9.135 -0.1244 -0.1130  0.0228
  610POPI   C1B 9753   4.532  17.311  10.423  0.1036 -0.3156  0.1810
  610POPI   C2B 9754   4.419  17.296  10.056 -0.1652 -0.0732  0.1232
  610POPI   C3B 9755   4.468  17.239   9.596  0.0752 -0.3462 -0.3584
  610POPI   C4B 9756   4.381  17.327   9.322  0.2684 -0.0144  0.1359
  611POPI    C1 9757   3.420   9.017  10.877  0.2241  0.1772 -0.1283
  611POPI    C2 9758   3.586   9.381  10.882 -0.0602  0.3084  0.0165
  611POPI    C3 9759   3.273   9.301  11.117  0.1338 -0.0962  0.1467
  611POPI   PO4 9760   3.451   8.886  10.623  0.1270 -0.1629 -0.3859
  611POPI   GL1 9761   3.594   8.854  10.273 -0.0942  0.0074 -0.1570
  611POPI   GL2 9762   3.673   8.675  10.167  0.1421 -0.3116  0.0278
  611POPI   C1A 9763   3.497   8.946   9.820 -0.0162 -0.1416  0.1339
  611POPI   D2A 9764   3.665   8.988   9.409  0.0881  0.1999  0.0312
  611POPI   C3A 9765   3.575   8.927   9.034 -0.0915 -0.0866  0.1718
  611POPI   C4A 9766   3.559   8.802   8.617  0.2975  0.2055  0.0280
  611POPI   C1B 9767   3.837   8.495   9.801  0.4532  0.3259  0.0563
  611POPI   C2B 9768   3.740   8.479   9.375  0.0062 -0.1627  0.1376
  611POPI   C3B 9769   3.764   8.414   8.950 -0.1255 -0.1250 -0.2340
  611POPI   C4B 9770   3.837   8.387   8.504 -0.0072 -0.0501 -0.1911
  612POPI    C1 9771   5.643  10.073  10.703  0.1489 -0.1948  0.1476
  612POPI    C2 9772   5.778  10.171  11.067 -0.0020  0.2119  0.0996
  612POPI    C3 9773   5.436   9.967  11.029  0.1185 -0.0102  0.1898
  612POPI   PO4 9774   5.800   9.996  10.586 -0.0564 -0.0285 -0.1291
  612POPI   GL1 9775   6.111  10.014  10.201  0.2024 -0.2873  0.0274
  612POPI   GL2 9776   6.158   9.742  10.388 -0.0155 -0.0142 -0.0538
  612POPI   C1A 9777   6.065  10.100   9.762  0.0999 -0.0290 -0.2700
  612POPI   D2A 9778   6.038  10.112   9.370 -0.2135 -0.1302  0.0766
  612POPI   C3A 9779   6.052  10.121   8.836  0.0965 -0.0760  0.0120
  612POPI   C4A 9780   6.043  10.043   8.407  0.0930 -0.1083  0.2293
  612POPI   C1B 9781   6.347   9.649  10.061 -0.0533 -0.1536  0.1257
  612POPI   C2B 9782   6.324   9.603   9.665 -0.0679 -0.1395  0.0718
  612POPI   C3B 9783   6.249   9.644   9.205 -0.2431 -0.0645  0.0719
  612POPI   C4B 9784   6.226   9.663   8.698 -0.1621  0.0445 -0.1372
  613POPI    C1 9785  15.897   2.535  11.666  0.2064 -0.0262 -0.0008
  613POPI    C2 9786  15.842   2.813  11.947  0.0837  0.0187 -0.0682
  613POPI    C3 9787  15.759   2.430  12.026  0.0289  0.0343 -0.0499
  613POPI   PO4 9788  15.926   2.576  11.441  0.0375  0.0502  0.0654
  613POPI   GL1 9789  16.054   2.479  10.981  0.0384 -0.1742 -0.0873
  613POPI   GL2 9790  16.283   2.713  10.849 -0.1915  0.2533 -0.0833
  613POPI   C1A 9791  16.016   2.277  10.642 -0.1441 -0.0404 -0.1489
  613POPI   D2A 9792  15.824   2.152  10.251 -0.2130  0.1777 -0.0233
  613POPI   C3A 9793  15.839   2.214   9.876 -0.0799  0.0966 -0.2714
  613POPI   C4A 9794  15.863   2.158   9.349  0.2810  0.1109 -0.1197
  613POPI   C1B 9795  16.182   2.615  10.358 -0.0806  0.3905 -0.1778
  613POPI   C2B 9796  16.147   2.590   9.909 -0.2543 -0.0326 -0.1229
  613POPI   C3B 9797  16.141   2.653   9.479  0.1121  0.0322  0.1390
  613POPI   C4B 9798  16.011   2.523   8.982  0.1165  0.1192 -0.1008
  614POPI    C1 9799  10.640   0.469  10.963 -0.0663 -0.0186 -0.0464
  614POPI    C2 9800  10.372   0.692  11.158 -0.0092 -0.0666  0.0880
  614POPI    C3 9801  10.630   0.466  11.363  0.0758 -0.0890 -0.0429
  614POPI   PO4 9802  10.734   0.640  10.769 -0.0029  0.0563 -0.1956
  614POPI   GL1 9803  10.544   0.850  10.405  0.1010 -0.2883 -0.1810
  614POPI   GL2 9804  10.751   1.131  10.263  0.1972  0.2752  0.0562
  614POPI   C1A 9805  10.645   0.684   9.963 -0.1417 -0.1660  0.0156
  614POPI   D2A 9806  10.612   0.494   9.545  0.1711  0.1127  0.0746
  614POPI   C3A 9807  10.564   0.612   9.151 -0.2262 -0.3115 -0.1710
  614POPI   C4A 9808  10.602   0.636   8.789 -0.2028  0.1630  0.2802
  614POPI   C1B 9809  10.867   1.106   9.868  0.0473 -0.3598 -0.0889
  614POPI   C2B 9810  10.848   1.000   9.405 -0.0942 -0.0408 -0.0205
  614POPI   C3B 9811  10.844   1.156   8.990  0.0338 -0.0564 -0.0332
  614POPI   C4B 9812  10.852   1.067   8.501  0.3141  0.0790 -0.4037
  615POPI    C1 9813  15.293   0.654  11.200 -0.2265  0.0131  0.1232
  615POPI    C2 9814  15.553   0.377  11.325 -0.0679  0.0062 -0.2110
  615POPI    C3 9815  15.162   0.292  11.308 -0.0526 -0.1019 -0.0466
  615POPI   PO4 9816  15.330   0.723  10.995  0.3367 -0.0262 -0.1646
  615POPI   GL1 9817  15.569   0.793  10.696  0.0009  0.0326 -0.2032
  615POPI   GL2 9818  15.727   0.999  10.667  0.0424  0.0246  0.0077
  615POPI   C1A 9819  15.513   0.826  10.257  0.1921 -0.1173  0.1284
  615POPI   D2A 9820  15.435   0.970   9.924 -0.2980  0.0655 -0.0397
  615POPI   C3A 9821  15.573   0.940   9.650  0.2777 -0.1812 -0.0049
  615POPI   C4A 9822  15.507   0.796   9.275  0.1950  0.0662 -0.2088
  615POPI   C1B 9823  15.835   1.298  10.255 -0.0592  0.0936  0.0972
  615POPI   C2B 9824  15.799   1.381   9.871  0.1531 -0.0869  0.1129
  615POPI   C3B 9825  15.778   1.328   9.467  0.0534 -0.2229  0.0502
  615POPI   C4B 9826  15.843   1.222   9.002 -0.1126  0.1354 -0.4318
  616POPI    C1 9827   7.097  16.840  10.762 -0.0576 -0.0705  0.1029
  616POPI    C2 9828   6.953  17.165  10.944  0.0284  0.1284 -0.1767
  616POPI    C3 9829   7.283  16.987  11.084 -0.0496  0.1274  0.0092
  616POPI   PO4 9830   7.095  16.866  10.499  0.1526  0.1466 -0.0526
  616POPI   GL1 9831   6.914  16.966  10.192 -0.1916 -0.4011 -0.0932
  616POPI   GL2 9832   7.052  17.254   9.999 -0.3026 -0.1411  0.1055
  616POPI   C1A 9833   6.867  16.786   9.775  0.0120  0.1287 -0.0343
  616POPI   D2A 9834   6.662  16.823   9.357  0.1705 -0.3616  0.1740
  616POPI   C3A 9835   6.855  16.756   8.981  0.2286  0.1554 -0.1278
  616POPI   C4A 9836   6.904  16.750   8.450  0.1351 -0.0112 -0.0677
  616POPI   C1B 9837   7.028  17.285   9.571 -0.1700  0.0167  0.0866
  616POPI   C2B 9838   7.030  17.218   9.204 -0.1082 -0.1971 -0.1051
  616POPI   C3B 9839   7.164  17.200   8.707 -0.1156 -0.0111 -0.0005
  616POPI   C4B 9840   7.083  17.213   8.309 -0.1156  0.0530 -0.3590
  617POPI    C1 9841   9.836   0.997  11.182 -0.0083 -0.0908  0.0626
  617POPI    C2 9842   9.806   1.233  11.504  0.0187  0.2143 -0.1545
  617POPI    C3 9843  10.033   0.904  11.518 -0.0905  0.1490  0.1797
  617POPI   PO4 9844   9.872   1.184  11.011  0.0151 -0.2132 -0.1705
  617POPI   GL1 9845   9.829   1.388  10.688  0.1147 -0.0221 -0.1745
  617POPI   GL2 9846   9.522   1.628  10.646 -0.2820 -0.5121  0.2093
  617POPI   C1A 9847   9.662   1.194  10.373 -0.0625 -0.0741 -0.2693
  617POPI   D2A 9848   9.696   1.350   9.891 -0.2903 -0.1135 -0.0337
  617POPI   C3A 9849   9.637   1.312   9.480  0.1058  0.0450 -0.1286
  617POPI   C4A 9850   9.771   1.128   9.076 -0.1553  0.3081 -0.2765
  617POPI   C1B 9851   9.434   1.657  10.242 -0.1827 -0.0958 -0.0915
  617POPI   C2B 9852   9.365   1.688   9.806 -0.2063 -0.1938 -0.1311
  617POPI   C3B 9853   9.173   1.645   9.404 -0.1411  0.1045  0.2033
  617POPI   C4B 9854   9.027   1.736   8.998 -0.0976 -0.0289 -0.1079
  618POPI    C1 9855   8.863  15.214  10.758  0.0088  0.1841  0.1699
  618POPI    C2 9856   9.245  15.216  10.877 -0.0040  0.0630  0.2140
  618POPI    C3 9857   9.019  14.890  10.931 -0.0968  0.1131  0.1335
  618POPI   PO4 9858   8.881  15.300  10.516 -0.2161  0.1165 -0.3023
  618POPI   GL1 9859   8.988  15.448  10.021  0.1405  0.1516 -0.3143
  618POPI   GL2 9860   8.899  15.814  10.053 -0.0655 -0.0639  0.1665
  618POPI   C1A 9861   9.057  15.326   9.678  0.0330  0.0052  0.2195
  618POPI   D2A 9862   9.001  15.321   9.202 -0.0306  0.0774  0.1998
  618POPI   C3A 9863   9.151  15.225   8.852 -0.0832  0.0345  0.1861
  618POPI   C4A 9864   9.229  15.378   8.446  0.4129  0.3516 -0.0676
  618POPI   C1B 9865   8.866  15.864   9.586 -0.0345  0.0492 -0.2191
  618POPI   C2B 9866   8.795  15.734   9.114  0.0469  0.0612 -0.4131
  618POPI   C3B 9867   8.610  15.542   8.685 -0.1907 -0.0993  0.2420
  618POPI   C4B 9868   8.824  15.597   8.344  0.1357 -0.1246 -0.0817
  619POPI    C1 9869   3.092  10.681  10.301 -0.0426 -0.0478 -0.0066
  619POPI    C2 9870   2.714  10.552  10.316 -0.0923  0.0740 -0.1822
  619POPI    C3 9871   2.802  10.925  10.430 -0.0010 -0.0026  0.0019
  619POPI   PO4 9872   3.175  10.572  10.017  0.0939 -0.0359  0.1464
  619POPI   GL1 9873   3.118  10.608   9.607  0.0434  0.1554 -0.0064
  619POPI   GL2 9874   3.347  10.365   9.583 -0.3347 -0.0531 -0.0482
  619POPI   C1A 9875   3.279  10.774   9.231  0.0745  0.1041 -0.1332
  619POPI   D2A 9876   3.287  10.754   8.785 -0.3020  0.3428 -0.0087
  619POPI   C3A 9877   3.281  10.310   8.566  0.0364 -0.0214  0.0438
  619POPI   C4A 9878   3.592  10.279   8.190  0.0057  0.1645  0.2142
  619POPI   C1B 9879   3.216  10.312   9.108 -0.0353  0.1807  0.2246
  619POPI   C2B 9880   2.807  10.225   8.741 -0.0889 -0.0334  0.1155
  619POPI   C3B 9881   2.489  10.238   8.416  0.2566  0.0579  0.0312
  619POPI   C4B 9882   2.268   9.980   8.131 -0.1587  0.0060  0.0023
  620POPI    C1 9883  15.557  14.053  10.862  0.1707 -0.0072 -0.0076
  620POPI    C2 9884  15.378  13.800  11.115  0.0733 -0.2673 -0.3293
  620POPI    C3 9885  15.776  13.841  11.121  0.0506 -0.0558  0.0549
  620POPI   PO4 9886  15.398  13.978  10.609 -0.0741  0.3211  0.1528
  620POPI   GL1 9887  15.386  14.216  10.300  0.2642  0.1887  0.0774
  620POPI   GL2 9888  15.061  14.401  10.306  0.2875 -0.0913 -0.5183
  620POPI   C1A 9889  15.431  14.274   9.842  0.0082 -0.0422 -0.3828
  620POPI   D2A 9890  15.512  14.196   9.406 -0.1041  0.5281 -0.1282
  620POPI   C3A 9891  15.480  14.188   8.981  0.0242  0.2533  0.0607
  620POPI   C4A 9892  15.576  14.189   8.530  0.0757 -0.1905  0.2267
  620POPI   C1B 9893  14.881  14.239   9.917  0.1015 -0.3739 -0.1007
  620POPI   C2B 9894  14.912  14.264   9.569 -0.2692  0.3669 -0.1548
  620POPI   C3B 9895  14.955  14.209   9.165 -0.1167  0.3333  0.1112
  620POPI   C4B 9896  14.991  14.248   8.775 -0.1569 -0.0417 -0.0858
  621POPI    C1 9897   5.974   4.861  11.022 -0.1732 -0.1140  0.0269
  621POPI    C2 9898   5.980   4.463  11.060  0.1119 -0.1203 -0.0609
  621POPI    C3 9899   6.259   4.685  11.240 -0.0352  0.0400 -0.0272
  621POPI   PO4 9900   5.953   4.959  10.750  0.0634  0.0414  0.0142
  621POPI   GL1 9901   5.880   4.913  10.335  0.0545  0.0040 -0.3672
  621POPI   GL2 9902   5.651   4.857  10.109 -0.2688 -0.0270 -0.0659
  621POPI   C1A 9903   6.009   5.251  10.072  0.1288  0.2235  0.2929
  621POPI   D2A 9904   5.994   5.318   9.677 -0.2489  0.1202 -0.0221
  621POPI   C3A 9905   6.051   5.281   9.236 -0.0702  0.0492  0.3604
  621POPI   C4A 9906   6.137   5.214   8.741 -0.0002  0.0273 -0.0641
  621POPI   C1B 9907   5.757   4.868   9.730  0.0088 -0.1685  0.0786
  621POPI   C2B 9908   5.817   4.860   9.294 -0.2705  0.0030 -0.2273
  621POPI   C3B 9909   5.732   4.932   8.897 -0.4811 -0.3248 -0.0726
  621POPI   C4B 9910   5.699   4.909   8.422 -0.0234  0.0803  0.1203
  622POPI    C1 9911   1.895  12.755  10.313  0.1309  0.1389  0.1116
  622POPI    C2 9912   2.268  12.825  10.438  0.0863  0.3446  0.1345
  622POPI    C3 9913   1.961  12.877  10.689  0.0526  0.0129  0.1670
  622POPI   PO4 9914   1.924  12.852  10.041  0.1253  0.0662  0.1541
  622POPI   GL1 9915   2.021  12.771   9.592 -0.1151 -0.0725  0.2193
  622POPI   GL2 9916   1.779  12.591   9.629 -0.1378 -0.0112  0.0169
  622POPI   C1A 9917   1.970  12.761   9.130 -0.0236  0.1294 -0.0536
  622POPI   D2A 9918   1.930  12.686   8.731 -0.0672 -0.2765 -0.1742
  622POPI   C3A 9919   1.810  12.724   8.338 -0.2261 -0.0679  0.1397
  622POPI   C4A 9920   1.849  12.554   7.914  0.0866  0.0457 -0.0279
  622POPI   C1B 9921   1.912  12.276   9.307  0.1912  0.0917  0.0651
  622POPI   C2B 9922   1.827  12.219   8.892  0.1120 -0.1553 -0.0453
  622POPI   C3B 9923   1.827  12.257   8.430  0.1620 -0.1861  0.2438
  622POPI   C4B 9924   2.075  12.149   8.135 -0.2465  0.0170  0.0947
  623POPI    C1 9925  14.585   8.085  11.012  0.2697 -0.1073 -0.1206
  623POPI    C2 9926  14.832   8.121  11.325 -0.0780 -0.0658  0.1541
  623POPI    C3 9927  14.537   7.850  11.332 -0.1906  0.0479 -0.0683
  623POPI   PO4 9928  14.655   8.025  10.739  0.0449  0.1925  0.1775
  623POPI   GL1 9929  14.750   7.830  10.397  0.1596  0.0843 -0.1119
  623POPI   GL2 9930  15.102   8.036  10.388  0.1524 -0.0992  0.0921
  623POPI   C1A 9931  14.744   7.968  10.038  0.0179  0.1036 -0.2487
  623POPI   D2A 9932  14.977   7.880   9.759  0.0305  0.0789 -0.1727
  623POPI   C3A 9933  14.910   8.004   9.376 -0.1452 -0.3410 -0.2276
  623POPI   C4A 9934  14.847   7.996   9.035  0.1331 -0.4489 -0.0400
  623POPI   C1B 9935  15.359   8.004  10.015 -0.1903  0.0914  0.1851
  623POPI   C2B 9936  15.442   7.965   9.575  0.0700  0.1928 -0.0823
  623POPI   C3B 9937  15.469   7.950   9.138  0.3247  0.0713 -0.1464
  623POPI   C4B 9938  15.381   7.861   8.717  0.0517 -0.0096  0.1806
  624POPI    C1 9939  16.451   2.656  11.404  0.1837 -0.0556 -0.2995
  624POPI    C2 9940  16.544   2.338  11.180  0.1825 -0.1991 -0.0985
  624POPI    C3 9941  16.627   2.338  11.571  0.2834  0.0932 -0.1181
  624POPI   PO4 9942  16.543   2.837  11.232 -0.0949 -0.2895 -0.2429
  624POPI   GL1 9943  16.807   2.857  10.838 -0.1087 -0.0035 -0.2101
  624POPI   GL2 9944  17.026   2.982  10.736  0.1206  0.1423 -0.1118
  624POPI   C1A 9945  16.659   2.609  10.541  0.1565  0.0443 -0.0654
  624POPI   D2A 9946  16.711   2.584  10.156 -0.2706  0.0605 -0.1156
  624POPI   C3A 9947  16.607   2.599   9.741 -0.1477 -0.0896 -0.3203
  624POPI   C4A 9948  16.586   2.598   9.262  0.1220  0.0725 -0.0000
  624POPI   C1B 9949  16.978   3.023  10.291 -0.1200  0.1690 -0.3051
  624POPI   C2B 9950  16.917   3.035   9.835 -0.0867  0.0146  0.2358
  624POPI   C3B 9951  16.875   2.950   9.371 -0.1129  0.0672  0.0148
  624POPI   C4B 9952  16.759   2.920   8.946 -0.0477  0.1353  0.1129
  625DPPI    C1 9953  13.653  14.261  10.865 -0.1245 -0.1143  0.2986
  625DPPI    C2 9954  13.605  14.546  11.142  0.0017  0.0881  0.1151
  625DPPI    C3 9955  13.342  14.512  10.842 -0.0380 -0.0188  0.1614
  625DPPI   PO4 9956  13.803  14.295  10.722  0.0236  0.0240 -0.1124
  625DPPI   GL1 9957  13.947  14.559  10.365  0.0963  0.2586  0.1740
  625DPPI   GL2 9958  14.201  14.659  10.579  0.1604  0.1020  0.3957
  625DPPI   C1A 9959  13.870  14.439   9.911  0.1888 -0.1395  0.0008
  625DPPI   C2A 9960  13.949  14.389   9.441  0.1421  0.2604  0.0356
  625DPPI   C3A 9961  13.898  14.346   8.932 -0.3229 -0.3135 -0.1664
  625DPPI   C4A 9962  14.089  14.289   8.461  0.1530 -0.1252 -0.0136
  625DPPI   C1B 9963  14.155  14.833  10.083 -0.2235  0.1336  0.2355
  625DPPI   C2B 9964  14.227  14.789   9.673 -0.3180 -0.3358 -0.0463
  625DPPI   C3B 9965  14.145  14.836   9.195 -0.2108 -0.1667  0.0809
  625DPPI   C4B 9966  14.201  14.712   8.773 -0.4719  0.2924 -0.0309
  626DPPI    C1 9967   9.401   3.131  10.919 -0.3139  0.0773  0.2347
  626DPPI    C2 9968   9.559   2.928  11.225  0.5099  0.2740 -0.0330
  626DPPI    C3 9969   9.518   3.325  11.248 -0.0974  0.2145  0.0800
  626DPPI   PO4 9970   9.466   3.113  10.755  0.1446 -0.1805 -0.1586
  626DPPI   GL1 9971   9.723   3.252  10.352  0.1623  0.1316 -0.2130
  626DPPI   GL2 9972   9.866   2.951  10.399 -0.0921 -0.0218 -0.0131
  626DPPI   C1A 9973   9.728   3.491  10.043  0.2385 -0.2038 -0.1811
  626DPPI   C2A 9974   9.648   3.442   9.630 -0.0999  0.0617  0.0711
  626DPPI   C3A 9975   9.734   3.480   9.197 -0.0951 -0.2528  0.0822
  626DPPI   C4A 9976   9.734   3.416   8.784 -0.2237 -0.0007 -0.0179
  626DPPI   C1B 9977   9.916   2.959   9.933  0.1027 -0.1704  0.0695
  626DPPI   C2B 9978   9.838   2.959   9.483  0.1566 -0.2368  0.0808
  626DPPI   C3B 9979   9.883   3.023   9.089  0.1460 -0.0878  0.1747
  626DPPI   C4B 9980  10.115   3.105   8.705 -0.2058  0.2528  0.0008
  627DPPI    C1 9981  13.378  10.061  10.984 -0.1877  0.1079 -0.1311
  627DPPI    C2 9982  13.321  10.316  11.287 -0.0743 -0.0852  0.0551
  627DPPI    C3 9983  13.293   9.922  11.349  0.0796 -0.1313 -0.1567
  627DPPI   PO4 9984  13.354  10.061  10.833  0.1833 -0.0802 -0.0317
  627DPPI   GL1 9985  13.198  10.039  10.511 -0.1577  0.4871  0.1230
  627DPPI   GL2 9986  13.504  10.031  10.327  0.0443 -0.0756  0.5445
  627DPPI   C1A 9987  13.021   9.948  10.103 -0.3032  0.4005 -0.0110
  627DPPI   C2A 9988  12.907  10.006   9.719 -0.2443 -0.0404 -0.0262
  627DPPI   C3A 9989  12.925   9.900   9.247  0.0872 -0.0591 -0.0146
  627DPPI   C4A 9990  12.871   9.907   8.841  0.1995  0.0366 -0.3143
  627DPPI   C1B 9991  13.478   9.897   9.914 -0.1763 -0.1566 -0.0766
  627DPPI   C2B 9992  13.356  10.003   9.530 -0.1761  0.1278  0.3441
  627DPPI   C3B 9993  13.420   9.895   9.110 -0.1261  0.2161  0.0843
  627DPPI   C4B 9994  13.361   9.874   8.697 -0.0961 -0.2090  0.0337
  628DPPI    C1 9995  16.351   1.937  11.451  0.1345  0.2692 -0.0945
  628DPPI    C2 9996  16.070   1.738  11.655  0.2162 -0.1200 -0.3518
  628DPPI    C3 9997  16.141   2.123  11.736 -0.1789 -0.1000 -0.0766
  628DPPI   PO4 9998  16.316   1.910  11.257  0.1989 -0.0488 -0.0144
  628DPPI   GL1 9999  16.361   2.020  10.862  0.0354 -0.1163 -0.3531
  628DPPI   GL210000  16.635   1.914  10.834  0.2559 -0.0967  0.2660
  628DPPI   C1A10001  16.440   2.156  10.410 -0.0844 -0.2602 -0.3387
  628DPPI   C2A10002  16.416   2.211   9.957  0.1886  0.2889  0.3041
  628DPPI   C3A10003  16.368   2.175   9.540  0.0569 -0.0292 -0.0074
  628DPPI   C4A10004  16.284   2.153   9.076  0.0896 -0.3561  0.1031
  628DPPI   C1B10005  16.642   1.706  10.430  0.1139  0.0671 -0.0279
  628DPPI   C2B10006  16.678   1.709  10.010  0.1225 -0.1155 -0.0583
  628DPPI   C3B10007  16.552   1.647   9.625 -0.0335 -0.5302 -0.2096
  628DPPI   C4B10008  16.578   1.745   9.190  0.0386  0.0637  0.3881
  629DPPI    C110009  14.168   0.089  11.460 -0.1027  0.0680 -0.3061
  629DPPI    C210010  13.783   0.136  11.561  0.0357 -0.1297  0.3641
  629DPPI    C310011  14.057   0.400  11.685  0.1140  0.0603 -0.1858
  629DPPI   PO410012  14.189  -0.038  11.182  0.4406 -0.0802 -0.1724
  629DPPI   GL110013  14.373  -0.088  10.727  0.1013 -0.1650  0.0590
  629DPPI   GL210014  14.287   0.223  10.777 -0.0229  0.0313  0.0611
  629DPPI   C1A10015  14.447   0.026  10.282  0.2585 -0.0531 -0.0313
  629DPPI   C2A10016  14.512   0.063   9.963 -0.2204 -0.0289 -0.3034
  629DPPI   C3A10017  14.448   0.034   9.550 -0.3523  0.2955  0.0776
  629DPPI   C4A10018  14.434  -0.025   9.185  0.1009 -0.0968  0.2009
  629DPPI   C1B10019  14.169   0.458  10.446 -0.0269 -0.0270 -0.0752
  629DPPI   C2B10020  14.192   0.489  10.078 -0.0327  0.0844  0.0105
  629DPPI   C3B10021  14.214   0.558   9.721  0.2390 -0.2853  0.2629
  629DPPI   C4B10022  14.220   0.404   9.321  0.1159 -0.0877 -0.1431
  630DPPI    C110023   7.318  15.964  11.070  0.1158 -0.1541 -0.3646
  630DPPI    C210024   7.479  15.607  11.151 -0.0862 -0.2720 -0.4735
  630DPPI    C310025   7.103  15.688  11.264  0.1610  0.1332  0.1098
  630DPPI   PO410026   7.285  15.968  10.804 -0.0719 -0.1289 -0.0739
  630DPPI   GL110027   6.965  15.899  10.433 -0.1622 -0.2232 -0.2389
  630DPPI   GL210028   7.183  15.854  10.303 -0.0801  0.0183  0.2910
  630DPPI   C1A10029   6.766  15.844   9.914 -0.0827  0.0155  0.1851
  630DPPI   C2A10030   6.763  15.853   9.531  0.0191 -0.2584 -0.0067
  630DPPI   C3A10031   6.689  15.873   8.996  0.2230  0.0851  0.1707
  630DPPI   C4A10032   6.780  15.870   8.573  0.1079  0.1309  0.2132
  630DPPI   C1B10033   7.294  15.859   9.907  0.1002  0.5070 -0.0357
  630DPPI   C2B10034   7.257  15.845   9.462  0.1600 -0.0560  0.1565
  630DPPI   C3B10035   7.166  15.788   9.114 -0.1136 -0.0119  0.1370
  630DPPI   C4B10036   7.284  15.872   8.696  0.0422  0.0481 -0.0744
  631DPPI    C110037  10.183  16.669  10.619 -0.0272 -0.2071 -0.0706
  631DPPI    C210038   9.820  16.836  10.636  0.0137 -0.1101 -0.1382
  631DPPI    C310039   9.933  16.572  10.915 -0.0249  0.0294  0.0111
  631DPPI   PO410040  10.305  16.842  10.459 -0.1120 -0.0865 -0.1228
  631DPPI   GL110041  10.521  16.860  10.112  0.1217 -0.1456 -0.2468
  631DPPI   GL210042  10.665  17.156  10.089  0.0539 -0.0196  0.0577
  631DPPI   C1A10043  10.578  16.729   9.722  0.2198 -0.1945 -0.1130
  631DPPI   C2A10044  10.505  16.596   9.326  0.1522 -0.0783 -0.0595
  631DPPI   C3A10045  10.490  16.636   8.935  0.0390 -0.1617 -0.0942
  631DPPI   C4A10046  10.286  16.803   8.537  0.0930 -0.0434  0.0699
  631DPPI   C1B10047  10.889  17.176   9.719 -0.2305 -0.0579 -0.1549
  631DPPI   C2B10048  10.857  17.078   9.201 -0.4643 -0.0427 -0.0432
  631DPPI   C3B10049  10.837  17.088   8.860 -0.0585  0.1038 -0.2064
  631DPPI   C4B10050  10.691  17.145   8.482  0.0064 -0.0629 -0.0166
  632DPPI    C110051  11.022   9.812  10.890 -0.0951 -0.0392  0.0621
  632DPPI    C210052  11.308   9.547  10.978  0.0547  0.1028  0.0090
  632DPPI    C310053  11.074   9.692  11.268  0.0656  0.0197  0.0596
  632DPPI   PO410054  11.043   9.773  10.563  0.0410  0.1552  0.3885
  632DPPI   GL110055  10.985   9.440  10.225 -0.0856  0.0908  0.1136
  632DPPI   GL210056  11.117   9.708  10.048  0.2962 -0.0018 -0.2316
  632DPPI   C1A10057  10.943   9.261   9.839 -0.3329  0.3632 -0.0408
  632DPPI   C2A10058  10.961   9.255   9.400 -0.0440  0.2093  0.3620
  632DPPI   C3A10059  10.784   9.228   8.954 -0.1095  0.0001  0.0124
  632DPPI   C4A10060  10.772   9.180   8.552 -0.0120  0.0135  0.1829
  632DPPI   C1B10061  11.081   9.662   9.605 -0.2595 -0.1458 -0.0316
  632DPPI   C2B10062  11.119   9.745   9.159  0.0766  0.1638  0.1799
  632DPPI   C3B10063  11.078   9.663   8.753  0.0370  0.0087  0.1692
  632DPPI   C4B10064  11.022   9.583   8.294 -0.2185  0.1058  0.2297
  633DPPI    C110065   0.906   8.561  11.045  0.0205  0.0653 -0.1150
  633DPPI    C210066   0.791   8.919  11.182  0.1568  0.0518  0.0385
  633DPPI    C310067   1.072   8.895  10.899 -0.0212  0.0739 -0.1429
  633DPPI   PO410068   0.750   8.392  10.897 -0.1071  0.2431  0.0858
  633DPPI   GL110069   0.784   8.294  10.535 -0.0660 -0.2404 -0.1002
  633DPPI   GL210070   1.000   8.219  10.343 -0.2071  0.0864  0.2545
  633DPPI   C1A10071   0.509   8.256  10.171 -0.0532 -0.1082  0.1349
  633DPPI   C2A10072   0.461   8.258   9.752  0.1843 -0.1242  0.0601
  633DPPI   C3A10073   0.418   8.210   9.258  0.0546 -0.2178  0.1853
  633DPPI   C4A10074   0.401   8.256   8.799  0.1246  0.2810  0.0282
  633DPPI   C1B10075   0.967   8.160   9.900 -0.0002  0.0387  0.0641
  633DPPI   C2B10076   0.916   8.153   9.494 -0.2436 -0.0598 -0.1464
  633DPPI   C3B10077   0.921   8.229   9.063  0.3280 -0.2570 -0.0728
  633DPPI   C4B10078   0.905   8.089   8.612  0.0714  0.1163  0.0615
  634DPPI    C110079  15.145  12.554  10.959  0.1830  0.2418  0.0589
  634DPPI    C210080  15.093  12.188  11.112 -0.1373  0.2365 -0.0559
  634DPPI    C310081  15.098  12.507  11.353 -0.1262  0.1814  0.0172
  634DPPI   PO410082  15.156  12.466  10.698  0.0732 -0.0710  0.0944
  634DPPI   GL110083  15.133  12.276  10.307  0.0219  0.3161  0.0175
  634DPPI   GL210084  14.968  11.993  10.092 -0.2788  0.2895  0.0133
  634DPPI   C1A10085  15.231  12.343   9.886  0.1394  0.3934  0.1227
  634DPPI   C2A10086  15.244  12.403   9.434  0.2269  0.0997  0.2352
  634DPPI   C3A10087  15.248  12.408   8.977 -0.1337 -0.2776 -0.0296
  634DPPI   C4A10088  15.318  12.377   8.550  0.1487  0.1203  0.1014
  634DPPI   C1B10089  14.941  11.905   9.742  0.0080 -0.2293  0.1332
  634DPPI   C2B10090  14.992  11.973   9.261  0.2627  0.1314 -0.1352
  634DPPI   C3B10091  14.961  12.028   8.811  0.2466 -0.1641  0.3636
  634DPPI   C4B10092  14.891  12.071   8.346 -0.0797  0.2088 -0.1969
  635PYPI    C110093  15.578   7.466  10.969 -0.2744 -0.0793  0.4563
  635PYPI    C210094  15.706   7.205  11.244  0.1433 -0.1315  0.2206
  635PYPI    C310095  15.933   7.520  11.146  0.1703 -0.3076 -0.3163
  635PYPI   PO410096  15.494   7.317  10.763  0.0995  0.2277  0.3025
  635PYPI   GL110097  15.322   7.100  10.448 -0.0363 -0.0252 -0.2379
  635PYPI   GL210098  15.510   6.763  10.320  0.0854 -0.0288  0.0935
  635PYPI   C1A10099  15.459   7.202  10.031 -0.0117 -0.4379  0.3536
  635PYPI   C2A10100  15.406   7.021   9.571  0.6505  0.0565 -0.1233
  635PYPI   D3A10101  15.426   7.121   9.266 -0.0683 -0.2691  0.0412
  635PYPI   C4A10102  15.248   7.056   8.843 -0.1919 -0.0661 -0.3075
  635PYPI   C1B10103  15.584   6.571   9.977 -0.1512 -0.0242  0.2872
  635PYPI   C2B10104  15.610   6.557   9.563  0.0814 -0.3500 -0.1466
  635PYPI   C3B10105  15.662   6.589   9.155 -0.1297  0.3017  0.1801
  635PYPI   C4B10106  15.532   6.697   8.759 -0.0421 -0.1355  0.2940
  636PYPI    C110107  14.489   7.084  11.090  0.0856 -0.2118  0.0714
  636PYPI    C210108  14.693   7.353  11.305 -0.2323 -0.0104  0.1277
  636PYPI    C310109  14.528   7.036  11.485 -0.0477 -0.1260  0.0956
  636PYPI   PO410110  14.570   7.060  10.859 -0.0032  0.0582  0.0173
  636PYPI   GL110111  14.460   6.940  10.562  0.1894 -0.1180  0.0372
  636PYPI   GL210112  14.523   6.662  10.547 -0.0333 -0.0180 -0.0903
  636PYPI   C1A10113  14.156   7.067  10.098 -0.2191  0.0501  0.1540
  636PYPI   C2A10114  14.240   7.103   9.771  0.2522 -0.0585  0.0246
  636PYPI   D3A10115  14.371   7.090   9.326 -0.2231  0.2655 -0.1750
  636PYPI   C4A10116  14.344   7.117   8.842  0.3592 -0.1723 -0.0837
  636PYPI   C1B10117  14.523   6.641  10.108  0.0221  0.0408  0.0631
  636PYPI   C2B10118  14.567   6.564   9.671  0.1901  0.0078  0.1074
  636PYPI   C3B10119  14.668   6.598   9.268 -0.1717  0.2022 -0.2259
  636PYPI   C4B10120  14.531   6.640   8.863 -0.0300 -0.0436 -0.3916
  637PYPI    C110121  15.014  14.709  11.154 -0.1419 -0.1224  0.0332
  637PYPI    C210122  14.702  14.472  11.234 -0.1576 -0.1166 -0.0107
  637PYPI    C310123  14.733  14.830  11.411 -0.0988 -0.1796  0.1076
  637PYPI   PO410124  15.015  14.728  10.941 -0.0403  0.2020  0.2581
  637PYPI   GL110125  14.956  14.929  10.502  0.0127  0.0499  0.0716
  637PYPI   GL210126  14.963  15.159  10.447 -0.1553 -0.1432 -0.0704
  637PYPI   C1A10127  14.714  14.689  10.117  0.0725 -0.0746  0.1258
  637PYPI   C2A10128  14.707  14.755   9.632 -0.2865  0.0030  0.2569
  637PYPI   D3A10129  14.725  14.645   9.272 -0.0659 -0.0608  0.0509
  637PYPI   C4A10130  14.666  14.789   8.896  0.0276  0.0408  0.1762
  637PYPI   C1B10131  15.040  15.189  10.016 -0.2737 -0.0967  0.1789
  637PYPI   C2B10132  15.086  15.145   9.588  0.1517  0.2813 -0.3346
  637PYPI   C3B10133  14.897  15.181   9.260  0.1430  0.2757  0.2300
  637PYPI   C4B10134  14.919  15.192   8.883 -0.5411 -0.0013  0.0358
  638PYPI    C110135   8.728   5.489  11.182  0.0855  0.2670 -0.0702
  638PYPI    C210136   8.853   5.622  11.538 -0.1319 -0.2365  0.2049
  638PYPI    C310137   8.906   5.238  11.438 -0.0518 -0.0961 -0.3222
  638PYPI   PO410138   8.782   5.625  11.005 -0.1758  0.0496  0.0892
  638PYPI   GL110139   9.035   5.490  10.621  0.1253 -0.1225 -0.0322
  638PYPI   GL210140   9.243   5.653  10.465 -0.2435 -0.2050  0.2758
  638PYPI   C1A10141   8.837   5.361  10.203 -0.0770  0.2017 -0.0088
  638PYPI   C2A10142   8.720   5.326   9.702  0.1419 -0.0595  0.1037
  638PYPI   D3A10143   8.813   5.246   9.350 -0.3069 -0.1903  0.1908
  638PYPI   C4A10144   8.707   5.347   9.053 -0.2055  0.1544  0.2420
  638PYPI   C1B10145   9.085   5.858  10.162  0.1648  0.2551  0.2281
  638PYPI   C2B10146   9.007   5.752   9.712 -0.0229  0.0278 -0.0106
  638PYPI   C3B10147   9.014   5.711   9.250  0.3103 -0.1507  0.0861
  638PYPI   C4B10148   8.900   5.765   8.890 -0.0421  0.0741  0.1903
  639PYPI    C110149   9.434  16.207  10.798 -0.1123  0.0164  0.2398
  639PYPI    C210150   9.460  16.582  10.933 -0.1204 -0.0122  0.3211
  639PYPI    C310151   9.529  16.276  11.180  0.1841 -0.0592  0.1827
  639PYPI   PO410152   9.250  16.218  10.604  0.0413 -0.5029 -0.2519
  639PYPI   GL110153   9.252  16.191  10.263 -0.3297  0.0071  0.0255
  639PYPI   GL210154   9.394  15.933  10.012 -0.1355 -0.0074 -0.1308
  639PYPI   C1A10155   9.117  16.284   9.796  0.0627  0.1492  0.1795
  639PYPI   C2A10156   9.193  16.209   9.374  0.0499  0.2322 -0.1780
  639PYPI   D3A10157   9.194  16.123   9.033  0.2008  0.1304 -0.2165
  639PYPI   C4A10158   9.007  15.853   8.687 -0.2970 -0.1077 -0.1420
  639PYPI   C1B10159   9.344  15.768   9.573 -0.2599  0.1799 -0.6185
  639PYPI   C2B10160   9.322  15.699   9.188  0.0884  0.1741  0.0079
  639PYPI   C3B10161   9.493  15.723   8.735  0.1799 -0.1523  0.1636
  639PYPI   C4B10162   9.602  15.885   8.269  0.0450 -0.0008  0.1042
  640PYPI    C110163  11.804   6.677  11.403  0.0264  0.0605  0.0919
  640PYPI    C210164  11.807   6.318  11.579 -0.0674  0.0467  0.0654
  640PYPI    C310165  11.564   6.605  11.715  0.0428  0.1159  0.1176
  640PYPI   PO410166  11.720   6.605  11.084 -0.0779  0.2463 -0.0127
  640PYPI   GL110167  11.970   6.546  10.695 -0.1220 -0.1438 -0.1584
  640PYPI   GL210168  11.855   6.806  10.609  0.0950  0.1405  0.0803
  640PYPI   C1A10169  12.167   6.430  10.336  0.0295 -0.1045  0.1683
  640PYPI   C2A10170  12.141   6.480   9.896 -0.1897 -0.2312 -0.0706
  640PYPI   D3A10171  12.201   6.313   9.475  0.0090  0.0051 -0.1555
  640PYPI   C4A10172  12.130   6.455   9.001  0.0498  0.0204 -0.3816
  640PYPI   C1B10173  11.875   6.909  10.188 -0.0647 -0.0505  0.1672
  640PYPI   C2B10174  11.890   6.894   9.749 -0.2743  0.0633  0.1672
  640PYPI   C3B10175  11.972   6.846   9.272  0.0677  0.0551  0.0923
  640PYPI   C4B10176  11.947   6.910   8.840  0.0381  0.1193  0.1170
  641ERGO   ROH10177   8.623   2.113  10.422 -0.0911  0.0558  0.0328
  641ERGO    R110178   8.777   2.159  10.189  0.0130 -0.1001  0.0693
  641ERGO    R210179   8.852   1.956  10.017 -0.1172 -0.1825  0.1105
  641ERGO    R310180   8.734   2.113   9.830  0.0704 -0.0974  0.0613
  641ERGO    R410181   8.923   1.947   9.679  0.0875 -0.1696  0.1517
  641ERGO    R510182   8.910   2.164   9.676  0.1931 -0.1597  0.1756
  641ERGO    C110183   8.853   2.090   9.306  0.3829 -0.0821  0.1297
  641ERGO    C210184   8.799   2.136   8.957  0.0295  0.1973  0.2066
  642ERGO   ROH10185  12.000   1.815  10.618  0.1045  0.0132  0.1436
  642ERGO    R110186  11.902   1.831  10.353 -0.0048  0.0625  0.1867
  642ERGO    R210187  11.918   2.062  10.202  0.1388  0.0249  0.1439
  642ERGO    R310188  12.040   1.897  10.023 -0.0956 -0.1175  0.1112
  642ERGO    R410189  11.884   2.083   9.859 -0.0272 -0.0182  0.1568
  642ERGO    R510190  11.877   1.865   9.851 -0.2167 -0.0155  0.2044
  642ERGO    C110191  11.979   1.940   9.491 -0.3440 -0.1770  0.1336
  642ERGO    C210192  11.964   1.863   9.104 -0.0829  0.1611  0.1727
  643ERGO   ROH10193  15.258  12.751  10.310  0.1598  0.1636  0.0576
  643ERGO    R110194  15.094  12.737  10.080  0.1637  0.0572  0.0605
  643ERGO    R210195  15.064  12.949   9.905  0.1272 -0.0063 -0.0117
  643ERGO    R310196  15.140  12.764   9.720  0.1615 -0.0555  0.0514
  643ERGO    R410197  15.007  12.976   9.565 -0.0555 -0.2241 -0.0003
  643ERGO    R510198  14.960  12.763   9.561  0.0844 -0.2599  0.1370
  643ERGO    C110199  15.045  12.818   9.193 -0.1296 -0.3971  0.0656
  643ERGO    C210200  15.042  12.898   8.849 -0.1316 -0.1496 -0.0384
  644ERGO   ROH10201   6.444  11.893  10.224 -0.2487 -0.2263  0.0096
  644ERGO    R110202   6.549  11.984   9.978 -0.1312 -0.1097  0.1009
  644ERGO    R210203   6.711  11.827   9.818 -0.1663 -0.0854  0.0364
  644ERGO    R310204   6.525  11.886   9.628 -0.0850  0.1421  0.0259
  644ERGO    R410205   6.764  11.815   9.476 -0.1858 -0.2202  0.0382
  644ERGO    R510206   6.649  11.997   9.456  0.0699 -0.0601  0.0056
  644ERGO    C110207   6.621  11.863   9.100 -0.1208 -0.0850  0.0292
  644ERGO    C210208   6.622  11.838   8.760  0.0823 -0.3095  0.2952
  645ERGO   ROH10209   0.254  17.444  10.440  0.2047  0.1438 -0.1473
  645ERGO    R110210   0.222  17.595  10.202  0.0796  0.0812 -0.1721
  645ERGO    R210211   0.424  17.625  10.016  0.0275  0.1435 -0.2242
  645ERGO    R310212   0.236  17.531   9.844  0.0351  0.0139 -0.1612
  645ERGO    R410213   0.426  17.672   9.673 -0.0592  0.0401 -0.2386
  645ERGO    R510214   0.211  17.704   9.681 -0.0686 -0.0476 -0.2086
  645ERGO    C110215   0.249  17.611   9.313 -0.1026 -0.1417 -0.1877
  645ERGO    C210216   0.380  17.702   9.043  0.0892 -0.3635  0.2289
  646ERGO   ROH10217   4.429   7.075  10.523 -0.2292  0.0212 -0.1426
  646ERGO    R110218   4.480   7.161  10.258 -0.3234  0.0008 -0.1680
  646ERGO    R210219   4.687   7.060  10.106 -0.1030  0.2996 -0.0795
  646ERGO    R310220   4.488   7.009   9.928  0.0189 -0.1317 -0.1027
  646ERGO    R410221   4.713   7.100   9.764 -0.1484  0.3628 -0.0752
  646ERGO    R510222   4.511   7.181   9.763 -0.3328 -0.0724 -0.0973
  646ERGO    C110223   4.542   7.075   9.397 -0.0604 -0.0054 -0.0945
  646ERGO    C210224   4.625   7.136   9.065 -0.3667 -0.2262 -0.0107
  647ERGO   ROH10225  17.360  16.402  10.426  0.2878 -0.0723  0.1117
  647ERGO    R110226  17.234  16.365  10.176  0.1184 -0.2494  0.2204
  647ERGO    R210227  17.270  16.538   9.963 -0.3674 -0.1491  0.2051
  647ERGO    R310228  17.339  16.310   9.832 -0.0971 -0.0185  0.1146
  647ERGO    R410229  17.291  16.507   9.620 -0.2728  0.0274  0.1945
  647ERGO    R510230  17.200  16.310   9.637 -0.0634 -0.0816  0.0909
  647ERGO    C110231  17.368  16.275   9.296  0.0358  0.2525  0.1033
  647ERGO    C210232  17.358  16.360   8.931  0.0539 -0.3024  0.1645
  648ERGO   ROH10233  16.555  11.008  10.065  0.0549 -0.0776  0.0033
  648ERGO    R110234  16.446  10.917   9.821  0.1820 -0.1257 -0.0348
  648ERGO    R210235  16.314  11.084   9.645 -0.0375 -0.2303  0.0362
  648ERGO    R310236  16.495  10.986   9.467  0.0956  0.0824 -0.0093
  648ERGO    R410237  16.275  11.087   9.301 -0.1179 -0.2526  0.0440
  648ERGO    R510238  16.361  10.887   9.295  0.2140 -0.1216  0.0067
  648ERGO    C110239  16.422  10.997   8.934 -0.0394  0.0280  0.0058
  648ERGO    C210240  16.484  10.979   8.511 -0.3470 -0.0424  0.1966
  649ERGO   ROH10241  11.840  14.883  10.105 -0.1297 -0.0850  0.0790
  649ERGO    R110242  11.987  14.836   9.868 -0.0751 -0.1476  0.1249
  649ERGO    R210243  11.900  14.664   9.670 -0.1547 -0.0076  0.0366
  649ERGO    R310244  11.934  14.881   9.510  0.1111  0.0122  0.1159
  649ERGO    R410245  11.966  14.651   9.330 -0.3311  0.0337  0.0000
  649ERGO    R510246  12.106  14.816   9.357 -0.0582 -0.1935  0.0083
  649ERGO    C110247  12.036  14.848   8.984 -0.1842  0.0763  0.0532
  649ERGO    C210248  12.163  14.879   8.639  0.2110 -0.2742 -0.0157
  650ERGO   ROH10249  17.010   6.240  10.584  0.1882 -0.5190  0.1202
  650ERGO    R110250  17.019   6.073  10.356 -0.0403 -0.3985  0.0194
  650ERGO    R210251  16.799   6.032  10.192 -0.1022 -0.0053 -0.0083
  650ERGO    R310252  16.971   6.112   9.997  0.0083 -0.1173  0.0424
  650ERGO    R410253  16.732   6.021   9.854  0.0085  0.0075 -0.0307
  650ERGO    R510254  16.937   5.955   9.820 -0.0192 -0.1099  0.0436
  650ERGO    C110255  16.854   6.090   9.473  0.1770 -0.0903  0.0039
  650ERGO    C210256  16.878   6.085   9.120  0.1489  0.0837 -0.1176
  651ERGO   ROH10257   9.794  14.849   9.873 -0.1720  0.1589 -0.0762
  651ERGO    R110258   9.854  14.707   9.636 -0.1753  0.0714 -0.0247
  651ERGO    R210259   9.810  14.811   9.384 -0.1315 -0.0018 -0.0611
  651ERGO    R310260  10.073  14.752   9.348 -0.1390 -0.0627 -0.0197
  651ERGO    R410261   9.969  14.799   9.078 -0.0910 -0.0420 -0.0388
  651ERGO    R510262  10.077  14.622   9.147 -0.1408 -0.0679 -0.0185
  651ERGO    C110263  10.309  14.736   8.866 -0.0745 -0.1226  0.0131
  651ERGO    C210264  10.422  14.861   8.581  0.0338  0.0221 -0.0315
  652ERGO   ROH10265   6.661   5.452  10.592  0.1045 -0.3042  0.0181
  652ERGO    R110266   6.548   5.466  10.333  0.0748 -0.1402  0.0382
  652ERGO    R210267   6.649   5.633  10.136  0.1885 -0.1736  0.0626
  652ERGO    R310268   6.659   5.402   9.993 -0.0324 -0.1494  0.0055
  652ERGO    R410269   6.633   5.612   9.791  0.2334 -0.0694  0.0547
  652ERGO    R510270   6.507   5.436   9.812  0.0399  0.0608 -0.0161
  652ERGO    C110271   6.633   5.383   9.456  0.0522  0.0139 -0.0036
  652ERGO    C210272   6.607   5.279   9.066  0.0206 -0.0777  0.2066
  653ERGO   ROH10273   8.902  14.900   9.951 -0.0134 -0.1013  0.1398
  653ERGO    R110274   8.808  14.779   9.713  0.0756 -0.0200  0.0613
  653ERGO    R210275   8.736  14.925   9.490  0.0919  0.0636  0.1040
  653ERGO    R310276   8.914  14.762   9.366  0.1679  0.1648  0.0812
  653ERGO    R410277   8.763  14.886   9.148 -0.0123 -0.0273  0.1066
  653ERGO    R510278   8.793  14.672   9.179  0.1669  0.0110  0.1598
  653ERGO    C110279   8.946  14.709   8.832 -0.0017  0.0148  0.0866
  653ERGO    C210280   9.042  14.856   8.501  0.2143  0.1369 -0.1608
  654ERGO   ROH10281   1.436   7.374  10.178  0.0878 -0.2223  0.0544
  654ERGO    R110282   1.441   7.208   9.949 -0.1755 -0.1665  0.0048
  654ERGO    R210283   1.262   7.236   9.740 -0.0782  0.2455 -0.0333
  654ERGO    R310284   1.488   7.253   9.591  0.0006 -0.1407  0.0301
  654ERGO    R410285   1.273   7.206   9.396 -0.0413  0.2993 -0.0370
  654ERGO    R510286   1.457   7.091   9.417 -0.2559 -0.0499 -0.0126
  654ERGO    C110287   1.492   7.205   9.055  0.0542 -0.0320  0.0205
  654ERGO    C210288   1.373   7.279   8.684  0.2167  0.4277 -0.0607
  655ERGO   ROH10289   8.842  13.572  10.264  0.0963  0.1253 -0.1361
  655ERGO    R110290   8.961  13.550  10.008  0.0510  0.1781 -0.1612
  655ERGO    R210291   8.907  13.342   9.836  0.1708  0.1095 -0.1122
  655ERGO    R310292   8.847  13.543   9.663 -0.0265  0.0352 -0.1342
  655ERGO    R410293   8.859  13.302   9.496  0.3163  0.0340 -0.1252
  655ERGO    R510294   8.968  13.488   9.464  0.1022  0.1725 -0.0989
  655ERGO    C110295   8.775  13.467   9.136  0.2156 -0.0800 -0.1535
  655ERGO    C210296   8.777  13.490   8.762 -0.0557  0.1030  0.3651
  656ERGO   ROH10297  11.260   1.045  10.285 -0.0154 -0.0111 -0.0611
  656ERGO    R110298  11.316   1.114  10.016  0.1169  0.0018 -0.0307
  656ERGO    R210299  11.530   1.008   9.877  0.0448 -0.1771 -0.0061
  656ERGO    R310300  11.337   0.940   9.698  0.0171  0.0606 -0.0698
  656ERGO    R410301  11.551   1.058   9.536  0.1241 -0.0046  0.0230
  656ERGO    R510302  11.341   1.117   9.536  0.1657  0.1476  0.0269
  656ERGO    C110303  11.382   1.024   9.169  0.1445  0.3189 -0.0200
  656ERGO    C210304  11.445   0.921   8.783  0.1654  0.0694 -0.1587
  657ERGO   ROH10305   8.763   3.477  10.280 -0.0755 -0.0316  0.0023
  657ERGO    R110306   8.643   3.449  10.024  0.0410  0.0182 -0.0594
  657ERGO    R210307   8.575   3.666   9.867 -0.0160  0.0567  0.0099
  657ERGO    R310308   8.728   3.538   9.682  0.1322  0.2220  0.0161
  657ERGO    R410309   8.513   3.661   9.527 -0.1125 -0.1918  0.0300
  657ERGO    R510310   8.571   3.451   9.524  0.2230 -0.0999  0.1011
  657ERGO    C110311   8.619   3.538   9.156 -0.0296 -0.1813  0.0476
  657ERGO    C210312   8.606   3.482   8.780  0.1480  0.0674 -0.1567
  658ERGO   ROH10313  16.501  17.746  10.553  0.0008  0.2337 -0.1677
  658ERGO    R110314  16.539  17.866  10.300  0.0727  0.0299 -0.2547
  658ERGO    R210315  16.697  17.752  10.103 -0.0297 -0.2266 -0.1881
  658ERGO    R310316  16.472  17.777   9.953 -0.0209 -0.1586 -0.1910
  658ERGO    R410317  16.690  17.769   9.758 -0.0156 -0.2892 -0.1920
  658ERGO    R510318  16.535  17.921   9.774  0.0459 -0.2164 -0.2190
  658ERGO    C110319  16.474  17.803   9.416  0.0008 -0.2614 -0.1970
  658ERGO    C210320  16.526  17.704   9.201 -0.1705 -0.1741 -0.0348
  659ERGO   ROH10321   0.061   4.342  10.407  0.0155  0.2124  0.0100
  659ERGO    R110322   0.063   4.223  10.150 -0.1373  0.0536  0.0803
  659ERGO    R210323  -0.166   4.198   9.996 -0.1713  0.2712  0.0916
  659ERGO    R310324  -0.016   4.328   9.810  0.0136 -0.0407  0.0152
  659ERGO    R410325  -0.184   4.145   9.655 -0.1423  0.0031  0.1296
  659ERGO    R510326   0.033   4.161   9.646 -0.1205 -0.2336  0.1661
  659ERGO    C110327  -0.054   4.236   9.282  0.0482 -0.4458  0.0800
  659ERGO    C210328  -0.173   4.266   9.034  0.0299  0.0559  0.0562
  660ERGO   ROH10329   1.942  17.350  10.380 -0.1079  0.3977  0.0711
  660ERGO    R110330   1.838  17.452  10.137 -0.1380  0.2540  0.0218
  660ERGO    R210331   1.996  17.580   9.950 -0.1990  0.3392  0.0237
  660ERGO    R310332   1.891  17.394   9.782 -0.0093  0.2091  0.0484
  660ERGO    R410333   1.969  17.617   9.608 -0.1442  0.2218  0.0072
  660ERGO    R510334   1.773  17.522   9.618 -0.0709  0.0685 -0.0167
  660ERGO    C110335   1.856  17.464   9.250  0.0658  0.0312  0.0207
  660ERGO    C210336   1.935  17.433   8.936 -0.3232 -0.1855 -0.0762
  661ERGO   ROH10337   5.230  16.706  10.513  0.0547 -0.0360 -0.0797
  661ERGO    R110338   5.126  16.812  10.271  0.0401  0.0655 -0.0287
  661ERGO    R210339   5.283  16.947  10.088  0.0820 -0.0820 -0.0975
  661ERGO    R310340   5.183  16.763   9.915 -0.1759  0.0162 -0.0590
  661ERGO    R410341   5.251  16.994   9.748  0.3201 -0.1628 -0.1339
  661ERGO    R510342   5.058  16.892   9.757  0.1221  0.1831 -0.1709
  661ERGO    C110343   5.138  16.848   9.387  0.2167 -0.1177 -0.1188
  661ERGO    C210344   5.161  16.868   9.046  0.1225  0.1323  0.1189
  662ERGO   ROH10345   2.726  17.745  10.556  0.1116 -0.0678 -0.0609
  662ERGO    R110346   2.595  17.783  10.308  0.1003 -0.2044 -0.0764
  662ERGO    R210347   2.636  18.006  10.150 -0.2810 -0.0463  0.0348
  662ERGO    R310348   2.695  17.821   9.960  0.1232  0.1413 -0.0351
  662ERGO    R410349   2.596  18.053   9.810 -0.1609  0.0663  0.0350
  662ERGO    R510350   2.523  17.848   9.795  0.1705 -0.0476 -0.1167
  662ERGO    C110351   2.628  17.906   9.433  0.2884  0.3080 -0.0303
  662ERGO    C210352   2.600  17.969   9.162 -0.1680  0.1481 -0.0533
  663ERGO   ROH10353   3.027   3.088  10.177 -0.3276 -0.2220  0.0723
  663ERGO    R110354   3.024   3.230   9.932 -0.1613 -0.1602  0.1040
  663ERGO    R210355   3.222   3.202   9.741 -0.0945 -0.2076  0.1746
  663ERGO    R310356   3.012   3.146   9.578 -0.0580 -0.0708  0.0797
  663ERGO    R410357   3.228   3.222   9.396  0.0395 -0.1205  0.1816
  663ERGO    R510358   3.028   3.307   9.402  0.0778 -0.0343  0.1276
  663ERGO    C110359   3.034   3.181   9.042  0.1518  0.0585  0.0966
  663ERGO    C210360   3.030   3.138   8.723 -0.1414 -0.0766  0.2031
  664ERGO   ROH10361   7.663   2.182  10.164 -0.0669  0.0391 -0.0248
  664ERGO    R110362   7.687   2.266   9.895  0.1322 -0.0050 -0.0234
  664ERGO    R210363   7.878   2.165   9.723  0.0600 -0.2675  0.0434
  664ERGO    R310364   7.662   2.112   9.566  0.0367  0.0050 -0.0206
  664ERGO    R410365   7.884   2.149   9.378  0.1117 -0.1565  0.0391
  664ERGO    R510366   7.692   2.252   9.375  0.2177  0.0398  0.0333
  664ERGO    C110367   7.685   2.090   9.030  0.1198  0.1640 -0.0236
  664ERGO    C210368   7.773   2.170   8.679  0.1793  0.1767  0.0870
  665ERGO   ROH10369   2.337  14.206  10.162 -0.0824 -0.3270 -0.1532
  665ERGO    R110370   2.454  14.325   9.933 -0.0913 -0.2196 -0.1017
  665ERGO    R210371   2.554  14.177   9.722 -0.0559 -0.1211 -0.1513
  665ERGO    R310372   2.387  14.333   9.576 -0.0730 -0.0934 -0.1035
  665ERGO    R410373   2.578  14.227   9.381 -0.1809 -0.1799 -0.1694
  665ERGO    R510374   2.528  14.437   9.413 -0.1075 -0.1581 -0.1781
  665ERGO    C110375   2.434  14.403   9.045 -0.2698 -0.1881 -0.1351
  665ERGO    C210376   2.415  14.444   8.690 -0.1906 -0.1610 -0.0473
  666ERGO   ROH10377  10.116   2.532  10.339  0.0899  0.1315  0.1819
  666ERGO    R110378  10.148   2.413  10.084  0.1290  0.0873  0.2077
  666ERGO    R210379   9.946   2.406   9.896  0.0941 -0.1208  0.2516
  666ERGO    R310380  10.133   2.522   9.737 -0.0287 -0.0178  0.1800
  666ERGO    R410381   9.926   2.428   9.552 -0.0200 -0.1882  0.2531
  666ERGO    R510382  10.139   2.384   9.542  0.0092 -0.0455  0.2000
  666ERGO    C110383  10.090   2.550   9.202 -0.2017 -0.1307  0.1867
  666ERGO    C210384  10.220   2.506   8.835 -0.0032  0.1616  0.1619
  667ERGO   ROH10385   5.583   0.293  10.334  0.0656 -0.0640  0.0330
  667ERGO    R110386   5.441   0.348  10.096  0.1618  0.1714  0.0267
  667ERGO    R210387   5.528   0.534   9.910  0.4971  0.0108  0.0096
  667ERGO    R310388   5.505   0.324   9.739  0.1285  0.0278  0.0314
  667ERGO    R410389   5.572   0.552   9.568  0.4834 -0.1061  0.0015
  667ERGO    R510390   5.403   0.417   9.544  0.2581  0.1719  0.0361
  667ERGO    C110391   5.576   0.366   9.208  0.1294 -0.1581  0.0171
  667ERGO    C210392   5.484   0.324   8.875 -0.0095 -0.2132  0.1600
  668ERGO   ROH10393   2.217   7.763   9.978  0.3472 -0.1188  0.0072
  668ERGO    R110394   2.254   7.623   9.735  0.4472  0.0481 -0.0740
  668ERGO    R210395   2.055   7.602   9.543  0.3406 -0.2712  0.0745
  668ERGO    R310396   2.247   7.703   9.380  0.0214  0.1778 -0.0445
  668ERGO    R410397   2.059   7.571   9.199  0.2331 -0.3360  0.0772
  668ERGO    R510398   2.274   7.538   9.209  0.3394  0.1922 -0.0218
  668ERGO    C110399   2.241   7.649   8.846 -0.1292  0.0476 -0.0328
  668ERGO    C210400   2.189   7.567   8.534 -0.2729  0.1595 -0.5426
  669ERGO   ROH10401   6.053  16.011  10.267 -0.2006  0.2301 -0.0587
  669ERGO    R110402   6.200  15.948  10.034 -0.2564  0.0270 -0.0408
  669ERGO    R210403   6.095  15.795   9.829 -0.4196  0.1152 -0.0258
  669ERGO    R310404   6.167  16.008   9.676 -0.1654  0.0133 -0.0514
  669ERGO    R410405   6.108  15.794   9.483 -0.2767  0.0165 -0.0206
  669ERGO    R510406   6.292  15.912   9.495 -0.1757 -0.1444  0.0246
  669ERGO    C110407   6.184  15.994   9.139  0.0454 -0.1367 -0.0416
  669ERGO    C210408   6.196  15.917   8.845 -0.0972 -0.1231  0.0096
  670ERGO   ROH10409  15.822   7.165  10.353 -0.3044 -0.1962 -0.0599
  670ERGO    R110410  15.958   7.151  10.105 -0.2098 -0.1120 -0.0136
  670ERGO    R210411  15.932   6.935   9.933 -0.1473 -0.0512 -0.0973
  670ERGO    R310412  15.865   7.127   9.753 -0.0746  0.0106 -0.0594
  670ERGO    R410413  15.953   6.901   9.590 -0.2259 -0.0244 -0.1050
  670ERGO    R510414  16.028   7.105   9.579 -0.1141 -0.0597 -0.0912
  670ERGO    C110415  15.903   7.062   9.221 -0.2035  0.0491 -0.0737
  670ERGO    C210416  15.755   7.084   8.898 -0.0359  0.1172  0.1532
  671ERGO   ROH10417   7.333   6.757  10.702 -0.0649 -0.2065 -0.0325
  671ERGO    R110418   7.421   6.896  10.471 -0.0830 -0.1704 -0.0154
  671ERGO    R210419   7.632   6.808  10.315 -0.1304 -0.1671 -0.0641
  671ERGO    R310420   7.448   6.826  10.115 -0.1528 -0.0902 -0.0400
  671ERGO    R410421   7.704   6.818   9.977 -0.1567 -0.2478 -0.0741
  671ERGO    R510422   7.549   6.967   9.952 -0.0868 -0.1580 -0.0697
  671ERGO    C110423   7.574   6.840   9.593 -0.1931 -0.2227 -0.0571
  671ERGO    C210424   7.558   6.769   9.225 -0.2723 -0.0322  0.3490
  672ERGO   ROH10425  17.521  12.814   7.724 -0.5228  0.0904 -0.1204
  672ERGO    R110426  17.562  13.064   7.850 -0.2119 -0.0492  0.0663
  672ERGO    R210427  17.489  13.304   7.733  0.2156  0.1458  0.1787
  672ERGO    R310428  17.354  13.339   7.966  0.1356  0.1957  0.1252
  672ERGO    R410429  17.411  13.610   7.872  0.2419  0.1738  0.1325
  672ERGO    R510430  17.459  13.528   8.068  0.1452  0.1733  0.1547
  672ERGO    C110431  17.238  13.821   8.172  0.1821  0.2368  0.0554
  672ERGO    C210432  17.011  14.049   8.261 -0.0649  0.1115  0.3660
  673ERGO   ROH10433  13.584   6.745  10.660 -0.0544  0.1486  0.0329
  673ERGO    R110434  13.535   6.678  10.390 -0.0476  0.0947  0.0455
  673ERGO    R210435  13.411   6.852  10.214  0.0440  0.0947 -0.0144
  673ERGO    R310436  13.633   6.807  10.064  0.0429 -0.0341  0.0198
  673ERGO    R410437  13.415   6.828   9.869  0.0721  0.0689 -0.0128
  673ERGO    R510438  13.558   6.664   9.887 -0.0139 -0.0093  0.0195
  673ERGO    C110439  13.626   6.772   9.528  0.0874 -0.0671  0.0203
  673ERGO    C210440  13.506   6.707   9.143  0.0216 -0.3546  0.2123
  674PSPI    C110441  13.579   0.253   6.364 -0.0353 -0.1683 -0.0015
  674PSPI    C210442  13.507   0.218   5.973  0.0571 -0.0257 -0.0322
  674PSPI    C310443  13.513   0.580   6.143 -0.1031 -0.0955  0.1250
  674PSPI   PO410444  13.776   0.135   6.443 -0.1818 -0.2634 -0.1209
  674PSPI   GL110445  13.707   0.044   6.867  0.0274 -0.2529  0.1109
  674PSPI   GL210446  13.361   0.133   6.763  0.0697 -0.1731 -0.0559
  674PSPI   C1A10447  13.649  -0.116   7.248  0.2206 -0.1530  0.1630
  674PSPI   C2A10448  13.392  -0.165   7.621 -0.0720  0.0328  0.1594
  674PSPI   C3A10449  13.064  -0.135   8.002 -0.0342  0.2740  0.1630
  674PSPI   C4A10450  12.649  -0.339   8.099 -0.1505 -0.1348 -0.1301
  674PSPI   C1B10451  13.170   0.037   7.158  0.0944  0.1592 -0.2672
  674PSPI   C2B10452  12.840  -0.008   7.385 -0.0713  0.0743  0.1706
  674PSPI   C3B10453  12.495  -0.032   7.723  0.2852 -0.0352  0.2007
  674PSPI   C4B10454  12.220   0.042   8.070  0.2893 -0.2166 -0.3539
  675PSPI    C110455   4.319   6.887   5.646  0.2024 -0.0463  0.0569
  675PSPI    C210456   4.440   6.506   5.654  0.0413 -0.0994  0.0044
  675PSPI    C310457   4.440   6.709   5.309  0.0534 -0.0760  0.0182
  675PSPI   PO410458   4.410   7.155   5.762  0.2128 -0.0752  0.1066
  675PSPI   GL110459   4.249   7.276   6.239 -0.0709 -0.1178  0.2182
  675PSPI   GL210460   4.141   7.527   6.350  0.2394  0.0533  0.1842
  675PSPI   C1A10461   4.186   6.990   6.534  0.0404  0.2660  0.0396
  675PSPI   C2A10462   4.198   6.754   6.953  0.1859 -0.0909 -0.0122
  675PSPI   C3A10463   4.216   6.662   7.404  0.1610  0.0239  0.0076
  675PSPI   C4A10464   4.230   6.285   7.578 -0.0041 -0.0316 -0.0025
  675PSPI   C1B10465   4.157   7.413   6.831 -0.1490  0.0706  0.1739
  675PSPI   C2B10466   4.270   7.454   7.235  0.1084 -0.2297 -0.1525
  675PSPI   C3B10467   4.050   7.577   7.469  0.0312  0.0598  0.0686
  675PSPI   C4B10468   4.173   7.592   7.880  0.1124 -0.0779 -0.3253
  676PSPI    C110469   5.160   4.935   5.925  0.2297  0.0885  0.2689
  676PSPI    C210470   5.411   4.743   5.679 -0.0535 -0.0094  0.0518
  676PSPI    C310471   5.451   5.136   5.738  0.0155  0.0155 -0.1542
  676PSPI   PO410472   5.187   4.794   6.155 -0.0366  0.0868 -0.0677
  676PSPI   GL110473   5.051   4.890   6.518  0.1332 -0.0003 -0.0194
  676PSPI   GL210474   4.894   5.156   6.703 -0.0363  0.3796  0.0734
  676PSPI   C1A10475   5.124   4.673   6.847 -0.0174 -0.1452 -0.0245
  676PSPI   C2A10476   5.224   4.556   7.256  0.0710  0.0231 -0.3389
  676PSPI   C3A10477   5.347   4.459   7.627  0.2250  0.5290  0.0833
  676PSPI   C4A10478   5.525   4.507   8.108 -0.0956  0.1935 -0.2790
  676PSPI   C1B10479   4.840   5.013   7.132  0.0574  0.2152  0.0794
  676PSPI   C2B10480   4.976   4.959   7.495  0.2525  0.0332  0.1859
  676PSPI   C3B10481   5.157   4.843   7.900 -0.0350 -0.2502 -0.0521
  676PSPI   C4B10482   5.037   4.777   8.239  0.2218  0.3526 -0.0473
  677PSPI    C110483  15.497  14.840   5.763  0.0368 -0.0139 -0.1227
  677PSPI    C210484  15.417  14.457   5.683  0.0674 -0.0577  0.0522
  677PSPI    C310485  15.780  14.605   5.607  0.0405 -0.0495 -0.0627
  677PSPI   PO410486  15.311  14.918   5.998  0.1647  0.0705 -0.0040
  677PSPI   GL110487  15.375  14.960   6.468 -0.2262  0.1900  0.2407
  677PSPI   GL210488  15.279  15.209   6.435  0.2287  0.0230 -0.0805
  677PSPI   C1A10489  15.467  14.780   6.892 -0.0112 -0.0403 -0.1772
  677PSPI   C2A10490  15.583  14.671   7.290  0.0261 -0.0065  0.0906
  677PSPI   C3A10491  15.935  14.745   7.543 -0.1998 -0.1726  0.0775
  677PSPI   C4A10492  16.245  14.849   7.883 -0.0797  0.1767  0.0380
  677PSPI   C1B10493  15.408  15.314   6.826 -0.2624  0.2361 -0.2147
  677PSPI   C2B10494  15.416  15.178   7.248 -0.0802  0.1509 -0.1535
  677PSPI   C3B10495  15.325  15.007   7.599 -0.0497  0.2185 -0.2983
  677PSPI   C4B10496  15.518  14.732   7.973 -0.3548 -0.0376 -0.0494
  678PSPI    C110497   5.237  14.281   5.368  0.1189 -0.1022  0.1285
  678PSPI    C210498   5.525  14.026   5.477  0.0043 -0.2211  0.1548
  678PSPI    C310499   5.201  13.892   5.284 -0.0055 -0.0789  0.0713
  678PSPI   PO410500   5.171  14.455   5.630 -0.2948 -0.2663 -0.3048
  678PSPI   GL110501   5.092  14.383   6.106 -0.1411  0.0345  0.1129
  678PSPI   GL210502   4.963  14.221   6.215  0.0369 -0.1164 -0.0551
  678PSPI   C1A10503   5.146  14.644   6.516  0.1115  0.0691 -0.2444
  678PSPI   C2A10504   5.254  14.816   6.925 -0.1160 -0.1218  0.1774
  678PSPI   C3A10505   5.580  14.983   7.087  0.0127  0.0945 -0.4179
  678PSPI   C4A10506   5.918  14.931   7.438  0.4879  0.0814 -0.2148
  678PSPI   C1B10507   5.082  14.059   6.589  0.1543  0.0598  0.0330
  678PSPI   C2B10508   5.223  13.903   6.979  0.1475  0.0555 -0.0042
  678PSPI   C3B10509   5.121  13.944   7.462 -0.0984 -0.2275  0.0278
  678PSPI   C4B10510   5.068  14.328   7.766 -0.1155 -0.2301 -0.1136
  679PSPI    C110511  14.231   4.648   6.358 -0.0959  0.0378 -0.2299
  679PSPI    C210512  14.024   4.308   6.325 -0.0860 -0.0088  0.1406
  679PSPI    C310513  14.203   4.465   6.003  0.0725 -0.4565  0.0018
  679PSPI   PO410514  13.998   4.758   6.528  0.3129 -0.0723 -0.1996
  679PSPI   GL110515  13.640   4.783   6.750 -0.3136 -0.1580 -0.1076
  679PSPI   GL210516  13.516   4.570   6.788  0.1046  0.0260 -0.0631
  679PSPI   C1A10517  13.897   4.894   7.132 -0.0548  0.1631  0.2609
  679PSPI   C2A10518  14.156   5.004   7.466  0.1119 -0.0629 -0.3365
  679PSPI   C3A10519  14.318   5.002   7.899  0.2923 -0.2558  0.0971
  679PSPI   C4A10520  14.333   5.239   8.335  0.1034  0.2614  0.0618
  679PSPI   C1B10521  13.358   4.779   7.179 -0.1898 -0.1453  0.0682
  679PSPI   C2B10522  13.060   5.103   7.475  0.1384  0.0536 -0.0693
  679PSPI   C3B10523  12.814   4.895   7.877  0.0687 -0.0674  0.2124
  679PSPI   C4B10524  12.592   4.620   8.068 -0.1708  0.1358 -0.1034
  680PSPI    C110525   5.313  15.954   6.466  0.2317  0.0259  0.0600
  680PSPI    C210526   5.324  16.174   6.132  0.2673  0.1813  0.1624
  680PSPI    C310527   4.991  16.161   6.351  0.0964 -0.2721 -0.1093
  680PSPI   PO410528   5.429  15.760   6.366 -0.0507  0.2013 -0.1730
  680PSPI   GL110529   5.833  15.526   6.395 -0.0788  0.0503  0.1878
  680PSPI   GL210530   5.848  15.232   6.222 -0.2018  0.1805 -0.0928
  680PSPI   C1A10531   5.899  15.376   6.836 -0.0752 -0.1143  0.0228
  680PSPI   C2A10532   6.054  15.390   7.193  0.0930  0.0083 -0.2468
  680PSPI   C3A10533   6.314  15.255   7.528 -0.1215 -0.1605  0.0529
  680PSPI   C4A10534   6.637  14.963   7.631  0.1082  0.0951  0.1316
  680PSPI   C1B10535   6.129  14.940   6.474  0.2211  0.0598  0.1843
  680PSPI   C2B10536   6.259  14.602   6.657  0.0724 -0.1784 -0.1398
  680PSPI   C3B10537   6.438  14.201   6.558  0.2628  0.0475 -0.2873
  680PSPI   C4B10538   6.521  13.767   6.565  0.1145  0.1551 -0.2154
  681PSPI    C110539  17.080   3.751   5.968 -0.0509  0.1049  0.3027
  681PSPI    C210540  17.446   3.893   6.041 -0.0080  0.1161  0.0738
  681PSPI    C310541  17.375   3.685   5.707 -0.1073 -0.2702  0.3281
  681PSPI   PO410542  17.037   3.904   6.285  0.0592 -0.1864 -0.1855
  681PSPI   GL110543  16.916   3.877   6.646  0.2606  0.2366 -0.1736
  681PSPI   GL210544  16.682   3.816   6.735 -0.0115  0.0185 -0.1088
  681PSPI   C1A10545  17.101   3.603   6.916 -0.1166  0.0441 -0.1208
  681PSPI   C2A10546  16.992   3.593   7.357 -0.0753  0.2992 -0.3122
  681PSPI   C3A10547  17.056   3.665   7.858 -0.3807  0.2174  0.0473
  681PSPI   C4A10548  17.085   3.994   8.168 -0.1744  0.0938  0.2063
  681PSPI   C1B10549  16.594   3.799   7.187  0.1022  0.0777  0.0053
  681PSPI   C2B10550  16.499   3.849   7.620  0.0131 -0.1989 -0.1563
  681PSPI   C3B10551  16.577   3.774   8.055  0.0100  0.0215  0.1612
  681PSPI   C4B10552  16.559   3.624   8.439  0.1903 -0.2762 -0.2297
  682PSPI    C110553  10.493   2.446   6.410 -0.3556  0.0349 -0.0038
  682PSPI    C210554  10.257   2.316   6.115 -0.1264 -0.3608 -0.0195
  682PSPI    C310555  10.281   2.110   6.457 -0.1172 -0.0986  0.1401
  682PSPI   PO410556  10.760   2.465   6.298  0.1771  0.0542 -0.1899
  682PSPI   GL110557  11.125   2.466   6.614 -0.2626 -0.1746  0.0792
  682PSPI   GL210558  11.250   2.759   6.814  0.1061  0.0058 -0.0923
  682PSPI   C1A10559  11.240   2.305   7.041  0.1438 -0.0443 -0.3878
  682PSPI   C2A10560  11.254   2.403   7.484  0.0273 -0.1073 -0.1348
  682PSPI   C3A10561  11.194   2.300   7.923 -0.0791  0.0030  0.1372
  682PSPI   C4A10562  11.031   2.168   8.298 -0.1581 -0.0401  0.2165
  682PSPI   C1B10563  11.146   2.941   7.244 -0.0268 -0.1631  0.2828
  682PSPI   C2B10564  11.083   3.200   7.642  0.1648 -0.0359  0.3023
  682PSPI   C3B10565  10.965   3.324   8.021  0.1116  0.0133 -0.0149
  682PSPI   C4B10566  10.747   3.596   8.303 -0.2715  0.0725  0.1544
  683PSPI    C110567  10.901   6.377   6.240 -0.1190 -0.1248  0.1822
  683PSPI    C210568  11.163   6.205   5.992  0.0319  0.2236  0.0931
  683PSPI    C310569  10.772   6.132   5.952  0.1060 -0.2671  0.2000
  683PSPI   PO410570  10.961   6.673   6.255 -0.1633 -0.0470 -0.3485
  683PSPI   GL110571  11.170   6.853   6.584  0.0764 -0.2070 -0.1008
  683PSPI   GL210572  11.050   6.467   6.737  0.1546  0.0944  0.2980
  683PSPI   C1A10573  11.401   6.772   6.887 -0.0383  0.1267 -0.0562
  683PSPI   C2A10574  11.449   6.916   7.288  0.2097 -0.0576 -0.2065
  683PSPI   C3A10575  11.434   6.718   7.719  0.1076 -0.1578  0.2394
  683PSPI   C4A10576  11.076   6.800   8.101 -0.2051 -0.0223 -0.0480
  683PSPI   C1B10577  10.920   6.635   7.093 -0.0180  0.0800 -0.1438
  683PSPI   C2B10578  10.936   6.570   7.535  0.0023 -0.1248  0.2872
  683PSPI   C3B10579  10.616   6.504   7.954 -0.0285  0.1516  0.2044
  683PSPI   C4B10580  10.574   6.526   8.430 -0.0420  0.2996 -0.1402
  684PSPI    C110581  10.196   8.107   5.846 -0.0002 -0.3430  0.0577
  684PSPI    C210582  10.336   7.763   5.697  0.2531 -0.2030 -0.0345
  684PSPI    C310583  10.490   8.111   5.574  0.1056 -0.0624  0.1725
  684PSPI   PO410584  10.215   8.065   6.079  0.0916 -0.1745  0.2948
  684PSPI   GL110585  10.323   8.352   6.439  0.3946 -0.0918  0.1398
  684PSPI   GL210586  10.491   8.039   6.494 -0.4902 -0.2032 -0.2656
  684PSPI   C1A10587  10.098   8.278   6.774 -0.2994  0.2482  0.0674
  684PSPI   C2A10588   9.875   8.614   7.145 -0.1230 -0.0748  0.1386
  684PSPI   C3A10589   9.736   8.453   7.467  0.1539  0.2263 -0.0373
  684PSPI   C4A10590   9.651   8.244   7.825 -0.1004  0.2482  0.0284
  684PSPI   C1B10591  10.602   8.218   6.850  0.1502  0.1257  0.3713
  684PSPI   C2B10592  10.626   8.192   7.183 -0.2571  0.2750  0.0555
  684PSPI   C3B10593  10.334   7.759   7.464 -0.1281 -0.0949 -0.0573
  684PSPI   C4B10594   9.994   7.593   7.503  0.0443 -0.2081 -0.0210
  685PSPI    C110595  14.357   2.141   6.504  0.1601 -0.1591  0.1667
  685PSPI    C210596  14.060   1.907   6.632 -0.0906  0.1248  0.1161
  685PSPI    C310597  13.983   2.282   6.516  0.2631  0.1458 -0.0635
  685PSPI   PO410598  14.576   2.053   6.566 -0.0757  0.0448 -0.0379
  685PSPI   GL110599  14.506   1.912   6.976  0.3030  0.3004 -0.0080
  685PSPI   GL210600  14.715   1.605   7.088  0.1388 -0.1792  0.1688
  685PSPI   C1A10601  14.228   2.054   7.220 -0.0774 -0.0762  0.2458
  685PSPI   C2A10602  14.097   1.984   7.594 -0.0349 -0.4577  0.1320
  685PSPI   C3A10603  13.908   1.799   7.914 -0.2001  0.3302 -0.5192
  685PSPI   C4A10604  13.828   1.617   8.320 -0.5492  0.0739  0.0036
  685PSPI   C1B10605  14.499   1.633   7.527  0.0869  0.0579  0.1154
  685PSPI   C2B10606  14.447   1.609   7.873 -0.0477 -0.0186  0.0789
  685PSPI   C3B10607  14.281   1.485   8.100  0.1549  0.0796 -0.0180
  685PSPI   C4B10608  14.160   1.148   8.230  0.0397  0.3051  0.1767
  686PSPI    C110609   1.133  10.446   5.314 -0.0244 -0.0315  0.1981
  686PSPI    C210610   0.964  10.566   4.972  0.0653 -0.1444  0.1134
  686PSPI    C310611   1.087  10.837   5.239  0.1114 -0.0521 -0.0007
  686PSPI   PO410612   0.993  10.332   5.378 -0.1291 -0.0163  0.0132
  686PSPI   GL110613   0.934  10.260   5.723  0.0686  0.0648  0.0486
  686PSPI   GL210614   0.588  10.259   5.702 -0.1971 -0.0279  0.1120
  686PSPI   C1A10615   1.168  10.346   6.105  0.1496  0.0965  0.1512
  686PSPI   C2A10616   1.267  10.448   6.540 -0.2417 -0.0236 -0.1383
  686PSPI   C3A10617   1.259  10.483   6.975 -0.4294  0.2373  0.2476
  686PSPI   C4A10618   1.590  10.433   7.320 -0.0954  0.0001  0.3223
  686PSPI   C1B10619   0.546  10.135   6.107 -0.2273 -0.1655 -0.0387
  686PSPI   C2B10620   0.729  10.243   6.469  0.0059  0.0596  0.2458
  686PSPI   C3B10621   0.951  10.128   6.758 -0.0653  0.0104 -0.1166
  686PSPI   C4B10622   1.003  10.002   7.207 -0.3063 -0.1739 -0.3425
  687PSPI    C110623   6.088   9.498   5.943  0.0343 -0.0091 -0.0860
  687PSPI    C210624   5.880   9.189   5.797  0.0272 -0.1031  0.1207
  687PSPI    C310625   6.215   9.309   5.614 -0.1474 -0.0206 -0.1505
  687PSPI   PO410626   6.037   9.731   5.964 -0.1393 -0.3544 -0.3611
  687PSPI   GL110627   6.079  10.079   6.242  0.0739  0.0359  0.4223
  687PSPI   GL210628   5.881  10.002   6.445  0.0379 -0.1717  0.1315
  687PSPI   C1A10629   6.473  10.135   6.422 -0.0264 -0.1315 -0.2192
  687PSPI   C2A10630   6.657  10.477   6.609 -0.0301  0.0335  0.0864
  687PSPI   C3A10631   6.465  10.775   6.872  0.0378  0.1775 -0.0599
  687PSPI   C4A10632   6.466  10.903   7.329 -0.0672 -0.1488  0.1179
  687PSPI   C1B10633   6.157  10.121   6.795  0.0039  0.0642  0.1336
  687PSPI   C2B10634   6.438  10.204   6.968 -0.1742  0.1261 -0.0784
  687PSPI   C3B10635   6.440  10.386   7.405 -0.4157 -0.0266  0.2345
  687PSPI   C4B10636   6.176  10.525   7.692 -0.0639  0.2567 -0.1344
  688PSPI    C110637  10.073   3.285   6.413  0.0553 -0.1945 -0.3794
  688PSPI    C210638  10.442   3.247   6.561 -0.0471  0.1145 -0.0277
  688PSPI    C310639  10.389   3.390   6.192  0.1814  0.1319 -0.0556
  688PSPI   PO410640   9.963   3.061   6.458 -0.0212  0.1344 -0.1011
  688PSPI   GL110641   9.864   2.974   6.893  0.2080  0.1270  0.0338
  688PSPI   GL210642   9.776   2.681   6.826  0.1200  0.0302  0.2464
  688PSPI   C1A10643   9.910   3.203   7.241  0.2800  0.1976  0.0297
  688PSPI   C2A10644   9.786   3.196   7.695  0.1776  0.0958  0.0831
  688PSPI   C3A10645   9.542   3.045   8.013  0.2832 -0.2421 -0.0174
  688PSPI   C4A10646   9.198   3.126   8.211  0.1301  0.0049 -0.0771
  688PSPI   C1B10647   9.826   2.351   7.200  0.0902 -0.2754  0.2745
  688PSPI   C2B10648   9.875   2.225   7.579  0.0446 -0.0569 -0.2094
  688PSPI   C3B10649   9.974   1.908   7.937  0.3602  0.0102 -0.0438
  688PSPI   C4B10650   9.850   1.548   8.132  0.1789 -0.0753  0.1459
  689PSPI    C110651   5.034  11.884   5.546  0.1240  0.0312 -0.0422
  689PSPI    C210652   5.393  12.041   5.464  0.1325  0.0143 -0.0371
  689PSPI    C310653   5.096  12.072   5.198  0.1139  0.1008 -0.0066
  689PSPI   PO410654   5.069  11.752   5.718  0.3217  0.0563 -0.1878
  689PSPI   GL110655   4.912  11.566   6.063  0.2584  0.2124 -0.2189
  689PSPI   GL210656   5.197  11.518   6.224 -0.2979  0.1491 -0.1126
  689PSPI   C1A10657   4.743  11.691   6.419 -0.0052  0.0679  0.2087
  689PSPI   C2A10658   4.724  11.818   6.764 -0.3643 -0.0465 -0.0476
  689PSPI   C3A10659   4.807  11.710   7.250 -0.1160 -0.2803 -0.0931
  689PSPI   C4A10660   4.823  11.690   7.706  0.0526  0.0516 -0.1381
  689PSPI   C1B10661   5.158  11.544   6.675  0.0671  0.1776 -0.1960
  689PSPI   C2B10662   5.246  11.562   7.032 -0.0411 -0.1608  0.2175
  689PSPI   C3B10663   5.169  11.349   7.451 -0.2213 -0.1683  0.3288
  689PSPI   C4B10664   5.435  11.000   7.423 -0.0513 -0.1357 -0.1724
  690PSPI    C110665  11.502   1.690   5.836  0.0089  0.0045 -0.2590
  690PSPI    C210666  11.524   2.077   5.738 -0.0142  0.0335 -0.1509
  690PSPI    C310667  11.606   1.797   5.465  0.1484  0.1167 -0.1888
  690PSPI   PO410668  11.648   1.679   6.063 -0.1469  0.0749 -0.3088
  690PSPI   GL110669  11.720   1.361   6.217  0.0384 -0.0555 -0.0909
  690PSPI   GL210670  11.504   1.149   6.398  0.1330  0.1126  0.0390
  690PSPI   C1A10671  11.998   1.442   6.572 -0.4736  0.1562  0.0985
  690PSPI   C2A10672  11.877   1.259   6.992 -0.3325 -0.1514 -0.0333
  690PSPI   C3A10673  12.081   1.267   7.379  0.2709 -0.1632  0.3228
  690PSPI   C4A10674  11.855   1.386   7.769 -0.0363  0.4065  0.2410
  690PSPI   C1B10675  11.485   1.109   6.782  0.1056 -0.1946 -0.0576
  690PSPI   C2B10676  11.408   1.007   7.139 -0.1338 -0.1081  0.0127
  690PSPI   C3B10677  11.602   1.025   7.499  0.0160 -0.2955 -0.0455
  690PSPI   C4B10678  11.896   0.914   7.778  0.0300  0.0579 -0.0755
  691PSPI    C110679   0.994  17.057   5.897  0.1353  0.1488 -0.0937
  691PSPI    C210680   1.317  17.280   5.825  0.0919  0.2298 -0.0392
  691PSPI    C310681   1.009  17.286   5.570  0.1415  0.1367 -0.1020
  691PSPI   PO410682   1.128  16.757   5.958 -0.0787  0.2257  0.1716
  691PSPI   GL110683   1.278  16.646   6.368  0.2394 -0.3513 -0.4130
  691PSPI   GL210684   1.081  16.749   6.644  0.2533 -0.2084 -0.3102
  691PSPI   C1A10685   1.425  16.422   6.716 -0.1990 -0.1002  0.2349
  691PSPI   C2A10686   1.689  16.399   6.951 -0.0811  0.1048  0.1033
  691PSPI   C3A10687   1.832  16.276   7.269 -0.1292  0.2095  0.0746
  691PSPI   C4A10688   2.064  16.190   7.720  0.3507  0.1275  0.0231
  691PSPI   C1B10689   0.896  16.992   6.938  0.2159  0.0051 -0.2715
  691PSPI   C2B10690   0.843  16.883   7.417  0.1121  0.1671  0.1442
  691PSPI   C3B10691   0.738  16.659   7.719  0.1338  0.0545 -0.0813
  691PSPI   C4B10692   0.921  16.363   7.955  0.0784  0.0909  0.0739
  692PSPI    C110693   0.981  12.674   5.514  0.2199 -0.1225  0.0720
  692PSPI    C210694   1.331  12.770   5.347  0.1347 -0.1872 -0.1472
  692PSPI    C310695   1.180  12.403   5.297  0.0763 -0.1864  0.0190
  692PSPI   PO410696   0.925  12.805   5.687 -0.0880  0.1347  0.0282
  692PSPI   GL110697   0.885  12.797   6.139  0.0366 -0.1079  0.0758
  692PSPI   GL210698   1.054  13.113   6.119 -0.2875  0.2522  0.0981
  692PSPI   C1A10699   1.003  12.504   6.306 -0.2314  0.3408  0.1025
  692PSPI   C2A10700   1.328  12.240   6.180  0.1388  0.1498  0.1913
  692PSPI   C3A10701   1.698  12.046   6.199 -0.1078 -0.0098  0.0441
  692PSPI   C4A10702   2.057  11.771   6.222  0.2717  0.0040 -0.0010
  692PSPI   C1B10703   0.754  13.122   6.432 -0.0871 -0.0790 -0.1744
  692PSPI   C2B10704   0.452  13.099   6.791  0.1514 -0.1808 -0.1348
  692PSPI   C3B10705   0.408  12.925   7.171  0.1221  0.1716 -0.1423
  692PSPI   C4B10706   0.542  12.682   7.524  0.0671 -0.1821  0.0500
  693PSPI    C110707  14.044   8.819   6.091  0.3649 -0.0522  0.0583
  693PSPI    C210708  14.022   9.218   6.080 -0.0739 -0.0686  0.1557
  693PSPI    C310709  13.923   9.004   5.758 -0.3203 -0.1118  0.2572
  693PSPI   PO410710  13.943   8.723   6.235 -0.0099 -0.1001 -0.0183
  693PSPI   GL110711  13.921   9.030   6.683 -0.3687  0.0159  0.1432
  693PSPI   GL210712  13.906   8.732   6.756  0.3443 -0.1990  0.0070
  693PSPI   C1A10713  13.744   9.205   7.021  0.0024  0.1590  0.1815
  693PSPI   C2A10714  13.381   9.073   7.300 -0.1315 -0.1825  0.2259
  693PSPI   C3A10715  13.207   9.110   7.734  0.1956  0.0377 -0.1036
  693PSPI   C4A10716  12.875   9.006   7.932 -0.1167 -0.3954  0.0005
  693PSPI   C1B10717  13.533   8.722   6.886  0.1006 -0.2826 -0.3481
  693PSPI   C2B10718  13.286   8.636   7.193 -0.0668  0.1908  0.0724
  693PSPI   C3B10719  13.207   8.575   7.603  0.0691 -0.0928  0.2844
  693PSPI   C4B10720  12.958   8.512   7.975  0.3848  0.1693 -0.2743
  694POPI    C110721   9.601   2.511   6.239 -0.0683 -0.0415 -0.0474
  694POPI    C210722   9.954   2.566   6.418 -0.1443 -0.0472  0.1058
  694POPI    C310723   9.872   2.755   6.076 -0.0534  0.0770  0.1518
  694POPI   PO410724   9.536   2.236   6.276  0.1222 -0.3446 -0.0339
  694POPI   GL110725   9.538   2.085   6.674  0.0281  0.2331 -0.2458
  694POPI   GL210726   9.814   2.117   6.715 -0.2558  0.2664  0.1623
  694POPI   C1A10727   9.519   1.886   7.047 -0.0262  0.0962 -0.0589
  694POPI   D2A10728   9.626   1.799   7.470  0.2780 -0.1661  0.1694
  694POPI   C3A10729   9.581   1.450   7.691  0.2015  0.3293  0.0815
  694POPI   C4A10730   9.561   1.075   7.906  0.0505  0.4033 -0.0145
  694POPI   C1B10731  10.085   1.978   7.049  0.1506  0.2695  0.1354
  694POPI   C2B10732  10.369   2.017   7.319 -0.4349 -0.3715 -0.2318
  694POPI   C3B10733  10.332   2.197   7.800  0.0311  0.0316 -0.2776
  694POPI   C4B10734  10.582   2.496   7.973  0.0184 -0.2289 -0.2993
  695POPI    C110735   3.736   9.170   5.612  0.0601 -0.1662  0.0330
  695POPI    C210736   3.546   9.228   5.264 -0.3600 -0.2317  0.2461
  695POPI    C310737   3.941   9.163   5.268 -0.3000  0.0672 -0.1930
  695POPI   PO410738   3.481   9.103   5.814 -0.4934  0.0441  0.0163
  695POPI   GL110739   3.428   9.031   6.330 -0.4143 -0.3040  0.0140
  695POPI   GL210740   3.166   8.814   6.254  0.3282  0.3820 -0.0204
  695POPI   C1A10741   3.734   9.095   6.727  0.0011 -0.0343 -0.0367
  695POPI   D2A10742   3.775   9.028   7.160  0.0716  0.2393  0.0495
  695POPI   C3A10743   3.445   9.152   7.418 -0.0194 -0.0426 -0.1500
  695POPI   C4A10744   3.173   9.369   7.552  0.1313  0.0482 -0.2883
  695POPI   C1B10745   2.991   8.870   6.611  0.1086 -0.1963 -0.0403
  695POPI   C2B10746   2.844   8.718   7.040 -0.1531  0.2187  0.0403
  695POPI   C3B10747   2.802   8.375   7.369  0.1131  0.3663  0.0220
  695POPI   C4B10748   2.598   8.201   7.727 -0.0697  0.0001  0.1287
  696POPI    C110749  15.437  11.533   5.573  0.0319 -0.1166  0.0466
  696POPI    C210750  15.054  11.613   5.652  0.1311  0.2854  0.1407
  696POPI    C310751  15.197  11.669   5.283  0.0013 -0.2766 -0.0046
  696POPI   PO410752  15.551  11.691   5.786  0.1196  0.1043  0.1061
  696POPI   GL110753  15.711  11.697   6.142 -0.1217  0.1843  0.1092
  696POPI   GL210754  15.987  11.865   6.211  0.2637 -0.3464 -0.0309
  696POPI   C1A10755  15.645  11.871   6.616  0.0170 -0.0769  0.2178
  696POPI   D2A10756  15.810  11.872   7.023 -0.0828 -0.0179 -0.0827
  696POPI   C3A10757  16.241  11.821   7.185 -0.2836  0.0821  0.1795
  696POPI   C4A10758  16.457  11.625   6.976 -0.1621 -0.0647 -0.0553
  696POPI   C1B10759  16.136  11.899   6.624  0.0068 -0.3449 -0.2461
  696POPI   C2B10760  16.435  12.214   6.848 -0.1351 -0.1494  0.2360
  696POPI   C3B10761  16.522  12.319   7.205  0.1339 -0.0322 -0.1300
  696POPI   C4B10762  16.579  12.058   7.408  0.0815 -0.4776 -0.0936
  697POPI    C110763   9.621  12.843   5.887  0.2678  0.0345 -0.1244
  697POPI    C210764   9.312  12.613   5.994  0.1248  0.2742 -0.0150
  697POPI    C310765   9.685  12.471   6.021  0.0278 -0.0101 -0.1297
  697POPI   PO410766   9.605  13.077   6.082  0.0215 -0.1274  0.0076
  697POPI   GL110767   9.900  13.211   6.369 -0.0029  0.0200  0.2760
  697POPI   GL210768   9.728  12.930   6.566  0.0785 -0.0560 -0.3648
  697POPI   C1A10769   9.806  13.427   6.742  0.0376 -0.2056  0.0810
  697POPI   D2A10770   9.507  13.269   6.962 -0.1131  0.2171  0.0618
  697POPI   C3A10771   9.497  13.336   7.332 -0.1686 -0.5455 -0.3035
  697POPI   C4A10772   9.220  13.416   7.662 -0.0916  0.3624 -0.3164
  697POPI   C1B10773   9.653  12.763   6.908  0.2275 -0.0409 -0.0367
  697POPI   C2B10774   9.713  12.785   7.311  0.0938 -0.2065 -0.1080
  697POPI   C3B10775   9.852  12.803   7.733  0.0692 -0.0195 -0.1259
  697POPI   C4B10776   9.698  12.836   8.134 -0.0514 -0.0529 -0.2370
  698POPI    C110777  11.613  13.651   6.411 -0.2710 -0.0145 -0.0595
  698POPI    C210778  11.798  13.755   6.072 -0.2174 -0.0172 -0.0312
  698POPI    C310779  12.010  13.701   6.407 -0.2677 -0.0347 -0.0021
  698POPI   PO410780  11.403  13.516   6.343  0.1638  0.0023 -0.2538
  698POPI   GL110781  11.164  13.198   6.630 -0.1478 -0.2055 -0.0341
  698POPI   GL210782  11.418  13.057   6.532 -0.0093 -0.3550 -0.0038
  698POPI   C1A10783  11.169  13.227   6.938  0.1446 -0.1831 -0.1413
  698POPI   D2A10784  11.275  13.048   7.319  0.3379  0.0308 -0.2094
  698POPI   C3A10785  11.658  12.921   7.560  0.2004  0.1528  0.0626
  698POPI   C4A10786  11.909  13.034   7.907 -0.1226  0.0722 -0.2858
  698POPI   C1B10787  11.578  13.007   6.950 -0.2199  0.1116  0.0932
  698POPI   C2B10788  11.992  12.986   7.034 -0.0009 -0.1216  0.2835
  698POPI   C3B10789  12.102  12.783   7.387 -0.1585  0.1394  0.0431
  698POPI   C4B10790  12.142  12.558   7.799 -0.0574 -0.0672 -0.0121
  699POPI    C110791   3.071   7.059   5.604 -0.0733 -0.2247 -0.1993
  699POPI    C210792   3.206   6.691   5.682  0.0355 -0.1305  0.0661
  699POPI    C310793   3.459   6.974   5.556 -0.0221 -0.1082 -0.0001
  699POPI   PO410794   2.911   7.136   5.873 -0.0375  0.4304  0.2718
  699POPI   GL110795   2.749   6.751   6.105 -0.0890  0.4441 -0.1495
  699POPI   GL210796   2.915   6.590   6.077  0.0356 -0.1794  0.0816
  699POPI   C1A10797   2.815   6.937   6.550  0.3048  0.3160  0.2119
  699POPI   D2A10798   3.040   6.779   6.940  0.1077  0.1568 -0.0078
  699POPI   C3A10799   2.884   7.057   7.127 -0.0795  0.0972 -0.0291
  699POPI   C4A10800   2.622   7.382   7.278  0.2812 -0.0034 -0.3412
  699POPI   C1B10801   2.876   6.330   6.477 -0.2110  0.0814 -0.2319
  699POPI   C2B10802   2.602   6.351   6.806 -0.1273  0.0993  0.0195
  699POPI   C3B10803   2.654   6.445   7.117  0.0662 -0.2149 -0.2220
  699POPI   C4B10804   2.739   6.333   7.582 -0.1959  0.4546 -0.2355
  700POPI    C110805   1.238   2.520   6.205  0.0913 -0.0464 -0.1309
  700POPI    C210806   1.351   2.408   5.838 -0.1980 -0.2082 -0.1735
  700POPI    C310807   0.964   2.471   5.918 -0.1277 -0.0850  0.0814
  700POPI   PO410808   1.448   2.368   6.371  0.0596 -0.0907 -0.1215
  700POPI   GL110809   1.730   2.570   6.673  0.2506  0.1698  0.1439
  700POPI   GL210810   1.801   2.282   6.705 -0.0392  0.0669 -0.2789
  700POPI   C1A10811   1.606   2.746   7.090 -0.4844  0.2839 -0.2083
  700POPI   D2A10812   1.688   2.709   7.526 -0.0955 -0.3896  0.2264
  700POPI   C3A10813   1.539   2.911   7.929  0.0947 -0.0131  0.1721
  700POPI   C4A10814   1.344   2.775   8.328 -0.3549  0.1697  0.2731
  700POPI   C1B10815   1.788   2.253   7.152  0.3779 -0.2108  0.2417
  700POPI   C2B10816   1.606   2.260   7.548  0.0280  0.2742 -0.1708
  700POPI   C3B10817   1.430   1.966   7.847 -0.2290 -0.0989  0.1443
  700POPI   C4B10818   1.629   1.807   8.227  0.4378 -0.0245  0.1183
  701POPI    C110819   8.969   5.066   5.648 -0.1280 -0.2370  0.1210
  701POPI    C210820   9.193   4.836   5.410 -0.0439 -0.1371  0.1025
  701POPI    C310821   8.883   5.040   5.259 -0.0059 -0.0933  0.0833
  701POPI   PO410822   9.076   5.118   5.846  0.2488 -0.0355  0.0451
  701POPI   GL110823   9.034   5.220   6.260  0.0093  0.0240 -0.0545
  701POPI   GL210824   8.782   5.008   6.530 -0.3009  0.2561  0.2284
  701POPI   C1A10825   9.264   5.257   6.659 -0.1324  0.0444  0.0938
  701POPI   D2A10826   9.608   5.223   6.858 -0.0620  0.1444 -0.0242
  701POPI   C3A10827   9.436   5.189   7.275 -0.1745 -0.1191  0.3627
  701POPI   C4A10828   9.354   5.265   7.715  0.0182 -0.2781  0.2791
  701POPI   C1B10829   8.985   5.206   7.031  0.0371 -0.0854 -0.0001
  701POPI   C2B10830   9.053   5.455   7.307  0.1103  0.1039 -0.1616
  701POPI   C3B10831   8.942   5.552   7.707 -0.1697  0.1827  0.0560
  701POPI   C4B10832   8.731   5.696   8.057  0.4854 -0.2957 -0.1263
  702POPI    C110833   9.857  16.593   5.738  0.2025 -0.0995 -0.0217
  702POPI    C210834  10.040  16.825   5.469  0.0789 -0.0234 -0.0413
  702POPI    C310835   9.952  16.445   5.379 -0.2671  0.0986 -0.2368
  702POPI   PO410836  10.044  16.569   5.969 -0.1396  0.1280 -0.2702
  702POPI   GL110837   9.991  17.002   6.266 -0.0487 -0.0827  0.3445
  702POPI   GL210838   9.709  17.234   6.357  0.0245 -0.1731 -0.1787
  702POPI   C1A10839  10.220  16.952   6.650 -0.1360 -0.1251  0.2365
  702POPI   D2A10840  10.357  16.722   6.973 -0.3158  0.2094 -0.2673
  702POPI   C3A10841  10.836  16.705   7.038  0.2164  0.0296 -0.1281
  702POPI   C4A10842  11.106  16.968   6.772 -0.1656  0.0122  0.0776
  702POPI   C1B10843   9.745  17.239   6.791  0.0511 -0.0258 -0.4848
  702POPI   C2B10844   9.628  17.101   7.151  0.0910  0.0317 -0.1320
  702POPI   C3B10845   9.725  17.096   7.581 -0.0994 -0.2180 -0.2015
  702POPI   C4B10846   9.440  17.241   7.994 -0.0703  0.2019 -0.1481
  703POPI    C110847  14.495   3.078   6.285 -0.0974  0.1697  0.0251
  703POPI    C210848  14.620   2.846   5.984  0.1014  0.0963  0.1621
  703POPI    C310849  14.404   3.174   5.907  0.1641  0.0869 -0.0611
  703POPI   PO410850  14.740   3.204   6.414  0.2968  0.1508  0.3011
  703POPI   GL110851  14.896   3.484   6.736 -0.0149 -0.2426 -0.0032
  703POPI   GL210852  15.153   3.553   6.825  0.1774 -0.1386  0.2438
  703POPI   C1A10853  14.665   3.290   7.082 -0.2155 -0.0848  0.1377
  703POPI   D2A10854  14.856   3.002   7.355 -0.1070 -0.0028  0.2346
  703POPI   C3A10855  14.904   2.920   7.816 -0.2360 -0.1182 -0.1582
  703POPI   C4A10856  15.067   2.800   8.263  0.0706  0.1869 -0.0789
  703POPI   C1B10857  15.055   3.462   7.308  0.0646 -0.0262  0.3216
  703POPI   C2B10858  14.887   3.389   7.763 -0.2168  0.0248  0.0620
  703POPI   C3B10859  14.942   3.354   8.165 -0.0772  0.4365 -0.1338
  703POPI   C4B10860  15.171   3.307   8.531 -0.2231  0.0083  0.3517
  704POPI    C110861  17.317   2.997   6.490 -0.0050 -0.1472  0.1011
  704POPI    C210862  17.548   2.891   6.181  0.0157 -0.2126  0.1390
  704POPI    C310863  17.153   2.835   6.163 -0.0173  0.0454  0.0099
  704POPI   PO410864  17.528   2.898   6.697 -0.0016  0.0123  0.1016
  704POPI   GL110865  17.590   2.891   7.126  0.0294  0.0510 -0.1686
  704POPI   GL210866  17.951   2.952   6.958  0.3546 -0.1999 -0.1040
  704POPI   C1A10867  17.872   2.649   7.346 -0.1140  0.1021  0.0646
  704POPI   D2A10868  17.977   2.444   7.662  0.0661 -0.3556 -0.0833
  704POPI   C3A10869  18.232   2.480   8.069 -0.1412  0.0284  0.2106
  704POPI   C4A10870  18.670   2.287   7.995  0.1676 -0.0903  0.1154
  704POPI   C1B10871  18.230   2.973   7.350  0.0575 -0.1547  0.0899
  704POPI   C2B10872  18.254   2.964   7.854 -0.0424 -0.0862 -0.0172
  704POPI   C3B10873  18.442   3.201   8.154 -0.2667  0.1953  0.0979
  704POPI   C4B10874  18.407   3.611   8.384 -0.0667 -0.0432  0.3877
  705POPI    C110875  11.251  14.407   5.851  0.0665  0.0167  0.0790
  705POPI    C210876  10.981  14.113   5.827  0.0022  0.0764  0.0656
  705POPI    C310877  11.025  14.369   5.523  0.3317 -0.1544 -0.0865
  705POPI   PO410878  11.285  14.511   6.084  0.2701  0.2151  0.4022
  705POPI   GL110879  11.376  14.368   6.516 -0.1439  0.0664  0.0219
  705POPI   GL210880  10.995  14.316   6.404  0.3016  0.1817 -0.3608
  705POPI   C1A10881  11.381  14.425   7.029  0.1188  0.1176  0.1445
  705POPI   D2A10882  11.397  14.468   7.534 -0.1798 -0.0277  0.0088
  705POPI   C3A10883  11.368  14.951   7.753 -0.0567  0.2477  0.1348
  705POPI   C4A10884  10.998  15.152   7.929 -0.0633 -0.0603 -0.1367
  705POPI   C1B10885  10.975  14.195   6.806 -0.1651 -0.1738  0.2083
  705POPI   C2B10886  10.995  14.207   7.294  0.1496 -0.2496 -0.0874
  705POPI   C3B10887  10.779  14.048   7.600 -0.0778 -0.0395 -0.0680
  705POPI   C4B10888  10.875  14.136   8.108 -0.0536 -0.4205  0.1501
  706POPI    C110889   4.718  15.745   5.807  0.0311 -0.1421  0.2325
  706POPI    C210890   5.110  15.798   5.869  0.0379 -0.0377  0.1051
  706POPI    C310891   4.984  15.545   5.585  0.0130 -0.0606  0.1366
  706POPI   PO410892   4.589  15.963   5.825 -0.0987 -0.0402 -0.1211
  706POPI   GL110893   4.532  16.023   6.238 -0.2915 -0.2091  0.0609
  706POPI   GL210894   4.252  16.094   6.246 -0.1129 -0.2516 -0.2880
  706POPI   C1A10895   4.569  16.001   6.661  0.1275  0.2461  0.3862
  706POPI   D2A10896   4.802  16.153   6.938  0.0258  0.1627  0.2896
  706POPI   C3A10897   4.628  15.989   7.289 -0.1049  0.0439  0.1682
  706POPI   C4A10898   4.485  15.796   7.796 -0.1920 -0.0357  0.1635
  706POPI   C1B10899   4.087  16.127   6.668 -0.2286  0.0142 -0.1163
  706POPI   C2B10900   4.186  16.038   7.016  0.1336 -0.0225  0.0766
  706POPI   C3B10901   4.144  15.776   7.342  0.1522 -0.1550 -0.0160
  706POPI   C4B10902   4.047  15.570   7.798  0.2835 -0.0208  0.1333
  707POPI    C110903   0.569   2.098   5.977  0.0719 -0.0767  0.1641
  707POPI    C210904   0.408   2.451   5.881  0.1391 -0.1073 -0.0679
  707POPI    C310905   0.197   2.115   5.831  0.2282 -0.1365 -0.2536
  707POPI   PO410906   0.632   2.036   6.190  0.1938 -0.1518 -0.0278
  707POPI   GL110907   0.853   2.214   6.417  0.0976  0.0919  0.3695
  707POPI   GL210908   1.081   2.013   6.565  0.1047  0.0229 -0.0849
  707POPI   C1A10909   0.719   2.265   6.835  0.0616  0.0947 -0.1686
  707POPI   D2A10910   0.439   2.353   7.220 -0.0512  0.2520  0.2167
  707POPI   C3A10911   0.638   2.558   7.597 -0.2794  0.0395 -0.0268
  707POPI   C4A10912   0.890   2.863   7.881  0.1629 -0.0602 -0.3105
  707POPI   C1B10913   0.911   1.810   6.921 -0.1629 -0.0328  0.1684
  707POPI   C2B10914   0.760   1.987   7.291 -0.1657  0.1944  0.1776
  707POPI   C3B10915   0.515   2.025   7.682  0.0032  0.1182 -0.0526
  707POPI   C4B10916   0.134   1.939   7.957  0.1031  0.0115 -0.1781
  708POPI    C110917   6.533   3.618   5.987 -0.0444  0.2532  0.0665
  708POPI    C210918   6.141   3.653   5.915 -0.0082  0.0284 -0.2569
  708POPI    C310919   6.336   3.319   5.809  0.2470  0.0854  0.0184
  708POPI   PO410920   6.594   3.858   6.106 -0.0705  0.0510 -0.1076
  708POPI   GL110921   6.949   3.635   6.413 -0.1181  0.0379  0.0349
  708POPI   GL210922   6.680   3.458   6.452 -0.1382  0.3174  0.0102
  708POPI   C1A10923   7.292   3.631   6.682 -0.0367  0.2517 -0.3182
  708POPI   D2A10924   7.515   3.724   7.022  0.3039 -0.1367 -0.2214
  708POPI   C3A10925   7.290   3.739   7.304 -0.0889 -0.1320  0.1671
  708POPI   C4A10926   7.028   3.990   7.549  0.2195  0.1188  0.2031
  708POPI   C1B10927   6.610   3.056   6.741 -0.0132 -0.2415  0.0080
  708POPI   C2B10928   6.710   2.973   7.108 -0.0322 -0.1767  0.0085
  708POPI   C3B10929   7.105   3.097   7.381  0.0748  0.2662 -0.1558
  708POPI   C4B10930   7.165   3.382   7.693  0.3480 -0.1585  0.2043
  709POPI    C110931   7.987  12.186   5.940 -0.0064  0.1036  0.1293
  709POPI    C210932   7.599  12.103   5.888  0.0354 -0.0744  0.0933
  709POPI    C310933   7.771  12.394   5.675 -0.0554 -0.0596  0.0396
  709POPI   PO410934   8.156  11.936   5.971  0.0534 -0.0445 -0.4057
  709POPI   GL110935   8.548  11.821   6.299 -0.0443  0.0277 -0.2103
  709POPI   GL210936   8.401  12.072   6.441  0.0324 -0.0062  0.0571
  709POPI   C1A10937   8.531  11.697   6.728  0.1983  0.3933 -0.0203
  709POPI   D2A10938   8.557  11.597   7.113 -0.0369 -0.1335 -0.1011
  709POPI   C3A10939   8.538  11.100   7.291  0.0848 -0.1128 -0.2008
  709POPI   C4A10940   8.142  10.833   7.392 -0.0323 -0.0119  0.1226
  709POPI   C1B10941   7.951  12.020   6.584 -0.1622  0.0271  0.0876
  709POPI   C2B10942   7.667  11.847   6.771  0.1247  0.3342 -0.0508
  709POPI   C3B10943   7.618  11.707   7.203 -0.3098  0.0808 -0.0628
  709POPI   C4B10944   7.655  11.592   7.648 -0.1820  0.2664  0.3376
  710POPI    C110945   4.556  15.224   5.824  0.3332  0.0029 -0.0102
  710POPI    C210946   4.710  15.110   5.473  0.1081 -0.0160 -0.1046
  710POPI    C310947   4.467  15.427   5.491 -0.0949 -0.1744 -0.0104
  710POPI   PO410948   4.709  15.252   5.953 -0.0677  0.2881 -0.1664
  710POPI   GL110949   4.950  15.422   6.269 -0.1471  0.2121  0.1727
  710POPI   GL210950   4.892  15.691   6.309  0.0293  0.2555 -0.0091
  710POPI   C1A10951   4.854  15.166   6.615 -0.0584 -0.0952  0.0242
  710POPI   D2A10952   4.698  14.888   6.926 -0.0399 -0.1196  0.0948
  710POPI   C3A10953   4.556  14.926   7.316 -0.0666 -0.0625  0.6462
  710POPI   C4A10954   4.181  14.750   7.504  0.0428  0.1150 -0.3679
  710POPI   C1B10955   5.004  15.709   6.756 -0.0132  0.4165 -0.1543
  710POPI   C2B10956   5.096  15.797   7.192 -0.0784  0.1665 -0.0382
  710POPI   C3B10957   5.048  16.043   7.556 -0.1389 -0.1198 -0.0432
  710POPI   C4B10958   4.876  16.005   8.039 -0.2218  0.1409 -0.0217
  711POPI    C110959   9.034  10.248   5.848 -0.1067  0.0478  0.2635
  711POPI    C210960   8.833   9.923   5.730  0.0863  0.0455 -0.0703
  711POPI    C310961   8.861  10.240   5.487  0.2830  0.1366  0.0685
  711POPI   PO410962   9.184  10.180   6.004  0.0446 -0.0485 -0.0263
  711POPI   GL110963   9.086   9.979   6.308  0.4236  0.0510 -0.0720
  711POPI   GL210964   8.779  10.007   6.233 -0.1805  0.1655 -0.1248
  711POPI   C1A10965   9.294   9.973   6.672  0.0633  0.0046  0.1567
  711POPI   D2A10966   9.484  10.033   7.129  0.0562 -0.2179  0.3178
  711POPI   C3A10967   9.428  10.249   7.448  0.0397  0.2194 -0.1403
  711POPI   C4A10968   9.397  10.260   7.926 -0.0952  0.1214  0.0216
  711POPI   C1B10969   8.756  10.089   6.748  0.2599  0.2308 -0.2018
  711POPI   C2B10970   8.848  10.174   7.154  0.1492  0.0528 -0.1986
  711POPI   C3B10971   8.890  10.295   7.611 -0.0887  0.2067  0.2448
  711POPI   C4B10972   8.574  10.349   7.965 -0.1346  0.0356  0.0706
  712POPI    C110973   6.771   9.648   5.863  0.0298  0.1407 -0.1384
  712POPI    C210974   6.507   9.936   5.947 -0.0092  0.0811 -0.0558
  712POPI    C310975   6.468   9.720   5.612 -0.0146  0.1312 -0.0876
  712POPI   PO410976   6.792   9.481   6.150 -0.1523  0.0382  0.1059
  712POPI   GL110977   6.932   9.792   6.438 -0.0430 -0.3628  0.0192
  712POPI   GL210978   6.998  10.061   6.605 -0.1369 -0.2439 -0.2745
  712POPI   C1A10979   6.575   9.773   6.766 -0.1160 -0.2828 -0.0066
  712POPI   D2A10980   6.519   9.712   7.179 -0.1199 -0.1932 -0.1170
  712POPI   C3A10981   6.126   9.822   7.258 -0.0684 -0.2081 -0.1390
  712POPI   C4A10982   5.966  10.234   7.222 -0.0756 -0.0159 -0.0912
  712POPI   C1B10983   6.937  10.108   6.971  0.1794  0.1026 -0.0238
  712POPI   C2B10984   6.850  10.110   7.442  0.2670 -0.1349  0.2063
  712POPI   C3B10985   6.623  10.207   7.892  0.0420  0.0366  0.0440
  712POPI   C4B10986   6.331  10.326   8.181  0.0693 -0.0974  0.4221
  713POPI    C110987  13.371  14.847   6.036 -0.0381  0.0782  0.1108
  713POPI    C210988  13.542  15.003   5.710 -0.0800 -0.0369  0.0332
  713POPI    C310989  13.310  15.231   5.942  0.0877  0.0907  0.0780
  713POPI   PO410990  13.621  14.631   6.157  0.0101 -0.2639  0.3451
  713POPI   GL110991  13.635  14.355   6.427  0.0700 -0.0444  0.2297
  713POPI   GL210992  13.783  14.115   6.500  0.0745 -0.1522  0.0567
  713POPI   C1A10993  13.306  14.256   6.696 -0.1530 -0.1801  0.0025
  713POPI   D2A10994  13.177  14.259   7.151  0.3059  0.1471  0.0902
  713POPI   C3A10995  12.970  14.602   7.291  0.1388 -0.1045 -0.6322
  713POPI   C4A10996  12.707  14.842   7.279 -0.1010 -0.2604  0.2574
  713POPI   C1B10997  13.768  14.126   6.918  0.0062 -0.1562  0.3413
  713POPI   C2B10998  13.707  14.230   7.348  0.0703 -0.0844  0.2047
  713POPI   C3B10999  14.019  14.262   7.676  0.1865 -0.1027 -0.0948
  713POPI   C4B11000  14.213  14.563   8.040  0.2648  0.0508 -0.0128
  714POPI    C111001  12.369   4.175   5.886 -0.0694  0.0920 -0.1205
  714POPI    C211002  12.130   3.857   5.848  0.0103  0.0140  0.0222
  714POPI    C311003  11.987   4.224   5.778 -0.0983 -0.0478 -0.0834
  714POPI   PO411004  12.554   4.095   6.088  0.1814  0.1105 -0.1447
  714POPI   GL111005  12.572   4.023   6.534  0.0981  0.1531  0.1449
  714POPI   GL211006  12.489   4.352   6.518  0.1121 -0.2782  0.0865
  714POPI   C1A11007  12.432   4.003   6.922  0.2369 -0.2548 -0.0032
  714POPI   D2A11008  12.384   3.708   7.274 -0.0883 -0.3909  0.1660
  714POPI   C3A11009  12.403   3.875   7.669 -0.1883  0.0733 -0.0031
  714POPI   C4A11010  12.298   3.915   8.115 -0.1725 -0.2005 -0.1106
  714POPI   C1B11011  12.482   4.547   7.003 -0.2573 -0.2382 -0.0967
  714POPI   C2B11012  12.580   4.216   7.312 -0.1266 -0.0570  0.3124
  714POPI   C3B11013  12.759   4.255   7.753 -0.1495 -0.0869 -0.1031
  714POPI   C4B11014  12.761   4.120   8.213  0.0689 -0.0675 -0.2119
  715POPI    C111015   1.625   6.088   5.431  0.0980 -0.0962  0.1945
  715POPI    C211016   1.311   6.329   5.487 -0.0442 -0.1820 -0.2034
  715POPI    C311017   1.254   5.940   5.415  0.1753 -0.2934  0.1961
  715POPI   PO411018   1.850   6.186   5.656  0.0491 -0.0539 -0.0006
  715POPI   GL111019   2.021   6.424   6.003 -0.1381  0.0083 -0.0107
  715POPI   GL211020   2.097   6.720   6.133  0.0088  0.1175  0.0931
  715POPI   C1A11021   1.730   6.408   6.347 -0.1518 -0.2448  0.0460
  715POPI   D2A11022   1.735   6.462   6.789 -0.1361  0.1284  0.1341
  715POPI   C3A11023   1.663   6.526   7.196 -0.0140 -0.2384  0.0581
  715POPI   C4A11024   1.617   6.702   7.581  0.2822  0.0982  0.0685
  715POPI   C1B11025   2.242   6.573   6.543  0.0531 -0.2381  0.1326
  715POPI   C2B11026   2.137   6.505   6.996  0.1719  0.0280 -0.2802
  715POPI   C3B11027   2.096   6.712   7.421 -0.0796  0.2124 -0.1564
  715POPI   C4B11028   2.289   6.882   7.802  0.1157  0.2324 -0.3491
  716POPI    C111029  11.713   8.956   5.474 -0.0262 -0.0841 -0.0600
  716POPI    C211030  11.479   8.690   5.658 -0.0100 -0.1620 -0.1514
  716POPI    C311031  11.617   8.614   5.291  0.0785 -0.0726 -0.1368
  716POPI   PO411032  11.868   9.042   5.720 -0.0036 -0.0840 -0.0328
  716POPI   GL111033  11.767   8.774   6.090  0.0755  0.1864 -0.0597
  716POPI   GL211034  11.537   8.601   6.163  0.1506  0.3869  0.0727
  716POPI   C1A11035  11.693   9.096   6.458 -0.0476 -0.1849  0.2838
  716POPI   D2A11036  11.923   9.489   6.562  0.0170  0.3938 -0.1378
  716POPI   C3A11037  11.851   9.544   6.987 -0.2044  0.0088  0.1013
  716POPI   C4A11038  11.862   9.588   7.416  0.1091 -0.1860  0.0019
  716POPI   C1B11039  11.450   8.389   6.573  0.0025  0.0949 -0.0165
  716POPI   C2B11040  11.536   8.371   7.010 -0.0998 -0.0025  0.0146
  716POPI   C3B11041  11.448   8.578   7.306 -0.0050  0.0535 -0.3386
  716POPI   C4B11042  11.339   8.708   7.752  0.0363  0.1294 -0.0691
  717POPI    C111043  14.411   4.945   5.906  0.0988  0.1219 -0.1448
  717POPI    C211044  14.263   5.302   5.801  0.0872  0.1115 -0.1639
  717POPI    C311045  14.265   5.001   5.538  0.0504  0.0829 -0.1317
  717POPI   PO411046  14.595   4.980   6.072 -0.0576 -0.1236  0.1093
  717POPI   GL111047  14.514   5.091   6.550  0.2761  0.0745 -0.0319
  717POPI   GL211048  14.681   5.270   6.756 -0.1192  0.0238  0.0844
  717POPI   C1A11049  14.663   4.648   6.778  0.1979 -0.2120  0.2183
  717POPI   D2A11050  15.055   4.531   6.846  0.0858  0.2304  0.0101
  717POPI   C3A11051  15.165   4.499   7.217  0.0299  0.0949  0.0897
  717POPI   C4A11052  15.032   4.537   7.550 -0.0463 -0.1831  0.1536
  717POPI   C1B11053  14.908   5.397   7.183  0.0034 -0.1165 -0.0688
  717POPI   C2B11054  15.058   5.481   7.635  0.2912  0.2826 -0.2003
  717POPI   C3B11055  14.992   5.512   7.933  0.2121 -0.1483  0.1363
  717POPI   C4B11056  14.889   5.592   8.342  0.0502  0.1028 -0.0030
  718POPI    C111057   8.911   7.042   5.607  0.1445  0.1137  0.1043
  718POPI    C211058   8.639   6.937   5.333  0.1524 -0.0697  0.1654
  718POPI    C311059   8.939   7.183   5.233 -0.0803  0.2007  0.1188
  718POPI   PO411060   8.728   7.129   5.872  0.0602 -0.3308 -0.3745
  718POPI   GL111061   8.800   7.094   6.274 -0.1313  0.0323 -0.3149
  718POPI   GL211062   8.809   7.232   6.404  0.0215  0.2409 -0.0443
  718POPI   C1A11063   9.013   6.749   6.478 -0.1308  0.1007 -0.1059
  718POPI   D2A11064   9.355   6.630   6.809  0.0772  0.0473  0.1041
  718POPI   C3A11065   9.357   6.295   7.091 -0.1145 -0.1411  0.1137
  718POPI   C4A11066   9.680   6.003   7.229 -0.2495  0.2518 -0.1361
  718POPI   C1B11067   8.532   7.118   6.736  0.2417 -0.0810  0.0268
  718POPI   C2B11068   8.497   7.386   7.097  0.0405  0.0218 -0.2389
  718POPI   C3B11069   8.517   7.292   7.464  0.1625  0.3788 -0.2027
  718POPI   C4B11070   8.821   6.948   7.766  0.1167 -0.4148  0.1128
  719POPI    C111071   2.688   0.335   5.720  0.1324 -0.2639 -0.0341
  719POPI    C211072   3.002   0.532   5.569  0.1543 -0.2494  0.0299
  719POPI    C311073   2.658   0.516   5.364  0.1141 -0.0415  0.0790
  719POPI   PO411074   2.669   0.413   5.951  0.2207  0.2589 -0.0889
  719POPI   GL111075   2.604   0.235   6.388  0.2404 -0.0559  0.1952
  719POPI   GL211076   2.867   0.111   6.388 -0.1846 -0.3332 -0.2613
  719POPI   C1A11077   2.329   0.327   6.800 -0.0681 -0.0317  0.1336
  719POPI   D2A11078   2.231   0.472   7.176 -0.0548 -0.1115  0.0556
  719POPI   C3A11079   2.415   0.457   7.565 -0.0985  0.0724 -0.1131
  719POPI   C4A11080   2.363   0.270   8.021 -0.3216  0.0848 -0.2850
  719POPI   C1B11081   2.718   0.094   6.871 -0.2496 -0.4267 -0.0957
  719POPI   C2B11082   2.742   0.048   7.297 -0.3378 -0.0488  0.1028
  719POPI   C3B11083   2.843  -0.093   7.755 -0.1820  0.0019 -0.0326
  719POPI   C4B11084   2.884   0.314   8.026  0.3377 -0.1817 -0.1177
  720POPI    C111085  11.523   2.587   5.979 -0.0562 -0.1283 -0.0047
  720POPI    C211086  11.292   2.734   6.270 -0.0262 -0.0445 -0.0231
  720POPI    C311087  11.193   2.793   5.887 -0.0359 -0.1070 -0.0302
  720POPI   PO411088  11.765   2.695   6.053 -0.0180 -0.0576  0.0516
  720POPI   GL111089  11.900   2.592   6.440 -0.3097 -0.1387  0.1366
  720POPI   GL211090  11.668   2.583   6.562 -0.1607  0.1088 -0.0214
  720POPI   C1A11091  12.036   2.840   6.868  0.3308  0.2185  0.2232
  720POPI   D2A11092  11.683   2.998   7.146  0.0659  0.2880 -0.0685
  720POPI   C3A11093  11.585   3.196   7.488  0.0874  0.3260 -0.1458
  720POPI   C4A11094  11.534   3.258   7.901 -0.0452  0.0819  0.2379
  720POPI   C1B11095  11.685   2.518   7.049 -0.0507 -0.0727  0.1564
  720POPI   C2B11096  11.712   2.602   7.479  0.1788 -0.1381 -0.2046
  720POPI   C3B11097  11.686   2.439   7.910 -0.1152 -0.0661 -0.0578
  720POPI   C4B11098  11.570   2.120   8.195 -0.4558  0.2324 -0.0189
  721POPI    C111099   9.605  10.413   5.736  0.1520 -0.0124  0.0906
  721POPI    C211100   9.931  10.292   5.538  0.0753  0.0166 -0.0554
  721POPI    C311101   9.617  10.434   5.336 -0.0059  0.0428  0.0882
  721POPI   PO411102   9.798  10.552   5.911  0.0596  0.2052  0.0607
  721POPI   GL111103   9.774  10.660   6.360  0.4332 -0.1036 -0.1686
  721POPI   GL211104   9.480  10.458   6.277 -0.0690 -0.1547 -0.2331
  721POPI   C1A11105  10.032  10.748   6.760  0.1458 -0.2206  0.0487
  721POPI   D2A11106  10.076  10.871   7.070 -0.0509  0.0097  0.1291
  721POPI   C3A11107  10.408  11.106   7.190 -0.1333 -0.1959  0.1001
  721POPI   C4A11108  10.615  11.321   7.485 -0.0276  0.2496 -0.0243
  721POPI   C1B11109   9.568  10.397   6.745 -0.2237 -0.3802  0.0856
  721POPI   C2B11110   9.789  10.491   7.163 -0.0595 -0.1082  0.0928
  721POPI   C3B11111  10.135  10.545   7.491  0.0507  0.2640  0.2458
  721POPI   C4B11112  10.546  10.665   7.454  0.1323 -0.0227 -0.2180
  722POPI    C111113   8.450   0.020   5.866  0.2700 -0.0042  0.3448
  722POPI    C211114   8.616  -0.229   5.602 -0.1119 -0.0325  0.1247
  722POPI    C311115   8.670   0.165   5.566  0.3119 -0.0648  0.3461
  722POPI   PO411116   8.547   0.044   6.121 -0.0196  0.2410 -0.2550
  722POPI   GL111117   8.342   0.034   6.575 -0.3260 -0.1611  0.0587
  722POPI   GL211118   8.411  -0.281   6.608 -0.1440 -0.0675 -0.0135
  722POPI   C1A11119   8.216   0.327   6.886  0.1521 -0.0447 -0.1070
  722POPI   D2A11120   8.273   0.753   7.161  0.0905  0.2870  0.0699
  722POPI   C3A11121   8.180   0.733   7.580 -0.0442 -0.0849  0.0821
  722POPI   C4A11122   8.080   0.456   7.836  0.2131  0.2428  0.0965
  722POPI   C1B11123   8.254  -0.153   7.038 -0.0892 -0.1989  0.0557
  722POPI   C2B11124   7.927  -0.168   7.359  0.0404 -0.1456 -0.2837
  722POPI   C3B11125   7.918  -0.192   7.784  0.0471 -0.0482  0.1537
  722POPI   C4B11126   7.798   0.082   8.176 -0.1932  0.1290 -0.1662
  723POPI    C111127   5.536  10.891   5.560  0.0278 -0.1584  0.0346
  723POPI    C211128   5.748  10.552   5.532  0.1197 -0.0914 -0.0893
  723POPI    C311129   5.472  10.639   5.256 -0.0836 -0.1868  0.0811
  723POPI   PO411130   5.450  10.852   5.840  0.0081  0.2455 -0.2237
  723POPI   GL111131   5.298  10.923   6.257  0.1447  0.1949 -0.1186
  723POPI   GL211132   5.084  11.060   6.175 -0.1148  0.2279 -0.0311
  723POPI   C1A11133   5.372  10.917   6.664  0.1402  0.0079 -0.1296
  723POPI   D2A11134   5.225  11.003   7.032  0.1879 -0.0313  0.1205
  723POPI   C3A11135   4.893  10.802   7.239 -0.2674  0.0240 -0.1992
  723POPI   C4A11136   4.847  10.369   7.138 -0.0678  0.2325 -0.0674
  723POPI   C1B11137   4.881  11.170   6.476 -0.2237 -0.3356 -0.2822
  723POPI   C2B11138   4.780  11.266   6.927  0.1748 -0.0357 -0.2338
  723POPI   C3B11139   4.689  11.225   7.392  0.1169 -0.0210 -0.0527
  723POPI   C4B11140   4.755  10.988   7.760 -0.2321 -0.3611 -0.1272
  724POPI    C111141   9.004   2.874   6.382 -0.0826  0.0500  0.0775
  724POPI    C211142   8.617   2.772   6.391 -0.0285 -0.2130 -0.3332
  724POPI    C311143   8.785   2.890   6.047  0.1847  0.2022 -0.0932
  724POPI   PO411144   9.005   3.045   6.668  0.1401 -0.0147 -0.0196
  724POPI   GL111145   8.904   3.158   7.090  0.0853 -0.0345 -0.0447
  724POPI   GL211146   8.764   3.448   6.925  0.0140  0.1863  0.3122
  724POPI   C1A11147   8.848   3.219   7.444  0.3051 -0.0004 -0.1117
  724POPI   D2A11148   8.792   3.191   7.947  0.1804  0.2651 -0.0219
  724POPI   C3A11149   8.889   3.584   8.280  0.0406  0.2757  0.0083
  724POPI   C4A11150   9.051   4.102   8.356 -0.0018  0.0771  0.2652
  724POPI   C1B11151   9.113   3.572   7.130 -0.3314  0.0635 -0.0742
  724POPI   C2B11152   9.322   3.875   7.434 -0.4325 -0.0462 -0.1231
  724POPI   C3B11153   9.603   4.124   7.675  0.1792  0.1187  0.1436
  724POPI   C4B11154   9.830   4.401   7.897 -0.0695 -0.2256 -0.2155
  725POPI    C111155   8.449   4.401   5.698 -0.2116 -0.0433  0.2384
  725POPI    C211156   8.484   4.787   5.597  0.1072 -0.0882  0.1652
  725POPI    C311157   8.655   4.505   5.371 -0.0275 -0.2655  0.2814
  725POPI   PO411158   8.329   4.471   5.930 -0.3411  0.1210 -0.1183
  725POPI   GL111159   8.255   4.767   6.320  0.0308  0.2902  0.1363
  725POPI   GL211160   8.537   4.551   6.466  0.2982  0.2435 -0.3588
  725POPI   C1A11161   7.911   4.845   6.481 -0.0424 -0.0098 -0.1904
  725POPI   D2A11162   7.605   5.254   6.521 -0.0150  0.0720  0.0478
  725POPI   C3A11163   7.506   5.329   6.851  0.2300  0.1375  0.0126
  725POPI   C4A11164   7.532   5.354   7.335  0.1185  0.2249  0.1559
  725POPI   C1B11165   8.310   4.707   6.813 -0.0346  0.0860 -0.0903
  725POPI   C2B11166   7.865   4.536   6.935 -0.3565  0.3130  0.1825
  725POPI   C3B11167   7.458   4.732   6.843  0.1875 -0.2052 -0.0106
  725POPI   C4B11168   7.043   4.537   6.724 -0.0750 -0.1594 -0.0920
  726POPI    C111169  17.612   0.016   5.924 -0.3000 -0.0184 -0.2033
  726POPI    C211170  17.762   0.254   5.640  0.0073  0.1194  0.0681
  726POPI    C311171  17.368   0.191   5.660 -0.0386  0.2825 -0.2515
  726POPI   PO411172  17.854   0.077   6.141  0.1978  0.2644 -0.0763
  726POPI   GL111173  17.920  -0.080   6.507  0.1425 -0.2547  0.0681
  726POPI   GL211174  18.126  -0.393   6.524  0.4147 -0.1224  0.0749
  726POPI   C1A11175  18.043  -0.132   6.987  0.0746  0.1536 -0.0658
  726POPI   D2A11176  18.070  -0.080   7.522 -0.0707 -0.1889 -0.2866
  726POPI   C3A11177  18.169  -0.172   7.933  0.1886  0.1511  0.2386
  726POPI   C4A11178  18.266  -0.055   8.321  0.2313 -0.2918 -0.0304
  726POPI   C1B11179  18.179  -0.567   6.825  0.1183 -0.0489 -0.1428
  726POPI   C2B11180  18.351  -0.509   7.324 -0.1738  0.0706  0.0419
  726POPI   C3B11181  18.455  -0.644   7.752 -0.2372  0.1820 -0.0560
  726POPI   C4B11182  18.470  -0.469   8.161 -0.1271 -0.1060  0.1490
  727POPI    C111183   0.470  15.358   5.709 -0.3169  0.0104 -0.0416
  727POPI    C211184   0.282  15.451   5.369 -0.1035  0.3249 -0.0775
  727POPI    C311185   0.678  15.494   5.396 -0.0718 -0.0405  0.0968
  727POPI   PO411186   0.506  15.486   5.898  0.2642 -0.0480  0.0241
  727POPI   GL111187   0.485  15.377   6.346 -0.1313  0.0879  0.1436
  727POPI   GL211188   0.658  15.035   6.191 -0.1765 -0.1424  0.2943
  727POPI   C1A11189   0.357  15.199   6.817  0.0231 -0.2360 -0.0460
  727POPI   D2A11190   0.189  15.015   7.233 -0.1697  0.2413 -0.2880
  727POPI   C3A11191   0.496  14.801   7.450 -0.0697 -0.0364 -0.2608
  727POPI   C4A11192   0.425  14.680   7.912  0.2260 -0.2471  0.3835
  727POPI   C1B11193   0.873  15.203   6.527  0.2547  0.0714  0.0240
  727POPI   C2B11194   1.143  15.537   6.559 -0.0231  0.1979 -0.5809
  727POPI   C3B11195   1.484  15.540   6.723  0.0984  0.2775  0.2174
  727POPI   C4B11196   1.920  15.522   6.661  0.2533 -0.0255 -0.0319
  728POPI    C111197   2.100   0.254   6.346 -0.1302 -0.1586  0.0222
  728POPI    C211198   2.166   0.531   6.065 -0.1374 -0.0198  0.1561
  728POPI    C311199   2.181   0.142   5.970 -0.0017  0.0238 -0.0053
  728POPI   PO411200   1.834   0.277   6.385  0.0379 -0.1019 -0.0792
  728POPI   GL111201   1.534   0.583   6.610 -0.1691 -0.3195 -0.2890
  728POPI   GL211202   1.279   0.674   6.538 -0.0401  0.3592 -0.0530
  728POPI   C1A11203   1.424   0.643   7.060  0.1206  0.0074 -0.1051
  728POPI   D2A11204   1.413   0.760   7.481 -0.1566  0.1093  0.5123
  728POPI   C3A11205   1.283   0.638   7.942 -0.0120 -0.0706  0.0207
  728POPI   C4A11206   1.129   0.513   8.246  0.0466 -0.0663  0.1393
  728POPI   C1B11207   0.939   0.573   6.721  0.0515 -0.0378  0.1005
  728POPI   C2B11208   0.890   0.506   7.128  0.2004 -0.0899  0.0699
  728POPI   C3B11209   0.985   0.307   7.463  0.0862 -0.1400  0.2058
  728POPI   C4B11210   0.871   0.219   7.970  0.3940 -0.0973  0.0941
  729POPI    C111211  17.059  15.713   5.698 -0.1111 -0.0978 -0.0653
  729POPI    C211212  17.397  15.577   5.532  0.0889  0.1075  0.1642
  729POPI    C311213  17.161  15.826   5.328  0.1599  0.0926  0.0634
  729POPI   PO411214  16.960  15.494   5.978 -0.0043 -0.0484  0.2685
  729POPI   GL111215  16.892  15.749   6.247  0.2009 -0.1804  0.1931
  729POPI   GL211216  17.198  15.830   6.484  0.0182 -0.2550  0.1202
  729POPI   C1A11217  16.733  15.775   6.687 -0.1849  0.0346  0.1688
  729POPI   D2A11218  16.475  15.707   6.935 -0.0108  0.1018 -0.0772
  729POPI   C3A11219  16.104  15.432   6.938  0.2381 -0.0179  0.2302
  729POPI   C4A11220  15.966  15.065   7.094 -0.0328  0.1068  0.0217
  729POPI   C1B11221  17.124  16.038   6.866  0.0342  0.1261  0.2617
  729POPI   C2B11222  16.918  15.848   7.197  0.1042 -0.0843 -0.0385
  729POPI   C3B11223  16.573  15.721   7.457  0.0438 -0.0967  0.2375
  729POPI   C4B11224  16.537  15.767   7.895  0.2000 -0.0352  0.1885
  730POPI    C111225  16.492   1.742   6.021  0.2548 -0.0118  0.1593
  730POPI    C211226  16.388   2.114   6.123  0.0456 -0.0327  0.0271
  730POPI    C311227  16.571   2.046   5.774  0.1114 -0.0504  0.0648
  730POPI   PO411228  16.559   1.678   6.295 -0.0650 -0.0069 -0.0083
  730POPI   GL111229  16.276   1.416   6.513  0.0348 -0.0746  0.0436
  730POPI   GL211230  16.445   1.446   6.802  0.1938 -0.0523  0.3068
  730POPI   C1A11231  15.995   1.666   6.882  0.2879  0.1003 -0.2807
  730POPI   D2A11232  15.665   1.491   6.973 -0.1695 -0.2380  0.4821
  730POPI   C3A11233  15.610   1.693   7.346 -0.3243 -0.0916 -0.0291
  730POPI   C4A11234  15.563   1.698   7.697 -0.2736 -0.2241 -0.0152
  730POPI   C1B11235  16.675   1.438   7.192 -0.0380 -0.1689  0.1736
  730POPI   C2B11236  16.683   1.454   7.691  0.2353 -0.0477  0.2795
  730POPI   C3B11237  16.432   1.383   8.043  0.1675 -0.2739  0.0033
  730POPI   C4B11238  16.603   1.214   8.456 -0.1837 -0.0271 -0.0030
  731POPI    C111239  16.114   9.168   5.508 -0.0927  0.0276 -0.2269
  731POPI    C211240  16.424   8.957   5.368  0.0041  0.0795 -0.0935
  731POPI    C311241  16.443   9.357   5.379  0.0127  0.0748  0.1001
  731POPI   PO411242  16.109   8.973   5.770  0.3178 -0.0519  0.0518
  731POPI   GL111243  16.133   9.072   6.173 -0.2010  0.0880  0.1670
  731POPI   GL211244  16.412   8.933   6.349 -0.2785 -0.0646  0.0265
  731POPI   C1A11245  16.089   9.322   6.547  0.0382 -0.0983  0.0131
  731POPI   D2A11246  16.292   9.548   6.867  0.1968 -0.2885  0.0315
  731POPI   C3A11247  16.250   9.308   7.353  0.3888  0.0911  0.1121
  731POPI   C4A11248  16.383   9.409   7.699  0.2026  0.1773 -0.2246
  731POPI   C1B11249  16.207   8.902   6.797  0.0484  0.0582 -0.0626
  731POPI   C2B11250  16.044   8.868   7.222  0.0377 -0.1453 -0.2388
  731POPI   C3B11251  16.111   8.871   7.620  0.1022 -0.1366 -0.2891
  731POPI   C4B11252  16.183   8.628   7.901  0.0422 -0.1211 -0.1946
  732POPI    C111253   4.261  12.388   5.324 -0.1488 -0.0281  0.1541
  732POPI    C211254   4.090  12.219   5.004 -0.3095  0.1240  0.1581
  732POPI    C311255   4.187  12.607   4.997 -0.2044  0.0998  0.2519
  732POPI   PO411256   4.126  12.250   5.575 -0.1817 -0.0206  0.0357
  732POPI   GL111257   4.236  12.164   6.028 -0.0106 -0.2146  0.1905
  732POPI   GL211258   4.046  12.475   6.041 -0.3142 -0.1941  0.0965
  732POPI   C1A11259   4.266  11.955   6.345  0.0313 -0.3715 -0.1880
  732POPI   D2A11260   4.136  12.028   6.819  0.0828  0.0337  0.0154
  732POPI   C3A11261   4.280  11.826   7.137 -0.0159 -0.2262  0.0756
  732POPI   C4A11262   4.305  11.896   7.563  0.0763  0.0192 -0.1976
  732POPI   C1B11263   4.196  12.440   6.480 -0.1177 -0.0803  0.0282
  732POPI   C2B11264   4.323  12.555   6.942  0.0104 -0.0804 -0.2802
  732POPI   C3B11265   4.307  12.297   7.325  0.2635  0.1199 -0.0489
  732POPI   C4B11266   4.229  12.406   7.734 -0.4768 -0.1806 -0.0343
  733POPI    C111267   4.900   2.335   6.283  0.1507  0.1877  0.2032
  733POPI    C211268   5.029   2.518   5.952 -0.0941  0.2098  0.1178
  733POPI    C311269   4.808   2.186   5.924  0.1072  0.0603  0.2664
  733POPI   PO411270   4.806   2.522   6.375 -0.0527 -0.1258 -0.0213
  733POPI   GL111271   4.671   2.760   6.725 -0.3049 -0.1019  0.0121
  733POPI   GL211272   4.990   2.879   6.748 -0.0770 -0.0166 -0.1712
  733POPI   C1A11273   4.494   2.743   7.128  0.0440  0.2446  0.0201
  733POPI   D2A11274   4.618   2.764   7.484 -0.2178 -0.0370 -0.0143
  733POPI   C3A11275   4.473   2.613   7.791  0.0591  0.1261  0.0592
  733POPI   C4A11276   4.188   2.348   8.012 -0.1138  0.1409  0.1626
  733POPI   C1B11277   4.939   2.995   7.130 -0.0077 -0.0238  0.2895
  733POPI   C2B11278   5.009   3.015   7.560  0.0500  0.0122 -0.0947
  733POPI   C3B11279   4.944   2.870   7.978 -0.1587 -0.2509 -0.2222
  733POPI   C4B11280   4.727   2.956   8.181 -0.3922  0.0210 -0.0201
  734POPI    C111281   6.700  15.560   5.965 -0.0242  0.0520 -0.2120
  734POPI    C211282   6.840  15.219   6.118 -0.1862  0.0552 -0.0537
  734POPI    C311283   6.476  15.229   5.953 -0.2651  0.1976  0.1260
  734POPI   PO411284   6.919  15.670   6.131 -0.0107 -0.2429 -0.0620
  734POPI   GL111285   7.162  15.652   6.603 -0.3081 -0.1255  0.2680
  734POPI   GL211286   6.890  15.523   6.647 -0.2420 -0.0693  0.1170
  734POPI   C1A11287   7.426  15.689   7.019 -0.1762 -0.1279 -0.1451
  734POPI   D2A11288   7.513  15.926   7.467  0.0602 -0.0907 -0.0613
  734POPI   C3A11289   7.349  16.198   7.689 -0.2355  0.3568 -0.3893
  734POPI   C4A11290   7.567  16.230   8.095 -0.1242 -0.0525  0.1091
  734POPI   C1B11291   6.867  15.597   7.020  0.1605 -0.2350  0.0772
  734POPI   C2B11292   7.062  15.674   7.395  0.0934 -0.2714 -0.1201
  734POPI   C3B11293   7.045  15.839   7.749  0.0043  0.1663 -0.0889
  734POPI   C4B11294   7.149  15.913   8.206 -0.1773  0.1771  0.1873
  735POPI    C111295   8.159  13.120   5.546 -0.2816  0.1377  0.0286
  735POPI    C211296   8.230  12.798   5.772  0.2307  0.1705 -0.0734
  735POPI    C311297   7.948  12.785   5.489 -0.0294 -0.0526  0.1895
  735POPI   PO411298   8.164  13.423   5.779  0.1423  0.0597  0.2965
  735POPI   GL111299   8.089  13.475   6.249 -0.2113  0.2132 -0.1337
  735POPI   GL211300   7.885  13.329   6.369 -0.0353  0.1256 -0.0300
  735POPI   C1A11301   8.385  13.527   6.721 -0.3277  0.0033  0.0184
  735POPI   D2A11302   8.556  13.691   7.104  0.3933  0.0403  0.0056
  735POPI   C3A11303   8.643  13.416   7.427  0.2219  0.1212  0.0930
  735POPI   C4A11304   8.777  13.158   7.809  0.0348 -0.2260  0.0496
  735POPI   C1B11305   7.671  13.377   6.775 -0.3254 -0.1196  0.4526
  735POPI   C2B11306   7.652  13.414   7.220 -0.0703 -0.0937  0.0044
  735POPI   C3B11307   7.688  13.383   7.653 -0.0338  0.2294 -0.0019
  735POPI   C4B11308   7.532  13.084   7.899  0.0292  0.1143  0.1217
  736POPI    C111309   9.665  15.529   5.504 -0.0033 -0.3229 -0.0310
  736POPI    C211310  10.007  15.423   5.325  0.0570 -0.1149 -0.0417
  736POPI    C311311   9.658  15.360   5.142  0.1052 -0.1034 -0.1379
  736POPI   PO411312   9.869  15.573   5.805  0.0332 -0.1822 -0.1523
  736POPI   GL111313   9.762  15.887   6.180  0.3003  0.3732 -0.2688
  736POPI   GL211314   9.908  16.158   6.181  0.1731  0.2335  0.0308
  736POPI   C1A11315   9.794  15.930   6.682  0.0578  0.1793 -0.0596
  736POPI   D2A11316   9.736  15.926   7.089  0.0669  0.0275  0.1222
  736POPI   C3A11317  10.053  15.935   7.398  0.0212  0.0731 -0.0406
  736POPI   C4A11318  10.256  16.161   7.642  0.0618  0.0390 -0.0769
  736POPI   C1B11319  10.162  16.176   6.521  0.0118 -0.0153  0.1718
  736POPI   C2B11320  10.232  16.066   6.968  0.3449  0.1838 -0.2448
  736POPI   C3B11321  10.490  16.266   7.193 -0.1446 -0.3065 -0.1578
  736POPI   C4B11322  10.538  16.706   7.464  0.0931  0.1179  0.1758
  737POPI    C111323   1.773  16.591   6.412  0.0410 -0.2023  0.0842
  737POPI    C211324   2.015  16.344   6.211  0.1762 -0.0247  0.0257
  737POPI    C311325   1.625  16.357   6.123  0.2052 -0.0679 -0.1120
  737POPI   PO411326   1.946  16.818   6.376 -0.2064 -0.0544  0.1636
  737POPI   GL111327   2.002  16.980   6.682 -0.1577  0.0572  0.3276
  737POPI   GL211328   2.177  17.188   6.691 -0.3002  0.0576  0.1011
  737POPI   C1A11329   1.913  16.804   7.060  0.1769 -0.3892 -0.0258
  737POPI   D2A11330   1.913  16.697   7.515 -0.1682 -0.2223 -0.1369
  737POPI   C3A11331   1.687  16.931   7.825 -0.2191 -0.0388 -0.1445
  737POPI   C4A11332   1.485  16.963   8.231 -0.1058 -0.0728  0.0734
  737POPI   C1B11333   2.241  17.176   7.156  0.0574 -0.4135 -0.0348
  737POPI   C2B11334   2.341  16.883   7.351 -0.4677  0.0228 -0.2485
  737POPI   C3B11335   2.592  16.668   7.613 -0.0870 -0.1512 -0.1239
  737POPI   C4B11336   2.392  16.557   7.915  0.2811 -0.0060  0.2074
  738POPI    C111337   9.990  12.085   5.896 -0.1419  0.1934  0.1077
  738POPI    C211338  10.208  12.421   5.883  0.0610  0.0537 -0.2832
  738POPI    C311339   9.931  12.351   5.603 -0.2618  0.0746  0.0230
  738POPI   PO411340   9.889  12.048   6.157 -0.0528  0.0372 -0.1085
  738POPI   GL111341   9.804  12.043   6.576 -0.1141  0.1398 -0.1462
  738POPI   GL211342   9.868  11.776   6.725  0.0326 -0.1952 -0.0040
  738POPI   C1A11343   9.308  12.068   6.733  0.0985 -0.0561 -0.0044
  738POPI   D2A11344   9.102  12.351   6.935 -0.1280 -0.3725 -0.2029
  738POPI   C3A11345   9.368  12.450   7.201 -0.0884  0.1456  0.1028
  738POPI   C4A11346   9.432  12.553   7.683  0.0085  0.0680 -0.0638
  738POPI   C1B11347   9.924  11.374   7.039  0.1457 -0.2352 -0.0957
  738POPI   C2B11348  10.000  11.077   7.525 -0.1513  0.2654  0.1638
  738POPI   C3B11349  10.342  10.940   7.822 -0.2708 -0.0021 -0.2562
  738POPI   C4B11350  10.394  11.018   8.250  0.1310  0.1076 -0.0312
  739POPI    C111351  15.736  14.576   6.135 -0.1087  0.0319  0.2648
  739POPI    C211352  15.912  14.246   5.993 -0.1297  0.0604  0.1721
  739POPI    C311353  15.528  14.236   6.104 -0.2030  0.1162 -0.0700
  739POPI   PO411354  15.859  14.658   6.279 -0.2326  0.1421  0.2105
  739POPI   GL111355  15.857  14.971   6.610 -0.1500 -0.0647  0.1727
  739POPI   GL211356  16.229  14.884   6.673  0.2058 -0.1244  0.1438
  739POPI   C1A11357  15.912  14.618   6.935  0.1781 -0.2318 -0.1763
  739POPI   D2A11358  15.997  14.304   7.212  0.3331  0.3222  0.1476
  739POPI   C3A11359  15.712  14.220   7.522  0.0268  0.0684  0.4996
  739POPI   C4A11360  15.297  14.439   7.668  0.1286 -0.0475 -0.0450
  739POPI   C1B11361  16.382  14.741   7.165  0.1592 -0.1270  0.0437
  739POPI   C2B11362  16.428  14.516   7.534 -0.1325  0.0337  0.1032
  739POPI   C3B11363  16.522  14.487   8.011 -0.1198 -0.1460 -0.0526
  739POPI   C4B11364  16.562  14.251   8.388 -0.2127  0.0492 -0.1559
  740POPI    C111365   4.996   5.619   5.859 -0.1187 -0.0418  0.1478
  740POPI    C211366   4.615   5.509   5.807 -0.0791 -0.0182 -0.2137
  740POPI    C311367   4.911   5.274   5.674  0.0298  0.0304 -0.0593
  740POPI   PO411368   5.014   5.697   6.112  0.0934  0.1299 -0.2865
  740POPI   GL111369   5.081   5.673   6.546 -0.0224 -0.2182  0.0322
  740POPI   GL211370   4.802   5.612   6.607  0.0757 -0.2775  0.2631
  740POPI   C1A11371   5.315   5.612   6.906 -0.1172  0.1098  0.0314
  740POPI   D2A11372   5.253   5.284   7.228 -0.0985  0.3386 -0.1142
  740POPI   C3A11373   5.259   5.359   7.711  0.0645 -0.1544 -0.2138
  740POPI   C4A11374   5.272   5.256   8.145 -0.3914 -0.0737 -0.3021
  740POPI   C1B11375   4.786   5.528   7.064  0.0116 -0.3562  0.0146
  740POPI   C2B11376   4.832   5.416   7.452 -0.1253  0.0450  0.1472
  740POPI   C3B11377   4.761   5.589   7.789 -0.3061 -0.0129 -0.1845
  740POPI   C4B11378   4.388   5.814   8.119 -0.0716  0.1078 -0.1276
  741POPS   CNO11379  11.271   7.451   6.036 -0.1095  0.1764 -0.2118
  741POPS   PO411380  11.619   7.541   6.121 -0.1740  0.3230  0.0473
  741POPS   GL111381  11.457   7.480   6.533  0.0195  0.0690 -0.0142
  741POPS   GL211382  11.304   7.673   6.601 -0.2590  0.1986  0.0911
  741POPS   C1A11383  11.560   7.275   6.888 -0.1319  0.3133  0.0663
  741POPS   D2A11384  11.585   7.352   7.257 -0.1693  0.1439 -0.2052
  741POPS   C3A11385  11.469   7.228   7.661 -0.0660  0.0555 -0.1500
  741POPS   C4A11386  11.252   7.247   7.977  0.0276  0.2007  0.0873
  741POPS   C1B11387  11.331   7.682   6.984 -0.1213 -0.0132  0.3474
  741POPS   C2B11388  11.366   7.724   7.492  0.0284  0.1902 -0.3561
  741POPS   C3B11389  11.215   7.807   7.903 -0.1323  0.1781 -0.0554
  741POPS   C4B11390  11.260   8.275   8.118  0.4212  0.1643 -0.3349
  742POPS   CNO11391   0.132  13.102   5.568  0.1266 -0.0345  0.1377
  742POPS   PO411392   0.005  12.695   5.711  0.1743 -0.1546  0.0125
  742POPS   GL111393   0.345  12.729   5.952 -0.1425 -0.0088 -0.2193
  742POPS   GL211394   0.297  12.917   6.205 -0.3889  0.0440  0.2594
  742POPS   C1A11395   0.526  12.441   6.247 -0.0085 -0.2459  0.0512
  742POPS   D2A11396   0.611  12.323   6.653  0.2478  0.0884 -0.0992
  742POPS   C3A11397   1.054  12.313   6.805 -0.1706 -0.0868  0.1925
  742POPS   C4A11398   1.386  12.213   6.661  0.2405  0.1467 -0.1207
  742POPS   C1B11399   0.137  12.865   6.497 -0.0100 -0.1206 -0.2580
  742POPS   C2B11400   0.090  12.741   6.843  0.2770  0.0448  0.1157
  742POPS   C3B11401   0.016  12.717   7.372 -0.0436 -0.1276 -0.0283
  742POPS   C4B11402   0.256  12.940   7.795 -0.0730 -0.2359  0.1500
  743POPS   CNO11403  14.557  13.249   5.956 -0.2203 -0.0875 -0.0792
  743POPS   PO411404  14.404  12.907   5.903 -0.3574  0.1084 -0.1955
  743POPS   GL111405  14.452  12.987   6.358  0.1101  0.1579  0.1929
  743POPS   GL211406  14.750  13.117   6.463 -0.0802 -0.0327 -0.1224
  743POPS   C1A11407  14.404  12.785   6.745  0.0873  0.0153  0.0532
  743POPS   D2A11408  14.573  12.719   7.182  0.2150 -0.2583  0.2024
  743POPS   C3A11409  14.456  12.529   7.638 -0.0896  0.0167  0.0318
  743POPS   C4A11410  14.737  12.466   8.020 -0.0192  0.1197 -0.0674
  743POPS   C1B11411  14.841  12.979   6.838  0.0679 -0.1434  0.0638
  743POPS   C2B11412  15.001  12.960   7.269 -0.0036  0.1897 -0.2135
  743POPS   C3B11413  15.369  13.119   7.599  0.2239 -0.2172  0.0514
  743POPS   C4B11414  15.348  13.401   7.886  0.1420  0.1684 -0.1424
  744POPS   CNO11415   5.610   7.183   6.038 -0.2472  0.0796 -0.1176
  744POPS   PO411416   5.219   6.926   6.135  0.4148  0.1139  0.1290
  744POPS   GL111417   5.191   6.629   6.498  0.2982  0.2827  0.1893
  744POPS   GL211418   4.952   6.614   6.680  0.2239 -0.0761 -0.1432
  744POPS   C1A11419   5.456   6.544   6.870  0.1073 -0.1918  0.1188
  744POPS   D2A11420   5.587   6.272   7.109 -0.1933 -0.1811  0.0674
  744POPS   C3A11421   5.464   5.915   7.238  0.0536 -0.5532  0.1498
  744POPS   C4A11422   5.052   5.839   7.361 -0.0636 -0.2745 -0.0164
  744POPS   C1B11423   5.052   6.629   7.149 -0.1463  0.3477 -0.0216
  744POPS   C2B11424   5.266   6.396   7.467 -0.0417 -0.0967 -0.0007
  744POPS   C3B11425   5.565   6.480   7.824 -0.2273  0.0615  0.0753
  744POPS   C4B11426   5.477   6.813   8.064  0.4259  0.0572 -0.0044
  745POPS   CNO11427   9.283   7.888   5.739  0.0202  0.0660 -0.0017
  745POPS   PO411428   9.587   7.490   5.869  0.1196  0.1314 -0.3165
  745POPS   GL111429   9.780   7.567   6.342  0.2929 -0.2493 -0.0916
  745POPS   GL211430   9.945   7.269   6.434  0.2983  0.1425 -0.1044
  745POPS   C1A11431  10.080   7.748   6.648 -0.2121  0.1414 -0.1232
  745POPS   D2A11432   9.970   7.824   7.046 -0.1273 -0.0123  0.1644
  745POPS   C3A11433  10.124   8.174   7.285  0.1103 -0.0714  0.0584
  745POPS   C4A11434  10.170   8.082   7.743  0.0733  0.0205 -0.2491
  745POPS   C1B11435   9.822   7.364   6.861  0.0055 -0.0986  0.1413
  745POPS   C2B11436   9.430   7.418   7.200 -0.0520  0.0431  0.1898
  745POPS   C3B11437   9.207   7.178   7.481  0.0456  0.0306  0.0985
  745POPS   C4B11438   9.293   6.989   7.880 -0.1600  0.1679  0.0002
  746POPS   CNO11439   7.798   8.463   5.903  0.1701 -0.0905  0.4836
  746POPS   PO411440   7.820   8.039   5.936 -0.2471 -0.1998 -0.0854
  746POPS   GL111441   7.578   8.058   6.238  0.4693 -0.2629 -0.0906
  746POPS   GL211442   7.589   7.845   6.454  0.0135 -0.1769 -0.0017
  746POPS   C1A11443   7.466   8.337   6.644  0.2059  0.1689  0.1647
  746POPS   D2A11444   7.306   8.580   7.006 -0.1185 -0.1078  0.3649
  746POPS   C3A11445   7.494   8.809   7.369 -0.0590  0.3842  0.1804
  746POPS   C4A11446   7.178   8.683   7.766 -0.0344  0.1844  0.1322
  746POPS   C1B11447   7.488   7.847   6.817  0.0126 -0.0906 -0.0373
  746POPS   C2B11448   7.390   8.129   7.103  0.2647  0.2624 -0.0018
  746POPS   C3B11449   7.368   8.284   7.483 -0.1329 -0.1231  0.2273
  746POPS   C4B11450   7.399   8.263   7.811  0.1543 -0.2378  0.2390
  747POPS   CNO11451  17.326   0.422   6.084 -0.1349 -0.1047 -0.1461
  747POPS   PO411452  16.863   0.327   6.321  0.0107  0.2512 -0.1865
  747POPS   GL111453  16.824   0.368   6.692  0.2819  0.2139 -0.1260
  747POPS   GL211454  16.901   0.105   6.841 -0.2117 -0.0226  0.2078
  747POPS   C1A11455  16.660   0.537   7.041 -0.3205 -0.0948 -0.0488
  747POPS   D2A11456  16.907   0.628   7.540  0.4602  0.3973 -0.1286
  747POPS   C3A11457  16.808   0.327   7.950  0.0345  0.0178 -0.0610
  747POPS   C4A11458  16.931   0.018   8.290 -0.0063  0.2421 -0.3874
  747POPS   C1B11459  16.835  -0.328   6.920 -0.0042 -0.1292 -0.1137
  747POPS   C2B11460  16.639  -0.760   6.968  0.0944 -0.5901  0.0264
  747POPS   C3B11461  16.503  -1.036   7.284  0.0586 -0.3008  0.0614
  747POPS   C4B11462  16.649  -1.182   7.712  0.0410 -0.0384  0.2379
  748POPS   CNO11463  13.810  12.234   5.931  0.1788  0.0037  0.1665
  748POPS   PO411464  13.531  11.961   6.114  0.3329 -0.0377  0.0164
  748POPS   GL111465  13.488  12.020   6.507 -0.1992 -0.0577  0.0517
  748POPS   GL211466  13.710  12.331   6.411  0.0859 -0.0684 -0.1200
  748POPS   C1A11467  13.632  12.155   6.858 -0.1099 -0.1712 -0.1457
  748POPS   D2A11468  13.618  12.327   7.307 -0.3129  0.0624  0.1649
  748POPS   C3A11469  13.501  12.271   7.805  0.0060 -0.1402  0.3260
  748POPS   C4A11470  13.460  12.089   8.107 -0.1026 -0.0424  0.1998
  748POPS   C1B11471  14.059  12.387   6.705  0.2910 -0.3248 -0.0848
  748POPS   C2B11472  14.129  12.508   7.213  0.3351 -0.0734 -0.0781
  748POPS   C3B11473  14.137  12.865   7.430 -0.0431  0.1908 -0.3216
  748POPS   C4B11474  14.100  12.891   7.842 -0.1466  0.2357 -0.1233
  749POPS   CNO11475  17.555  17.526   5.584  0.3651 -0.0482  0.3477
  749POPS   PO411476  17.289  17.406   5.832 -0.0202 -0.0974  0.0362
  749POPS   GL111477  17.425  17.371   6.252  0.1106  0.2281 -0.0730
  749POPS   GL211478  17.302  17.133   6.328  0.0258  0.2546  0.0762
  749POPS   C1A11479  17.660  17.299   6.684  0.2728  0.0116  0.0736
  749POPS   D2A11480  17.687  17.281   7.121  0.1715  0.0545  0.0098
  749POPS   C3A11481  17.951  17.068   7.434  0.0068  0.2738 -0.1383
  749POPS   C4A11482  18.067  16.790   7.688 -0.0222  0.1898  0.0023
  749POPS   C1B11483  17.198  17.133   6.775 -0.2665 -0.2508 -0.2602
  749POPS   C2B11484  17.236  17.097   7.174  0.0262  0.1235  0.1214
  749POPS   C3B11485  17.364  17.185   7.708 -0.0365  0.0931 -0.0076
  749POPS   C4B11486  17.662  17.541   7.801  0.0084  0.0600 -0.2179
  750POPS   CNO11487   5.946  15.992   5.525 -0.0705 -0.1132  0.2170
  750POPS   PO411488   6.168  16.225   5.822  0.0978 -0.1332 -0.1850
  750POPS   GL111489   6.262  16.257   6.235 -0.1215  0.0760  0.1141
  750POPS   GL211490   6.508  16.402   6.303 -0.0166 -0.3736 -0.0034
  750POPS   C1A11491   6.239  16.324   6.683 -0.1842  0.0154  0.1163
  750POPS   D2A11492   6.306  16.390   7.095 -0.2529 -0.5194  0.2974
  750POPS   C3A11493   6.347  16.214   7.472 -0.1575 -0.0664  0.1744
  750POPS   C4A11494   6.553  16.065   7.781  0.0714  0.2591 -0.1367
  750POPS   C1B11495   6.730  16.622   6.686  0.1293 -0.4374  0.1692
  750POPS   C2B11496   6.673  16.739   7.141  0.2000 -0.1287  0.0299
  750POPS   C3B11497   6.774  17.052   7.372 -0.0403 -0.0228 -0.0629
  750POPS   C4B11498   6.866  17.199   7.779  0.1675  0.1301  0.2443
  751POPS   CNO11499   4.759  12.448   5.371  0.1333  0.3266 -0.3372
  751POPS   PO411500   4.938  12.377   5.734 -0.2075 -0.2053  0.0088
  751POPS   GL111501   4.928  12.533   6.091 -0.0961 -0.0639  0.1395
  751POPS   GL211502   4.611  12.491   6.216 -0.0566 -0.0832  0.1636
  751POPS   C1A11503   5.027  12.636   6.507  0.0893 -0.1536 -0.1787
  751POPS   D2A11504   5.271  12.845   6.840 -0.1908 -0.0902  0.3821
  751POPS   C3A11505   5.448  12.830   7.205  0.3413 -0.2774 -0.0075
  751POPS   C4A11506   5.693  12.715   7.561 -0.0630 -0.4215 -0.0260
  751POPS   C1B11507   4.676  12.319   6.639 -0.1145 -0.2597 -0.1828
  751POPS   C2B11508   4.742  12.181   7.046 -0.0517  0.1364 -0.0728
  751POPS   C3B11509   4.812  12.187   7.539  0.0719 -0.0146 -0.3011
  751POPS   C4B11510   5.059  12.098   7.932  0.3091  0.2440 -0.1439
  752POPS   CNO11511   1.127   7.295   5.644  0.0694 -0.3456 -0.0683
  752POPS   PO411512   1.065   7.384   6.046  0.2550 -0.0023 -0.0457
  752POPS   GL111513   0.924   7.645   6.352  0.0563  0.2346  0.1783
  752POPS   GL211514   1.072   7.898   6.285 -0.3208  0.4106 -0.2262
  752POPS   C1A11515   0.907   7.668   6.817 -0.0182  0.2911  0.0274
  752POPS   D2A11516   0.979   7.594   7.182 -0.0119 -0.2714 -0.2502
  752POPS   C3A11517   1.381   7.400   7.383 -0.1709 -0.1119 -0.0296
  752POPS   C4A11518   1.707   7.532   7.574  0.0519 -0.1858 -0.2112
  752POPS   C1B11519   1.066   8.050   6.606 -0.1065  0.2417 -0.1217
  752POPS   C2B11520   1.162   8.203   7.045 -0.1189  0.2998 -0.0974
  752POPS   C3B11521   0.980   8.068   7.424  0.1464  0.0261  0.0729
  752POPS   C4B11522   1.296   7.847   7.749 -0.0354 -0.0263 -0.4982
  753POPS   CNO11523   0.525  11.502   5.352  0.0260  0.0231 -0.1362
  753POPS   PO411524   0.227  11.889   5.388  0.0955  0.0228  0.1667
  753POPS   GL111525   0.410  11.819   5.763  0.0040 -0.0425 -0.0233
  753POPS   GL211526   0.308  12.006   6.011  0.1726  0.1276 -0.1922
  753POPS   C1A11527   0.498  11.556   6.058  0.3040  0.0814  0.1043
  753POPS   D2A11528   0.603  11.432   6.445  0.0968  0.0206  0.0533
  753POPS   C3A11529   0.379  11.466   6.798 -0.1818 -0.0920 -0.4519
  753POPS   C4A11530   0.531  11.339   7.239 -0.1206  0.1396 -0.2785
  753POPS   C1B11531   0.414  11.865   6.431 -0.1749  0.2162 -0.2947
  753POPS   C2B11532   0.437  11.924   6.889 -0.3130  0.0469 -0.1269
  753POPS   C3B11533   0.466  11.792   7.329  0.2282  0.0756  0.1636
  753POPS   C4B11534   0.488  11.666   7.709 -0.0840 -0.0327  0.3768
  754POPS   CNO11535   7.423  17.436   5.665 -0.3144 -0.2909  0.1022
  754POPS   PO411536   7.595  17.459   6.042  0.0038  0.0220 -0.2267
  754POPS   GL111537   7.286  17.662   6.332 -0.0087 -0.2035  0.0197
  754POPS   GL211538   7.345  17.948   6.391  0.0905  0.1819 -0.1970
  754POPS   C1A11539   7.081  17.541   6.691 -0.0783  0.0959 -0.0981
  754POPS   D2A11540   7.135  17.567   7.172  0.3815 -0.1433  0.0450
  754POPS   C3A11541   6.676  17.552   7.471 -0.0471 -0.0251  0.1628
  754POPS   C4A11542   6.491  17.944   7.671  0.2688 -0.0442  0.1904
  754POPS   C1B11543   7.304  17.988   6.803  0.1746  0.0000  0.0260
  754POPS   C2B11544   7.448  17.942   7.295  0.3002 -0.0712  0.2909
  754POPS   C3B11545   7.480  17.620   7.620  0.1856  0.0069  0.3901
  754POPS   C4B11546   7.538  17.245   7.925 -0.0312 -0.1275 -0.2797
  755POPS   CNO11547  10.253   2.146   5.672 -0.1469  0.0846  0.0466
  755POPS   PO411548  10.331   1.825   5.926  0.1388 -0.2679  0.3099
  755POPS   GL111549  10.402   1.634   6.285 -0.0724  0.0546 -0.1510
  755POPS   GL211550  10.142   1.647   6.525  0.2507 -0.1812  0.1496
  755POPS   C1A11551  10.751   1.412   6.438 -0.0286 -0.0620  0.0318
  755POPS   D2A11552  11.041   1.415   6.812 -0.1718  0.0769 -0.2192
  755POPS   C3A11553  11.060   1.357   7.230 -0.3117  0.1260 -0.1866
  755POPS   C4A11554  11.086   1.011   7.556 -0.1960  0.1943  0.2778
  755POPS   C1B11555  10.455   1.719   6.789  0.0352 -0.1276  0.0110
  755POPS   C2B11556  10.573   1.544   7.186  0.0237  0.0060 -0.0932
  755POPS   C3B11557  10.579   1.199   7.535  0.1243 -0.0331  0.1215
  755POPS   C4B11558  10.573   0.808   7.484 -0.1450 -0.1469 -0.1063
  756POPS   CNO11559  11.850   5.119   6.105 -0.0813 -0.1544 -0.0954
  756POPS   PO411560  12.201   5.212   6.136  0.4047  0.1169  0.2404
  756POPS   GL111561  12.245   5.169   6.460 -0.2294  0.0576  0.1058
  756POPS   GL211562  12.161   4.807   6.581  0.0977 -0.2172 -0.0445
  756POPS   C1A11563  12.473   5.103   6.844  0.0207 -0.2254 -0.2170
  756POPS   D2A11564  12.439   5.023   7.277  0.1633  0.1825 -0.1613
  756POPS   C3A11565  12.412   4.611   7.543 -0.2932 -0.2767 -0.4105
  756POPS   C4A11566  12.238   4.329   7.829  0.2673 -0.1044 -0.4833
  756POPS   C1B11567  12.051   4.975   7.022 -0.0856 -0.0903 -0.2063
  756POPS   C2B11568  11.959   4.878   7.419  0.5202 -0.0835  0.1060
  756POPS   C3B11569  11.869   4.595   7.649  0.2084  0.0564  0.1364
  756POPS   C4B11570  11.830   4.635   8.072  0.1038 -0.1038  0.0627
  757POPS   CNO11571   6.886  10.212   6.128 -0.0226  0.1172 -0.0527
  757POPS   PO411572   7.073  10.534   5.978 -0.1385 -0.1553 -0.0736
  757POPS   GL111573   7.074  10.820   6.297  0.1986 -0.0669 -0.0456
  757POPS   GL211574   7.378  10.843   6.461 -0.0186 -0.0990 -0.0325
  757POPS   C1A11575   6.979  10.808   6.750 -0.0174  0.0464 -0.2330
  757POPS   D2A11576   6.810  10.548   7.131 -0.1930  0.0654  0.0458
  757POPS   C3A11577   6.802  10.662   7.536  0.2389 -0.0391  0.0023
  757POPS   C4A11578   6.580  10.696   7.999 -0.0814  0.0541  0.1291
  757POPS   C1B11579   7.394  10.937   6.923 -0.2827  0.1845 -0.0145
  757POPS   C2B11580   7.659  10.817   7.199  0.2271 -0.3607 -0.0364
  757POPS   C3B11581   7.699  10.637   7.546 -0.0081 -0.2236  0.3017
  757POPS   C4B11582   7.530  10.547   7.966 -0.1431 -0.4220 -0.1760
  758POPS   CNO11583  16.399  12.249   5.821 -0.2508 -0.0567 -0.0032
  758POPS   PO411584  16.569  11.843   5.995 -0.1395 -0.1242  0.1110
  758POPS   GL111585  16.695  11.944   6.419  0.1598  0.0725 -0.1499
  758POPS   GL211586  16.969  12.134   6.300  0.0252 -0.1500  0.2223
  758POPS   C1A11587  16.833  11.560   6.670 -0.2465 -0.3201  0.2479
  758POPS   D2A11588  16.781  11.182   6.923  0.2656 -0.0844 -0.0121
  758POPS   C3A11589  16.927  11.156   7.329 -0.0823  0.0351 -0.2437
  758POPS   C4A11590  16.988  10.852   7.771  0.0698 -0.1386 -0.0505
  758POPS   C1B11591  17.123  12.020   6.700 -0.1636  0.0019  0.1177
  758POPS   C2B11592  16.848  11.910   7.005 -0.2571 -0.0344 -0.0426
  758POPS   C3B11593  16.871  11.643   7.255 -0.1797 -0.3121 -0.0573
  758POPS   C4B11594  16.569  11.612   7.604 -0.1063  0.0099  0.0787
  759POPS   CNO11595   5.356   4.338   5.985  0.0681  0.4029 -0.1353
  759POPS   PO411596   5.013   4.128   6.099  0.1645  0.3761 -0.2403
  759POPS   GL111597   5.021   3.949   6.561  0.0709  0.0857  0.1170
  759POPS   GL211598   4.770   3.904   6.666  0.1060  0.1847 -0.1448
  759POPS   C1A11599   5.191   4.117   6.901 -0.0550 -0.1790 -0.2759
  759POPS   D2A11600   5.127   4.053   7.286  0.1241  0.0655  0.0944
  759POPS   C3A11601   4.920   4.012   7.712 -0.0930  0.1055  0.0777
  759POPS   C4A11602   4.497   4.109   7.664  0.1093 -0.0855 -0.4058
  759POPS   C1B11603   4.669   3.874   7.123 -0.0876 -0.2307  0.1293
  759POPS   C2B11604   4.693   3.633   7.496 -0.0209 -0.1679 -0.2958
  759POPS   C3B11605   4.523   3.717   7.895 -0.0640  0.1172 -0.0369
  759POPS   C4B11606   4.726   3.911   8.174 -0.0890  0.1999 -0.0975
  760POPS   CNO11607  12.606   7.919   6.320 -0.1646 -0.0312 -0.3180
  760POPS   PO411608  12.478   8.168   6.127  0.2731 -0.0081  0.0560
  760POPS   GL111609  12.553   8.481   6.502 -0.0121  0.1232 -0.1983
  760POPS   GL211610  12.851   8.715   6.440 -0.2337 -0.2968 -0.0344
  760POPS   C1A11611  12.449   8.301   6.948  0.1979  0.0608  0.2290
  760POPS   D2A11612  12.238   8.224   7.247  0.1430  0.1690 -0.3223
  760POPS   C3A11613  11.962   8.421   7.337  0.0559 -0.3623 -0.0194
  760POPS   C4A11614  11.832   8.567   7.771 -0.0550 -0.0951  0.0678
  760POPS   C1B11615  12.909   8.582   6.846  0.2482  0.1754 -0.2599
  760POPS   C2B11616  12.763   8.450   7.272 -0.0311 -0.1216 -0.0139
  760POPS   C3B11617  12.601   8.187   7.650 -0.2554  0.0762  0.2024
  760POPS   C4B11618  12.489   8.119   8.087 -0.0983 -0.3386 -0.0878
  761POPS   CNO11619  16.420   3.252   6.553 -0.2671  0.1215  0.1080
  761POPS   PO411620  15.960   3.288   6.334 -0.1212  0.0388  0.1122
  761POPS   GL111621  15.977   3.175   6.810 -0.1297 -0.1128 -0.1617
  761POPS   GL211622  16.167   2.986   6.983 -0.3269 -0.3737 -0.0772
  761POPS   C1A11623  15.836   3.234   7.224  0.1011 -0.0360 -0.0177
  761POPS   D2A11624  15.779   3.200   7.671  0.1059 -0.1126  0.0815
  761POPS   C3A11625  15.769   3.540   7.979 -0.0636  0.0324  0.4074
  761POPS   C4A11626  15.578   3.562   8.303  0.1455  0.0384  0.0826
  761POPS   C1B11627  16.211   2.982   7.400 -0.1001 -0.0665 -0.0003
  761POPS   C2B11628  16.174   2.849   7.820 -0.0346  0.0309 -0.0604
  761POPS   C3B11629  16.372   2.842   8.231 -0.2226  0.0308  0.1375
  761POPS   C4B11630  16.376   2.622   8.661 -0.3148 -0.1888  0.1746
  762POPS   CNO11631  15.222  13.247   5.472 -0.0912 -0.0890  0.1672
  762POPS   PO411632  15.398  13.519   5.784 -0.0034 -0.0356 -0.2005
  762POPS   GL111633  15.360  13.368   6.114  0.2717 -0.1564  0.1312
  762POPS   GL211634  15.079  13.268   6.162  0.0684  0.1169 -0.2587
  762POPS   C1A11635  15.572  13.288   6.431 -0.2453 -0.2182 -0.2384
  762POPS   D2A11636  15.942  13.533   6.607 -0.1834 -0.0164  0.1470
  762POPS   C3A11637  16.010  13.760   6.928  0.0455  0.0117 -0.2542
  762POPS   C4A11638  15.943  13.830   7.403 -0.0776 -0.0539 -0.1247
  762POPS   C1B11639  15.088  13.442   6.615 -0.2591  0.1499 -0.1210
  762POPS   C2B11640  15.127  13.451   7.058  0.1230 -0.1869 -0.2074
  762POPS   C3B11641  15.002  13.510   7.488  0.1617 -0.0707 -0.3495
  762POPS   C4B11642  14.889  13.247   7.893  0.2784 -0.2932 -0.2183
  763POPS   CNO11643   2.658   5.113   5.522  0.0675 -0.1115 -0.0943
  763POPS   PO411644   2.733   5.334   5.939  0.1250 -0.2373  0.0145
  763POPS   GL111645   2.952   5.526   6.338  0.0804 -0.0964  0.2342
  763POPS   GL211646   2.983   5.379   6.639  0.1615 -0.0277 -0.0655
  763POPS   C1A11647   3.208   5.820   6.632 -0.0805 -0.0325  0.1341
  763POPS   D2A11648   3.086   6.245   6.901 -0.2353  0.0597  0.2098
  763POPS   C3A11649   3.130   6.331   7.295 -0.2055 -0.2851  0.1723
  763POPS   C4A11650   3.117   6.726   7.400 -0.1643 -0.2027 -0.0836
  763POPS   C1B11651   2.980   5.208   7.034 -0.4561  0.0917  0.2771
  763POPS   C2B11652   2.893   5.291   7.423  0.2894 -0.1285  0.1882
  763POPS   C3B11653   3.133   5.419   7.822 -0.0976 -0.3919 -0.0556
  763POPS   C4B11654   3.360   5.602   8.181  0.0412 -0.0912 -0.3180
  764POPS   CNO11655   3.002   3.057   5.969  0.0337  0.2809 -0.1803
  764POPS   PO411656   3.341   2.775   6.246 -0.1066  0.0334  0.0458
  764POPS   GL111657   3.503   2.613   6.667  0.1991 -0.0803 -0.0794
  764POPS   GL211658   3.856   2.651   6.747 -0.0133  0.1431  0.1751
  764POPS   C1A11659   3.573   2.206   6.835 -0.1614 -0.1070  0.3928
  764POPS   D2A11660   3.759   2.000   7.142  0.2337  0.0595 -0.3591
  764POPS   C3A11661   3.376   1.983   7.522 -0.0680 -0.0330 -0.0952
  764POPS   C4A11662   3.231   1.768   7.935 -0.3933  0.0084 -0.0555
  764POPS   C1B11663   3.636   2.518   7.197  0.0178 -0.0421  0.1912
  764POPS   C2B11664   3.453   2.481   7.566  0.2630  0.0162 -0.3211
  764POPS   C3B11665   3.119   2.638   7.737 -0.0577  0.0390 -0.0316
  764POPS   C4B11666   3.007   2.942   8.066 -0.1160  0.0805  0.1314
  765POPS   CNO11667  12.364  16.681   5.499  0.0460 -0.1531  0.3247
  765POPS   PO411668  12.380  17.079   5.748  0.3752 -0.0662 -0.1441
  765POPS   GL111669  12.262  16.998   6.164  0.0579 -0.1819  0.1908
  765POPS   GL211670  11.953  17.160   6.216  0.1692  0.1232 -0.0513
  765POPS   C1A11671  12.470  16.736   6.393 -0.1320 -0.1162 -0.0856
  765POPS   D2A11672  12.809  16.667   6.577  0.0303  0.1399 -0.3046
  765POPS   C3A11673  13.045  16.352   6.676 -0.0530 -0.1138 -0.0586
  765POPS   C4A11674  13.315  16.059   6.941  0.0216  0.1148  0.3735
  765POPS   C1B11675  12.045  17.335   6.610  0.1435  0.1631  0.0814
  765POPS   C2B11676  12.025  17.212   7.032 -0.1150  0.0682 -0.0193
  765POPS   C3B11677  11.975  17.152   7.532  0.0077  0.1465 -0.1534
  765POPS   C4B11678  12.231  17.228   7.913  0.2272 -0.2069 -0.3361
  766POPS   CNO11679  13.885   8.225   6.001  0.0088 -0.0644  0.1405
  766POPS   PO411680  14.179   7.898   6.100  0.3617 -0.1350 -0.0567
  766POPS   GL111681  14.376   7.813   6.459 -0.0766 -0.2253 -0.0157
  766POPS   GL211682  14.242   7.542   6.649  0.1492 -0.0219 -0.0424
  766POPS   C1A11683  14.753   7.768   6.688  0.1780  0.4257 -0.1464
  766POPS   D2A11684  15.050   7.741   7.042  0.0400 -0.0710 -0.0800
  766POPS   C3A11685  15.004   7.931   7.441 -0.0051  0.2429 -0.0578
  766POPS   C4A11686  14.911   7.807   7.917 -0.3568  0.0592 -0.1005
  766POPS   C1B11687  14.456   7.531   7.085 -0.0490  0.0236  0.1313
  766POPS   C2B11688  14.490   7.805   7.441  0.0784 -0.0839  0.1387
  766POPS   C3B11689  14.622   8.159   7.755 -0.0540 -0.0252 -0.0990
  766POPS   C4B11690  14.965   8.356   7.931 -0.1743  0.1458  0.2094
  767POPS   CNO11691  16.554   6.145   5.575 -0.1612  0.1572  0.0551
  767POPS   PO411692  16.762   6.162   5.944  0.2479 -0.1380  0.2555
  767POPS   GL111693  16.580   6.261   6.332 -0.2169  0.0794 -0.2401
  767POPS   GL211694  16.491   5.975   6.507  0.4159 -0.1181  0.2252
  767POPS   C1A11695  16.779   6.265   6.795 -0.0106  0.0695  0.0963
  767POPS   D2A11696  16.780   6.287   7.287 -0.0585 -0.2705  0.0348
  767POPS   C3A11697  16.479   6.546   7.533 -0.0157  0.0485  0.0811
  767POPS   C4A11698  16.293   6.645   7.927  0.1544  0.2411 -0.0423
  767POPS   C1B11699  16.366   6.039   6.869 -0.0540  0.1402 -0.0731
  767POPS   C2B11700  16.360   5.987   7.271  0.0911  0.0531  0.2766
  767POPS   C3B11701  16.584   6.094   7.748 -0.3352 -0.1906 -0.0008
  767POPS   C4B11702  16.448   5.909   8.119  0.0718 -0.0519  0.2237
  768POPS   CNO11703   0.967   0.231   5.885 -0.0206  0.0930  0.0909
  768POPS   PO411704   0.515   0.299   5.917  0.0858 -0.0150  0.0532
  768POPS   GL111705   0.634   0.273   6.319  0.4868 -0.0630  0.2577
  768POPS   GL211706   0.937   0.207   6.416  0.0814  0.0864  0.2180
  768POPS   C1A11707   0.481   0.209   6.737  0.1097 -0.2005 -0.1935
  768POPS   D2A11708   0.357   0.405   7.114  0.0440  0.1202 -0.0001
  768POPS   C3A11709   0.499   0.380   7.490 -0.1228  0.1529  0.1929
  768POPS   C4A11710   0.427   0.426   7.949  0.0719  0.0754  0.0224
  768POPS   C1B11711   1.067   0.069   6.804 -0.2696 -0.1546  0.0867
  768POPS   C2B11712   1.300   0.057   7.184 -0.4163  0.1892  0.0336
  768POPS   C3B11713   1.631  -0.125   7.334 -0.1357  0.0444  0.0943
  768POPS   C4B11714   1.664  -0.296   7.781 -0.0524  0.5189 -0.2603
  769POPS   CNO11715  13.642  13.360   5.530 -0.0233  0.1681 -0.0206
  769POPS   PO411716  13.420  13.608   5.931 -0.1757  0.4099 -0.2368
  769POPS   GL111717  13.483  13.763   6.292 -0.1967 -0.0976  0.1861
  769POPS   GL211718  13.703  13.589   6.391  0.2025  0.0123 -0.0212
  769POPS   C1A11719  13.382  13.707   6.754 -0.3051  0.1446 -0.1262
  769POPS   D2A11720  13.254  13.742   7.144  0.1505 -0.2029  0.2816
  769POPS   C3A11721  13.031  13.523   7.518 -0.0377 -0.2119  0.0575
  769POPS   C4A11722  13.013  13.800   7.864  0.0282 -0.0187  0.3635
  769POPS   C1B11723  13.868  13.587   6.746 -0.0874 -0.0249 -0.1075
  769POPS   C2B11724  13.851  13.767   7.219 -0.1976 -0.2515 -0.0776
  769POPS   C3B11725  13.711  13.724   7.636 -0.2156  0.5113  0.1408
  769POPS   C4B11726  13.449  13.580   7.890  0.2146 -0.0246  0.2097
  770POPS   CNO11727   1.711  13.013   5.710 -0.1866 -0.0806  0.4091
  770POPS   PO411728   1.775  12.689   5.563  0.2893 -0.1127 -0.0174
  770POPS   GL111729   1.819  12.484   5.990  0.2317 -0.1244  0.3905
  770POPS   GL211730   2.094  12.347   6.084 -0.2742 -0.0003  0.2117
  770POPS   C1A11731   1.833  12.368   6.504  0.0353  0.1351 -0.1307
  770POPS   D2A11732   1.839  12.323   6.940 -0.1114  0.0863 -0.3594
  770POPS   C3A11733   1.446  12.213   7.157 -0.4231 -0.0018 -0.0327
  770POPS   C4A11734   1.405  11.892   7.456 -0.0609  0.0020  0.1676
  770POPS   C1B11735   2.260  12.124   6.526 -0.0031  0.1198  0.0159
  770POPS   C2B11736   2.243  12.095   6.958  0.0312 -0.2154 -0.1567
  770POPS   C3B11737   1.904  12.002   7.336 -0.2639  0.0817 -0.2039
  770POPS   C4B11738   1.899  12.085   7.696 -0.0729  0.3279  0.1537
  771POPS   CNO11739  15.745   7.676   6.056 -0.4395 -0.0019 -0.0708
  771POPS   PO411740  15.871   8.159   6.016 -0.1389 -0.1195  0.1307
  771POPS   GL111741  15.878   8.128   6.429  0.3127 -0.1085 -0.4051
  771POPS   GL211742  16.053   7.928   6.444  0.0870  0.0753  0.0931
  771POPS   C1A11743  15.871   8.380   6.861  0.1292 -0.0914  0.1375
  771POPS   D2A11744  15.570   8.683   7.020 -0.3573 -0.2168  0.2255
  771POPS   C3A11745  15.613   8.696   7.474 -0.0884  0.1124 -0.0482
  771POPS   C4A11746  15.543   8.933   7.842  0.1484 -0.0168  0.0163
  771POPS   C1B11747  16.290   7.961   6.888 -0.0186 -0.4231 -0.0591
  771POPS   C2B11748  16.368   8.030   7.308 -0.1840  0.1070  0.0498
  771POPS   C3B11749  16.456   8.032   7.731 -0.0391 -0.1193 -0.0781
  771POPS   C4B11750  16.199   7.763   7.981 -0.2510  0.0525 -0.1058
  772POPS   CNO11751   8.487   5.957   5.930  0.0190  0.0968 -0.0194
  772POPS   PO411752   8.528   6.171   6.300  0.2427 -0.1819 -0.1780
  772POPS   GL111753   8.416   6.045   6.698 -0.1341  0.0514 -0.0820
  772POPS   GL211754   8.147   5.942   6.763  0.0999  0.1026  0.3307
  772POPS   C1A11755   8.514   6.171   7.065 -0.1441 -0.2063  0.4022
  772POPS   D2A11756   8.636   6.304   7.379  0.0565  0.1049  0.2360
  772POPS   C3A11757   8.512   6.553   7.792 -0.0283 -0.1140  0.2207
  772POPS   C4A11758   8.382   6.640   8.155  0.1140 -0.1455 -0.0309
  772POPS   C1B11759   8.059   6.048   7.194  0.0961  0.2189  0.1459
  772POPS   C2B11760   8.255   6.079   7.607 -0.0927  0.1084  0.1507
  772POPS   C3B11761   8.344   6.109   7.982 -0.2389  0.0217  0.1442
  772POPS   C4B11762   8.378   5.948   8.355  0.0905 -0.2180 -0.0715
  773POPS   CNO11763   3.336  15.053   5.294  0.1850 -0.0624  0.0567
  773POPS   PO411764   3.650  15.113   5.602  0.0697  0.0089  0.0516
  773POPS   GL111765   3.668  15.007   6.018 -0.0133 -0.0495  0.2072
  773POPS   GL211766   3.387  14.989   6.138 -0.2747  0.0557  0.1490
  773POPS   C1A11767   3.769  14.817   6.410  0.2001 -0.0274 -0.1407
  773POPS   D2A11768   3.538  14.743   6.832 -0.1338 -0.0296  0.3466
  773POPS   C3A11769   3.514  14.547   7.270  0.2223 -0.0031  0.1571
  773POPS   C4A11770   3.422  14.434   7.718 -0.0723 -0.2542 -0.1077
  773POPS   C1B11771   3.362  15.181   6.594  0.0380  0.2197 -0.0347
  773POPS   C2B11772   3.373  15.225   6.975  0.0502 -0.3176 -0.1017
  773POPS   C3B11773   3.603  15.017   7.308 -0.2439  0.2347 -0.0281
  773POPS   C4B11774   3.713  14.832   7.618 -0.0342 -0.1012 -0.3445
  774POPS   CNO11775  16.008  15.012   5.815  0.0749 -0.2693  0.2419
  774POPS   PO411776  16.164  15.048   6.198 -0.1480 -0.2413 -0.1689
  774POPS   GL111777  16.525  14.911   6.270  0.0980  0.1720 -0.0689
  774POPS   GL211778  16.654  15.163   6.280  0.0063  0.0344 -0.1696
  774POPS   C1A11779  16.696  14.728   6.658 -0.1552  0.1837  0.3396
  774POPS   D2A11780  16.864  14.892   6.995  0.0543  0.0482  0.0996
  774POPS   C3A11781  17.083  14.757   7.327  0.0190  0.1813 -0.0191
  774POPS   C4A11782  17.380  14.609   7.613 -0.1857 -0.0398 -0.1110
  774POPS   C1B11783  16.530  15.237   6.709  0.0935 -0.1026  0.0053
  774POPS   C2B11784  16.479  15.270   7.161  0.0411  0.0187  0.1514
  774POPS   C3B11785  16.195  15.323   7.451  0.0281 -0.0632  0.0326
  774POPS   C4B11786  16.157  15.332   7.926 -0.0480  0.0799  0.0113
  775POPS   CNO11787  15.940  10.935   5.724 -0.1524  0.2351  0.0682
  775POPS   PO411788  15.864  10.569   5.926 -0.1837 -0.2337  0.0488
  775POPS   GL111789  15.985  10.552   6.310  0.0717 -0.2814 -0.3281
  775POPS   GL211790  15.700  10.587   6.467  0.2300  0.0299 -0.3130
  775POPS   C1A11791  16.288  10.590   6.823 -0.4426 -0.1706 -0.0915
  775POPS   D2A11792  16.193  10.572   7.214 -0.1275 -0.1134  0.2832
  775POPS   C3A11793  16.030  10.810   7.562  0.2442 -0.1582  0.1590
  775POPS   C4A11794  15.830  11.218   7.766  0.0250  0.0084  0.0279
  775POPS   C1B11795  15.859  10.823   6.867  0.3158 -0.0433  0.0284
  775POPS   C2B11796  15.762  11.168   7.193 -0.0530 -0.1603  0.3811
  775POPS   C3B11797  15.800  11.539   7.342  0.1778 -0.1059 -0.0631
  775POPS   C4B11798  16.088  11.652   7.690  0.1757 -0.0403 -0.1525
  776POPS   CNO11799   9.663  11.140   6.025  0.1884 -0.1788 -0.0751
  776POPS   PO411800  10.009  10.996   5.932 -0.1151  0.0650 -0.0628
  776POPS   GL111801  10.153  11.055   6.351 -0.1051 -0.0707  0.1778
  776POPS   GL211802   9.793  11.157   6.495 -0.2562 -0.4110 -0.0931
  776POPS   C1A11803  10.367  11.178   6.725 -0.4391  0.0906  0.0998
  776POPS   D2A11804  10.433  11.541   6.992  0.0284  0.1355 -0.2838
  776POPS   C3A11805  10.732  11.778   6.803  0.0981  0.0146 -0.0347
  776POPS   C4A11806  11.244  11.737   6.796  0.0494 -0.0020  0.1246
  776POPS   C1B11807   9.574  10.876   6.840 -0.0002  0.1129 -0.0468
  776POPS   C2B11808   9.485  10.911   7.317  0.0398  0.3137  0.1789
  776POPS   C3B11809   9.482  11.053   7.680 -0.0869  0.1053 -0.0513
  776POPS   C4B11810   9.298  11.189   8.092  0.1649 -0.3119  0.3013
  777POPS   CNO11811   6.917   8.608   5.616  0.0447 -0.0884 -0.1184
  777POPS   PO411812   6.564   8.726   5.879 -0.0960  0.1620 -0.0580
  777POPS   GL111813   6.536   8.836   6.441 -0.1705  0.2973 -0.2213
  777POPS   GL211814   6.635   9.176   6.535  0.0392 -0.0086  0.0073
  777POPS   C1A11815   6.291   8.665   6.824  0.2899 -0.0785 -0.0978
  777POPS   D2A11816   6.398   8.422   7.143 -0.1337 -0.0139 -0.1063
  777POPS   C3A11817   6.030   8.236   7.463 -0.0445  0.1781  0.0100
  777POPS   C4A11818   5.857   8.076   7.988 -0.2670 -0.3482 -0.2316
  777POPS   C1B11819   6.475   9.307   6.876 -0.2114 -0.2395  0.0453
  777POPS   C2B11820   6.339   9.305   7.417  0.1679 -0.0274 -0.0167
  777POPS   C3B11821   6.236   9.388   7.874 -0.0210 -0.0750  0.2152
  777POPS   C4B11822   5.980   9.520   8.223  0.1375  0.0604 -0.1372
  778POPS   CNO11823   7.061   7.305   5.822 -0.0477  0.0354  0.1372
  778POPS   PO411824   6.908   6.827   6.034  0.0095 -0.0897  0.2075
  778POPS   GL111825   7.075   6.901   6.435  0.3776 -0.2301  0.0169
  778POPS   GL211826   7.387   6.863   6.559 -0.0986  0.2316 -0.1300
  778POPS   C1A11827   7.107   6.759   6.937  0.0247 -0.0633 -0.0535
  778POPS   D2A11828   7.319   6.658   7.416  0.4260  0.2453  0.0693
  778POPS   C3A11829   7.633   6.733   7.668  0.1489  0.0750  0.0226
  778POPS   C4A11830   7.841   7.089   8.043  0.2247 -0.0787 -0.1414
  778POPS   C1B11831   7.637   6.775   6.793  0.1752 -0.2739  0.0287
  778POPS   C2B11832   7.654   6.888   7.172 -0.0086 -0.2063  0.1886
  778POPS   C3B11833   7.547   7.152   7.475 -0.0607 -0.2477  0.2604
  778POPS   C4B11834   7.543   7.437   7.800  0.1753  0.0438  0.1912
  779POPS   CNO11835   0.741   1.582   5.920 -0.1070 -0.2623 -0.3636
  779POPS   PO411836   0.472   1.324   6.174 -0.1757  0.1225 -0.1386
  779POPS   GL111837   0.516   1.194   6.631  0.1150  0.0019  0.0222
  779POPS   GL211838   0.615   0.891   6.553 -0.0411 -0.1217 -0.1848
  779POPS   C1A11839   0.480   1.368   7.034  0.1609 -0.1531  0.0055
  779POPS   D2A11840   0.623   1.502   7.364 -0.1549 -0.0859  0.1022
  779POPS   C3A11841   0.847   1.417   7.596  0.2467  0.1319 -0.0224
  779POPS   C4A11842   0.710   1.190   7.908  0.1729 -0.0143  0.2245
  779POPS   C1B11843   0.470   0.879   6.991  0.0502  0.1876 -0.3981
  779POPS   C2B11844   0.397   0.941   7.364  0.0740  0.2054  0.0554
  779POPS   C3B11845   0.282   0.949   7.770 -0.0728  0.2549 -0.0719
  779POPS   C4B11846   0.399   0.889   8.286 -0.0608  0.1417 -0.2609
  780POPS   CNO11847   9.038  11.184   6.009 -0.0477 -0.3589 -0.1805
  780POPS   PO411848   9.303  11.477   6.079 -0.5103  0.2311 -0.0576
  780POPS   GL111849   9.288  11.472   6.443 -0.1393  0.1506 -0.2362
  780POPS   GL211850   9.439  11.449   6.664 -0.1881  0.0334  0.1313
  780POPS   C1A11851   9.026  11.662   6.829  0.5025 -0.1530  0.1216
  780POPS   D2A11852   9.186  11.903   7.222  0.0144  0.4433 -0.0439
  780POPS   C3A11853   9.601  11.884   7.163 -0.1210 -0.1500  0.2406
  780POPS   C4A11854   9.807  12.293   6.968  0.1135 -0.1970  0.1708
  780POPS   C1B11855   9.419  11.415   7.064 -0.1633  0.3024 -0.2167
  780POPS   C2B11856   9.585  11.492   7.447  0.0076 -0.3337 -0.0427
  780POPS   C3B11857   9.594  11.546   7.837  0.0739  0.1801 -0.1206
  780POPS   C4B11858   9.713  11.570   8.198 -0.1625  0.0046  0.0169
  781POPS   CNO11859   3.110  13.359   5.351 -0.1593  0.1467  0.1269
  781POPS   PO411860   3.078  13.178   5.610 -0.0338 -0.1578 -0.2695
  781POPS   GL111861   2.967  13.038   5.960 -0.1196  0.1680  0.3155
  781POPS   GL211862   2.738  13.177   6.194 -0.3886 -0.2055  0.2360
  781POPS   C1A11863   2.940  12.735   6.300 -0.1771  0.3418  0.0267
  781POPS   D2A11864   3.035  12.700   6.742 -0.1159  0.0821  0.0528
  781POPS   C3A11865   2.888  12.430   7.016  0.0517  0.0072  0.1800
  781POPS   C4A11866   2.727  12.058   7.252 -0.0452  0.0632  0.0507
  781POPS   C1B11867   2.732  13.081   6.608 -0.1847 -0.2217 -0.4539
  781POPS   C2B11868   2.745  12.973   7.099 -0.2384 -0.0644  0.2612
  781POPS   C3B11869   2.419  12.971   7.417  0.1619  0.0960  0.2988
  781POPS   C4B11870   1.940  13.081   7.644  0.1243  0.0779 -0.2421
  782POPS   CNO11871  14.936  16.027   6.104  0.1334 -0.1544 -0.0808
  782POPS   PO411872  14.950  16.466   6.096 -0.0425 -0.2686  0.1752
  782POPS   GL111873  15.094  16.322   6.502  0.1752 -0.1370  0.3245
  782POPS   GL211874  14.969  16.073   6.618  0.1897  0.3636  0.0230
  782POPS   C1A11875  15.235  16.554   6.794 -0.2329  0.2534 -0.0015
  782POPS   D2A11876  15.061  17.014   6.673 -0.0368  0.0744 -0.1614
  782POPS   C3A11877  14.752  17.171   6.966  0.0076 -0.3303  0.0222
  782POPS   C4A11878  14.479  17.403   7.172 -0.0039  0.1128  0.0240
  782POPS   C1B11879  14.951  16.220   7.049 -0.0203  0.0561  0.0730
  782POPS   C2B11880  14.964  16.327   7.420 -0.4776  0.1053 -0.1686
  782POPS   C3B11881  15.212  16.407   7.744  0.0369 -0.3362  0.1795
  782POPS   C4B11882  15.329  16.203   8.114  0.0843 -0.0454  0.0277
  783POPS   CNO11883  15.637  12.436   5.527 -0.0802  0.1380  0.0216
  783POPS   PO411884  16.058  12.589   5.778  0.0142  0.0291  0.0556
  783POPS   GL111885  16.139  12.912   6.097 -0.3147  0.0927 -0.1612
  783POPS   GL211886  16.389  12.974   6.074 -0.0483  0.2250  0.0317
  783POPS   C1A11887  16.016  13.291   6.149 -0.1123  0.1552  0.2511
  783POPS   D2A11888  16.189  13.749   6.210  0.1424 -0.0728  0.0470
  783POPS   C3A11889  16.414  13.784   6.502 -0.0469 -0.0220  0.0088
  783POPS   C4A11890  16.818  13.646   6.557  0.0932  0.1843 -0.1458
  783POPS   C1B11891  16.382  13.232   6.475  0.1173  0.0588 -0.2947
  783POPS   C2B11892  16.370  13.409   6.835  0.0193 -0.1841  0.2295
  783POPS   C3B11893  16.262  13.432   7.291  0.0119 -0.1465 -0.0821
  783POPS   C4B11894  16.341  13.376   7.793 -0.2932  0.1370  0.1413
  784POPS   CNO11895  16.674   4.738   6.039 -0.0219 -0.1412 -0.1019
  784POPS   PO411896  17.070   4.837   6.205  0.2524 -0.0830 -0.0827
  784POPS   GL111897  17.147   5.030   6.619  0.1057 -0.1700  0.1227
  784POPS   GL211898  17.158   5.320   6.489 -0.2118  0.0682  0.1132
  784POPS   C1A11899  17.142   4.875   7.025 -0.0050 -0.1499 -0.0361
  784POPS   D2A11900  16.949   4.756   7.233 -0.0966  0.1521 -0.2951
  784POPS   C3A11901  17.119   4.708   7.596 -0.2351  0.1380  0.1103
  784POPS   C4A11902  17.341   4.579   7.820  0.1158 -0.0510 -0.2111
  784POPS   C1B11903  17.233   5.379   6.974 -0.2324  0.2846 -0.3697
  784POPS   C2B11904  17.487   5.533   7.372 -0.1951  0.1818  0.4017
  784POPS   C3B11905  17.703   5.629   7.840  0.2342  0.2503 -0.2194
  784POPS   C4B11906  17.718   5.951   8.162  0.0993 -0.0139 -0.0737
  785POPS   CNO11907  15.607   6.760   6.502  0.0024 -0.3041  0.1767
  785POPS   PO411908  15.532   7.228   6.274 -0.1196  0.0193 -0.1540
  785POPS   GL111909  15.847   7.413   6.509  0.0589 -0.0660  0.1097
  785POPS   GL211910  15.984   7.069   6.696 -0.1034 -0.1836 -0.2546
  785POPS   C1A11911  15.954   7.571   6.941 -0.0523 -0.1783 -0.3027
  785POPS   D2A11912  15.897   7.951   7.207 -0.1138 -0.0612 -0.0462
  785POPS   C3A11913  15.828   8.006   7.655  0.0960 -0.0716  0.1059
  785POPS   C4A11914  15.951   8.189   8.085 -0.1583  0.0912 -0.0151
  785POPS   C1B11915  16.429   7.083   6.873 -0.3141  0.2125 -0.0653
  785POPS   C2B11916  16.528   6.995   7.241  0.0640  0.0461 -0.0436
  785POPS   C3B11917  16.623   6.984   7.749  0.0012 -0.1027  0.1465
  785POPS   C4B11918  16.598   6.955   8.253 -0.2730  0.1926  0.0781
  786POPS   CNO11919   4.366   0.138   6.015  0.3511 -0.0590  0.1018
  786POPS   PO411920   4.578  -0.204   6.084  0.0377 -0.1827 -0.1435
  786POPS   GL111921   4.430  -0.038   6.507 -0.0867  0.0633 -0.1687
  786POPS   GL211922   4.659  -0.336   6.693 -0.0151  0.1974  0.1859
  786POPS   C1A11923   4.551   0.016   7.009  0.1084 -0.0086 -0.1925
  786POPS   D2A11924   4.698   0.056   7.433  0.3309 -0.1916 -0.2541
  786POPS   C3A11925   4.585  -0.068   7.755 -0.2163 -0.1106  0.0353
  786POPS   C4A11926   4.543  -0.298   8.125  0.0098  0.1345 -0.1458
  786POPS   C1B11927   4.667  -0.541   7.035  0.4142 -0.0699  0.0343
  786POPS   C2B11928   4.739  -0.469   7.429 -0.1005 -0.1557 -0.1894
  786POPS   C3B11929   4.831  -0.687   7.835  0.3396  0.0135 -0.0240
  786POPS   C4B11930   4.605  -0.891   8.215 -0.1184  0.0343  0.1182
  787POPS   CNO11931   9.046  13.437   5.594 -0.1107  0.2525  0.3905
  787POPS   PO411932   8.654  13.118   5.699 -0.0868 -0.0079  0.3059
  787POPS   GL111933   8.482  13.199   6.116  0.2275  0.0283  0.0958
  787POPS   GL211934   8.363  12.857   6.225  0.0650 -0.1276 -0.0703
  787POPS   C1A11935   8.750  13.181   6.553  0.0291 -0.1162  0.0364
  787POPS   D2A11936   8.566  13.126   6.992 -0.2421  0.3963  0.2646
  787POPS   C3A11937   8.610  12.937   7.373  0.0972 -0.1203 -0.1598
  787POPS   C4A11938   8.564  12.708   7.685  0.0370 -0.0593 -0.0447
  787POPS   C1B11939   8.249  13.073   6.575 -0.3605  0.4243  0.0601
  787POPS   C2B11940   8.103  13.212   6.981  0.2714 -0.1393  0.0837
  787POPS   C3B11941   8.139  13.294   7.425 -0.0940  0.1763 -0.0225
  787POPS   C4B11942   8.111  13.041   7.691 -0.3460  0.3590  0.3357
  788POPS   CNO11943   8.513   8.975   5.468  0.0081 -0.3760 -0.2409
  788POPS   PO411944   8.586   9.042   5.984 -0.0241  0.1616 -0.0539
  788POPS   GL111945   8.442   8.984   6.407  0.0917  0.1814 -0.2896
  788POPS   GL211946   8.166   9.090   6.479 -0.2260  0.2211 -0.0352
  788POPS   C1A11947   8.600   8.914   6.766 -0.0218 -0.0327 -0.0415
  788POPS   D2A11948   8.622   9.107   7.088 -0.0760 -0.3402 -0.3733
  788POPS   C3A11949   8.685   8.794   7.445 -0.1298  0.3846  0.2105
  788POPS   C4A11950   9.010   8.889   7.785 -0.1347  0.2420  0.2003
  788POPS   C1B11951   8.275   9.312   6.873  0.4793  0.1714  0.0788
  788POPS   C2B11952   8.166   9.386   7.180  0.1311  0.2314 -0.3539
  788POPS   C3B11953   8.405   9.499   7.367 -0.0332 -0.0237 -0.1097
  788POPS   C4B11954   8.684   9.299   7.536  0.3038 -0.1228 -0.1684
  789POPS   CNO11955  10.729  14.556   5.884  0.0277 -0.0786  0.1299
  789POPS   PO411956  10.583  14.216   6.128 -0.0198  0.2370 -0.0821
  789POPS   GL111957  10.597  14.601   6.364 -0.0448 -0.0133  0.2456
  789POPS   GL211958  10.290  14.688   6.200  0.1760  0.4857 -0.3610
  789POPS   C1A11959  10.582  14.595   6.794 -0.0532 -0.1245  0.0009
  789POPS   D2A11960  10.570  14.427   7.195  0.1087  0.0138 -0.0289
  789POPS   C3A11961  10.435  14.405   7.587  0.0014  0.1012  0.0963
  789POPS   C4A11962  10.396  14.146   7.962 -0.0111 -0.0007 -0.1265
  789POPS   C1B11963  10.132  14.428   6.515  0.2260  0.2203 -0.0830
  789POPS   C2B11964  10.228  14.229   6.845  0.0665 -0.0947  0.1217
  789POPS   C3B11965  10.132  14.081   7.234  0.0472 -0.2333  0.0929
  789POPS   C4B11966  10.041  14.073   7.607  0.2919  0.3355  0.0636
  790POPS   CNO11967   0.717   9.721   5.921 -0.0058  0.2584  0.0552
  790POPS   PO411968   0.988   9.450   5.728 -0.0298  0.1764 -0.2957
  790POPS   GL111969   0.857   9.244   6.159  0.0807  0.0909 -0.0537
  790POPS   GL211970   0.755   9.005   6.014 -0.2711  0.1903  0.4373
  790POPS   C1A11971   0.633   9.278   6.512  0.0614 -0.1276 -0.0454
  790POPS   D2A11972   0.328   9.548   6.748  0.0699  0.1658  0.2009
  790POPS   C3A11973   0.233   9.566   7.137  0.0778  0.1213 -0.0278
  790POPS   C4A11974   0.593   9.766   7.414  0.2159 -0.2437  0.0251
  790POPS   C1B11975   0.977   8.914   6.474 -0.1815 -0.0888 -0.0140
  790POPS   C2B11976   1.015   9.045   6.889 -0.3018  0.1791 -0.0866
  790POPS   C3B11977   1.077   8.936   7.386  0.0123  0.3891 -0.0753
  790POPS   C4B11978   1.105   8.755   7.783  0.0328 -0.0938 -0.0481
  791POPS   CNO11979   5.812   2.557   5.774  0.1279  0.0216  0.0733
  791POPS   PO411980   5.789   2.480   6.243  0.0653  0.1097 -0.0045
  791POPS   GL111981   5.857   2.211   6.530  0.0134 -0.2178 -0.0144
  791POPS   GL211982   6.105   2.346   6.617  0.0051  0.1936  0.2663
  791POPS   C1A11983   5.855   2.157   7.034  0.1607 -0.0950  0.0603
  791POPS   D2A11984   6.032   2.247   7.535  0.0919  0.1201 -0.0141
  791POPS   C3A11985   5.862   1.983   7.867  0.3636 -0.0154 -0.0313
  791POPS   C4A11986   5.897   1.839   8.321  0.0510 -0.1213  0.3029
  791POPS   C1B11987   5.811   2.643   6.875 -0.1620 -0.0170 -0.0550
  791POPS   C2B11988   5.705   2.549   7.307 -0.3446  0.2156 -0.0525
  791POPS   C3B11989   5.501   2.648   7.678 -0.0638  0.0913  0.2407
  791POPS   C4B11990   5.398   2.635   8.095  0.0626 -0.2231  0.1166
  792POPS   CNO11991   1.063  14.242   5.247  0.0469 -0.2470 -0.5666
  792POPS   PO411992   1.330  13.932   5.555  0.2359  0.3186  0.2295
  792POPS   GL111993   1.563  13.982   5.906 -0.0709 -0.1376  0.3854
  792POPS   GL211994   1.732  14.219   5.922 -0.2334  0.0198  0.1019
  792POPS   C1A11995   1.454  13.888   6.315 -0.3959  0.0029 -0.0918
  792POPS   D2A11996   1.147  13.924   6.711 -0.0096 -0.2408 -0.1753
  792POPS   C3A11997   1.201  14.056   7.131  0.1394  0.0927  0.0848
  792POPS   C4A11998   1.023  13.926   7.555  0.0535  0.0652 -0.1775
  792POPS   C1B11999   1.643  14.448   6.297  0.1095  0.2082  0.0065
  792POPS   C2B12000   1.364  14.422   6.730 -0.0780 -0.1063  0.2589
  792POPS   C3B12001   1.237  14.578   7.148 -0.1038 -0.1802  0.0077
  792POPS   C4B12002   1.404  14.297   7.556 -0.1060 -0.2341  0.2116
  793POPS   CNO12003   7.026   5.976   6.277 -0.1121 -0.1358  0.0354
  793POPS   PO412004   6.818   5.591   6.141  0.1019 -0.2763  0.1785
  793POPS   GL112005   6.551   5.766   6.468 -0.0856 -0.0298  0.0932
  793POPS   GL212006   6.259   6.009   6.600 -0.0503  0.0334  0.0944
  793POPS   C1A12007   6.677   6.019   6.776 -0.1362  0.1851 -0.1339
  793POPS   D2A12008   6.683   6.084   7.294 -0.0554  0.0896  0.1035
  793POPS   C3A12009   6.333   6.225   7.543 -0.0378  0.1199 -0.0558
  793POPS   C4A12010   6.448   6.466   7.954 -0.0910 -0.1166  0.5007
  793POPS   C1B12011   6.168   6.116   7.031  0.0728 -0.0148  0.1312
  793POPS   C2B12012   5.956   5.928   7.372 -0.2243  0.2641  0.0126
  793POPS   C3B12013   5.613   5.959   7.661  0.1667 -0.3726 -0.0149
  793POPS   C4B12014   5.409   5.711   7.996  0.1897  0.0758  0.0415
  794POPS   CNO12015  15.667   9.301   5.193 -0.2791  0.0109 -0.1065
  794POPS   PO412016  15.718   9.508   5.616 -0.1004  0.1459 -0.1138
  794POPS   GL112017  15.524   9.714   5.986 -0.1580  0.2492 -0.2242
  794POPS   GL212018  15.124   9.734   6.137  0.1930 -0.2644  0.1904
  794POPS   C1A12019  15.688   9.737   6.453 -0.2810  0.3120 -0.3042
  794POPS   D2A12020  15.646   9.907   6.811 -0.1199  0.0498  0.1464
  794POPS   C3A12021  15.943   9.832   7.050  0.1131  0.2568 -0.1673
  794POPS   C4A12022  16.106   9.782   7.436 -0.3986  0.1924 -0.1069
  794POPS   C1B12023  15.085   9.762   6.633 -0.1183 -0.3036 -0.1972
  794POPS   C2B12024  15.062   9.666   7.047  0.0235 -0.3849  0.3589
  794POPS   C3B12025  15.039   9.819   7.456  0.2836 -0.2552 -0.1629
  794POPS   C4B12026  14.779   9.830   7.893  0.3417 -0.1059  0.3483
  795POPS   CNO12027  15.296  11.174   5.937 -0.1799  0.2587 -0.0765
  795POPS   PO412028  15.052  11.510   6.263 -0.1001  0.1374 -0.1135
  795POPS   GL112029  15.406  11.351   6.493 -0.0321 -0.0709  0.0393
  795POPS   GL212030  15.507  11.014   6.548 -0.2865 -0.1007  0.1690
  795POPS   C1A12031  15.527  11.466   6.861 -0.0710 -0.0741  0.1880
  795POPS   D2A12032  15.373  11.785   7.236 -0.1871  0.1459 -0.0662
  795POPS   C3A12033  15.073  11.697   7.563 -0.1458  0.0307 -0.0391
  795POPS   C4A12034  15.131  11.788   8.032 -0.2202 -0.0837 -0.0914
  795POPS   C1B12035  15.388  10.949   6.916  0.1185 -0.2944 -0.0531
  795POPS   C2B12036  15.463  10.729   7.275 -0.0180  0.1294 -0.4159
  795POPS   C3B12037  15.494  10.769   7.704  0.3685 -0.1386  0.1842
  795POPS   C4B12038  15.375  10.687   8.082 -0.0017 -0.0596  0.2039
  796POPS   CNO12039   3.084   0.549   6.264  0.0012  0.0706 -0.1901
  796POPS   PO412040   3.537   0.738   6.289 -0.1757 -0.1034 -0.2725
  796POPS   GL112041   3.740   0.948   6.488 -0.2768 -0.3782 -0.0562
  796POPS   GL212042   3.886   0.775   6.716  0.0568 -0.4687  0.0931
  796POPS   C1A12043   3.570   1.205   6.820 -0.0059 -0.0119  0.1684
  796POPS   D2A12044   3.382   1.534   7.126  0.0503  0.4204  0.0175
  796POPS   C3A12045   3.087   1.430   7.400  0.0454  0.1737  0.2594
  796POPS   C4A12046   2.610   1.327   7.388  0.1404  0.0674  0.1614
  796POPS   C1B12047   3.846   0.893   7.064  0.3832  0.2717 -0.0784
  796POPS   C2B12048   3.961   0.876   7.409  0.1382  0.3019 -0.2113
  796POPS   C3B12049   4.122   0.724   7.824 -0.2681 -0.0534  0.1117
  796POPS   C4B12050   3.811   0.668   8.161  0.0855  0.2158  0.1798
  797POPS   CNO12051  10.091  12.972   5.995 -0.0801  0.5170 -0.0845
  797POPS   PO412052  10.472  13.265   6.077 -0.2516 -0.3276 -0.0449
  797POPS   GL112053  10.782  13.316   6.357 -0.2076  0.4973 -0.2246
  797POPS   GL212054  10.770  13.024   6.407  0.0188 -0.1992  0.0095
  797POPS   C1A12055  10.743  13.382   6.740  0.3319 -0.0469  0.1457
  797POPS   D2A12056  10.698  13.366   7.170 -0.0918 -0.0843  0.1380
  797POPS   C3A12057  10.862  13.150   7.615 -0.2720  0.0001  0.1101
  797POPS   C4A12058  10.613  13.192   7.993 -0.0374 -0.0639 -0.0600
  797POPS   C1B12059  10.675  12.850   6.868  0.2837 -0.1569  0.2997
  797POPS   C2B12060  10.629  12.800   7.269  0.0173 -0.1840 -0.1454
  797POPS   C3B12061  10.532  12.777   7.671 -0.0613  0.0234 -0.1925
  797POPS   C4B12062  10.290  12.725   8.089 -0.0343  0.0764 -0.0595
  798POPS   CNO12063   0.019  15.133   5.761  0.1720 -0.0238 -0.2015
  798POPS   PO412064   0.140  14.987   6.092  0.1453 -0.4188  0.0411
  798POPS   GL112065   0.020  15.154   6.502  0.3419  0.0521  0.2150
  798POPS   GL212066  -0.181  15.444   6.518  0.4652 -0.1205  0.2110
  798POPS   C1A12067  -0.229  15.250   6.890  0.1233 -0.1005  0.3073
  798POPS   D2A12068  -0.186  15.353   7.296 -0.1246  0.1131  0.2711
  798POPS   C3A12069  -0.211  14.997   7.545  0.1840 -0.0126  0.0325
  798POPS   C4A12070  -0.045  14.887   7.866 -0.0064 -0.0492 -0.4805
  798POPS   C1B12071   0.096  15.575   6.903  0.1301  0.0532 -0.0746
  798POPS   C2B12072   0.398  15.464   7.188 -0.1613 -0.3287 -0.2320
  798POPS   C3B12073   0.638  15.553   7.538 -0.0389 -0.0267  0.2435
  798POPS   C4B12074   0.477  15.621   8.003 -0.0755  0.0837  0.0843
  799POPS   CNO12075   8.151   2.623   6.259  0.1351 -0.1365  0.5036
  799POPS   PO412076   8.185   3.104   6.343 -0.0784  0.1360 -0.0281
  799POPS   GL112077   8.130   3.015   6.788  0.1925  0.0564 -0.0010
  799POPS   GL212078   8.426   3.051   6.850  0.0666  0.2811 -0.0827
  799POPS   C1A12079   8.001   2.921   7.180  0.0120  0.0857  0.1095
  799POPS   D2A12080   8.020   2.893   7.650 -0.0716  0.0611 -0.0563
  799POPS   C3A12081   7.975   2.525   7.947  0.0519 -0.3685 -0.0612
  799POPS   C4A12082   7.687   2.259   8.159  0.1191 -0.4196 -0.2314
  799POPS   C1B12083   8.358   3.314   7.219  0.1246  0.2733  0.1451
  799POPS   C2B12084   8.334   3.301   7.674 -0.1727 -0.0676 -0.0582
  799POPS   C3B12085   7.945   3.373   7.907 -0.1169 -0.0215 -0.0595
  799POPS   C4B12086   7.544   3.476   8.121  0.3021 -0.0750  0.1097
  800POPS   CNO12087   6.162   7.877   5.906 -0.2151  0.0152  0.0211
  800POPS   PO412088   6.499   7.547   5.833  0.1222 -0.2793 -0.1107
  800POPS   GL112089   6.642   7.808   6.209  0.3204  0.1509  0.2380
  800POPS   GL212090   6.999   7.899   6.154  0.1936 -0.1723 -0.0978
  800POPS   C1A12091   6.617   7.672   6.599  0.1160  0.2369 -0.2815
  800POPS   D2A12092   6.471   7.680   6.940  0.0029 -0.1816 -0.0752
  800POPS   C3A12093   6.539   7.948   7.203 -0.0356  0.0130  0.0630
  800POPS   C4A12094   6.531   8.031   7.609  0.0299  0.2538 -0.0802
  800POPS   C1B12095   7.091   7.994   6.583  0.0931 -0.1264 -0.3964
  800POPS   C2B12096   6.990   7.715   6.963  0.0719 -0.3114 -0.3249
  800POPS   C3B12097   6.814   7.511   7.250 -0.1148 -0.2864  0.2528
  800POPS   C4B12098   6.395   7.512   7.422  0.1040  0.0217  0.0025
  801POPS   CNO12099  13.996   1.827   6.165  0.0463  0.2365  0.2110
  801POPS   PO412100  13.734   1.592   6.391  0.2240 -0.0458  0.1590
  801POPS   GL112101  13.661   1.449   6.757  0.2507  0.2496  0.0080
  801POPS   GL212102  13.396   1.219   6.750  0.1281  0.1004  0.1360
  801POPS   C1A12103  13.479   1.515   7.214  0.1265 -0.2553  0.1048
  801POPS   D2A12104  13.503   1.632   7.618 -0.1513 -0.2614 -0.1490
  801POPS   C3A12105  13.182   1.311   7.782  0.0478  0.0106 -0.0898
  801POPS   C4A12106  12.779   1.313   7.977 -0.1185 -0.1509  0.4089
  801POPS   C1B12107  13.155   0.979   7.164 -0.1810 -0.0498  0.1642
  801POPS   C2B12108  12.933   0.899   7.639 -0.2557 -0.0074  0.3738
  801POPS   C3B12109  12.546   0.907   7.661 -0.0810  0.0687  0.2412
  801POPS   C4B12110  12.240   0.694   7.426  0.0650 -0.3298 -0.1303
  802POPS   CNO12111  17.772  10.384   5.027 -0.1592 -0.1324  0.1539
  802POPS   PO412112  17.843  10.585   5.429 -0.1314 -0.2345 -0.0427
  802POPS   GL112113  18.004  10.793   5.820 -0.2691  0.2773  0.2357
  802POPS   GL212114  17.865  10.588   6.047  0.0171 -0.1960  0.4247
  802POPS   C1A12115  18.117  11.077   6.123 -0.0598  0.1850 -0.0535
  802POPS   D2A12116  17.931  11.370   6.413  0.2308 -0.0011  0.1494
  802POPS   C3A12117  17.774  11.201   6.926  0.1676 -0.1554 -0.2237
  802POPS   C4A12118  17.833  11.014   7.396 -0.1506  0.2423  0.0720
  802POPS   C1B12119  18.124  10.485   6.347 -0.0694 -0.0235 -0.1762
  802POPS   C2B12120  18.208  10.436   6.748 -0.1103  0.0852  0.0661
  802POPS   C3B12121  18.596  10.570   6.982  0.2434 -0.1952 -0.1814
  802POPS   C4B12122  18.795  10.478   7.371 -0.1312  0.0412  0.1727
  803POPS   CNO12123   1.723   5.681   5.689  0.2432 -0.0244 -0.0206
  803POPS   PO412124   2.182   5.888   5.875  0.3390  0.0250  0.1189
  803POPS   GL112125   1.838   5.909   6.151  0.2439  0.0706  0.1136
  803POPS   GL212126   1.569   5.875   6.356 -0.1009  0.1586 -0.2767
  803POPS   C1A12127   1.970   6.030   6.558  0.0647 -0.3642  0.1931
  803POPS   D2A12128   2.265   5.971   6.775 -0.2047  0.0326  0.1105
  803POPS   C3A12129   2.297   6.006   7.241  0.3243 -0.1342  0.1448
  803POPS   C4A12130   2.404   5.989   7.613  0.1457  0.0794  0.1644
  803POPS   C1B12131   1.511   5.828   6.837 -0.2768  0.0702  0.0961
  803POPS   C2B12132   1.765   6.016   7.157  0.0681 -0.0470  0.1182
  803POPS   C3B12133   1.894   6.157   7.529 -0.0686  0.0229 -0.1674
  803POPS   C4B12134   2.013   6.312   7.918 -0.2523  0.0609 -0.0079
  804POPS   CNO12135  10.675   5.659   5.909  0.0569 -0.1736 -0.1145
  804POPS   PO412136  10.518   5.255   6.055  0.0979  0.1775  0.2612
  804POPS   GL112137  10.560   5.069   6.501  0.0270  0.2718 -0.0333
  804POPS   GL212138  10.854   5.289   6.582 -0.0749 -0.1004  0.2536
  804POPS   C1A12139  10.556   4.952   6.930 -0.1187 -0.1071 -0.2042
  804POPS   D2A12140  10.335   4.844   7.254  0.2051 -0.1499 -0.2776
  804POPS   C3A12141  10.097   4.505   7.187  0.0866 -0.0796 -0.1084
  804POPS   C4A12142   9.703   4.304   7.167  0.0175  0.0748 -0.0059
  804POPS   C1B12143  11.061   5.266   6.962 -0.0874  0.1038 -0.0639
  804POPS   C2B12144  11.104   5.265   7.358 -0.0671  0.1968 -0.0740
  804POPS   C3B12145  11.247   5.288   7.772 -0.2978 -0.0517 -0.1800
  804POPS   C4B12146  11.343   5.224   8.229  0.1846  0.3161  0.0062
  805POPS   CNO12147  12.836   5.533   6.064  0.0111  0.0788 -0.0694
  805POPS   PO412148  12.422   5.630   6.301 -0.1350 -0.1310 -0.2007
  805POPS   GL112149  12.332   5.641   6.640  0.2110  0.0883 -0.3445
  805POPS   GL212150  12.433   5.955   6.801  0.0265  0.0949 -0.2261
  805POPS   C1A12151  12.062   5.487   6.952 -0.0971 -0.2023  0.0883
  805POPS   D2A12152  12.145   5.406   7.335  0.1005 -0.0078 -0.1486
  805POPS   C3A12153  12.262   5.211   7.723  0.2190  0.0827  0.2165
  805POPS   C4A12154  12.242   4.882   7.884 -0.0402 -0.0704  0.0515
  805POPS   C1B12155  12.641   6.042   7.198  0.1637 -0.1685 -0.2519
  805POPS   C2B12156  12.641   5.939   7.624  0.1485  0.2153  0.0718
  805POPS   C3B12157  12.405   5.687   7.853 -0.2290 -0.3034 -0.0015
  805POPS   C4B12158  12.147   5.474   8.148  0.1932 -0.2192  0.3447
  806POPS   CNO12159   1.923  13.924   5.409  0.0648 -0.3778  0.2598
  806POPS   PO412160   2.087  14.354   5.580 -0.0337 -0.2424  0.0996
  806POPS   GL112161   2.256  14.087   5.857 -0.1031  0.0158 -0.1904
  806POPS   GL212162   2.033  13.834   5.890 -0.0874  0.0470  0.2430
  806POPS   C1A12163   2.419  14.136   6.247  0.0314  0.3122  0.2554
  806POPS   D2A12164   2.328  14.270   6.707 -0.2787 -0.2750 -0.1170
  806POPS   C3A12165   2.334  14.698   6.882 -0.0464 -0.3195  0.1189
  806POPS   C4A12166   2.542  14.917   6.997 -0.0301  0.3136 -0.2328
  806POPS   C1B12167   1.957  13.975   6.316 -0.1375 -0.3986  0.1316
  806POPS   C2B12168   1.808  14.118   6.656 -0.0456  0.1046  0.2817
  806POPS   C3B12169   1.691  14.120   7.097 -0.0021  0.2344  0.0514
  806POPS   C4B12170   1.578  13.730   7.330  0.1301 -0.0420 -0.0403
  807POPS   CNO12171   4.725  13.745   5.418 -0.2551 -0.0038  0.3338
  807POPS   PO412172   4.947  13.340   5.435  0.0566  0.1255 -0.0653
  807POPS   GL112173   5.132  13.301   5.943  0.3647 -0.0467 -0.1363
  807POPS   GL212174   5.300  13.516   6.096 -0.2245 -0.1377  0.0461
  807POPS   C1A12175   5.317  12.944   6.258 -0.1392  0.5009 -0.0744
  807POPS   D2A12176   5.451  12.576   6.338  0.1106  0.1344  0.0651
  807POPS   C3A12177   5.760  12.393   6.689  0.0227  0.0540  0.1043
  807POPS   C4A12178   5.926  12.457   7.094  0.0146  0.0952 -0.0074
  807POPS   C1B12179   5.276  13.500   6.559  0.0209  0.0192 -0.2568
  807POPS   C2B12180   5.530  13.294   6.908 -0.1455 -0.1354  0.0061
  807POPS   C3B12181   5.343  13.387   7.305 -0.3851 -0.0920  0.1595
  807POPS   C4B12182   5.381  13.095   7.679  0.2442  0.3740  0.3036
  808POPS   CNO12183  15.560   1.722   6.205 -0.2276  0.1702 -0.2187
  808POPS   PO412184  15.369   1.750   6.523 -0.1825  0.0063  0.1136
  808POPS   GL112185  15.288   1.894   6.947 -0.1726  0.0714  0.0563
  808POPS   GL212186  15.030   2.008   7.001  0.1369  0.2636  0.2099
  808POPS   C1A12187  15.366   2.071   7.446 -0.1467  0.1556 -0.1946
  808POPS   D2A12188  15.333   2.084   7.895  0.0627  0.0306 -0.0747
  808POPS   C3A12189  15.193   1.987   8.250 -0.1130 -0.0419 -0.1494
  808POPS   C4A12190  15.118   2.022   8.696 -0.1881  0.1150  0.1653
  808POPS   C1B12191  14.803   2.095   7.333 -0.0791 -0.1175 -0.3194
  808POPS   C2B12192  14.685   2.106   7.674 -0.2375  0.0820 -0.1576
  808POPS   C3B12193  14.429   2.146   8.025  0.0776  0.0085  0.1852
  808POPS   C4B12194  13.974   2.310   8.040 -0.4900 -0.0719 -0.0736
  809POPS   CNO12195  15.082   7.162   6.149 -0.0772 -0.1328 -0.0247
  809POPS   PO412196  14.776   7.151   6.439  0.1043  0.0318  0.0078
  809POPS   GL112197  14.556   7.192   6.786 -0.0059 -0.0497 -0.0045
  809POPS   GL212198  14.880   7.269   6.945 -0.0267 -0.0123  0.0862
  809POPS   C1A12199  14.451   7.069   7.262  0.1956  0.2747 -0.0789
  809POPS   D2A12200  14.347   7.118   7.683  0.2200  0.4968 -0.0516
  809POPS   C3A12201  14.436   7.581   7.912  0.1951  0.3675 -0.2584
  809POPS   C4A12202  14.475   7.859   8.173 -0.0572  0.0502  0.1236
  809POPS   C1B12203  14.897   7.411   7.422 -0.2317  0.1341 -0.3140
  809POPS   C2B12204  14.867   7.314   7.810 -0.0198  0.0234  0.2558
  809POPS   C3B12205  14.712   7.158   8.166  0.1070  0.4173 -0.2915
  809POPS   C4B12206  14.739   6.993   8.539  0.0475  0.0837  0.2245
  810POPS   CNO12207   2.624  17.688   5.976 -0.0060  0.0422  0.1708
  810POPS   PO412208   2.986  17.476   5.864  0.2536  0.0380  0.1448
  810POPS   GL112209   3.059  17.537   6.312 -0.1290  0.4175 -0.4103
  810POPS   GL212210   2.703  17.474   6.489  0.0207  0.1224  0.1006
  810POPS   C1A12211   3.062  17.604   6.792  0.1768  0.3039 -0.1240
  810POPS   D2A12212   3.150  17.600   7.311  0.0934  0.0895  0.0967
  810POPS   C3A12213   3.299  17.440   7.771  0.1322  0.1147  0.3331
  810POPS   C4A12214   3.057  17.528   8.133 -0.4022 -0.2123 -0.0437
  810POPS   C1B12215   2.658  17.351   6.930 -0.3155 -0.2047 -0.2133
  810POPS   C2B12216   2.640  17.399   7.429  0.1915  0.0944 -0.0704
  810POPS   C3B12217   2.776  17.140   7.795  0.0592  0.0535  0.2290
  810POPS   C4B12218   2.704  17.095   8.270  0.2178 -0.0738 -0.1308
  811YOPS   CNO12219  15.847  16.909   6.047  0.0117  0.3035  0.0584
  811YOPS   PO412220  15.949  17.357   6.070  0.0553  0.1502 -0.0279
  811YOPS   GL112221  15.895  17.194   6.485  0.2495 -0.0854 -0.2085
  811YOPS   GL212222  16.119  17.045   6.461  0.0872 -0.0746  0.3773
  811YOPS   C1A12223  15.564  17.094   6.764 -0.0579 -0.3078  0.2338
  811YOPS   D2A12224  15.526  16.874   7.110 -0.1654 -0.0454 -0.2558
  811YOPS   C3A12225  15.530  16.846   7.509  0.0992 -0.4198  0.0842
  811YOPS   C4A12226  15.731  17.058   7.779  0.0446  0.1325 -0.2567
  811YOPS   C1B12227  16.039  17.127   6.935  0.1010  0.2568  0.0975
  811YOPS   C2B12228  16.047  17.036   7.378  0.1011  0.1182  0.0831
  811YOPS   D3B12229  16.182  16.784   7.724 -0.1684  0.0150  0.2799
  811YOPS   C4B12230  16.314  16.839   8.104 -0.0438 -0.3291 -0.1987
  812YOPS   CNO12231  14.921   6.204   6.316 -0.0010  0.3596  0.0873
  812YOPS   PO412232  15.106   5.830   6.166 -0.1201 -0.2620 -0.2228
  812YOPS   GL112233  15.151   5.890   6.630  0.1678  0.2598 -0.0045
  812YOPS   GL212234  15.027   5.634   6.742  0.1533  0.1348 -0.0881
  812YOPS   C1A12235  15.144   5.923   7.153 -0.1720  0.1732 -0.3311
  812YOPS   D2A12236  15.203   6.078   7.541  0.0053 -0.2200  0.0314
  812YOPS   C3A12237  15.505   6.278   7.857 -0.0928 -0.0049 -0.0310
  812YOPS   C4A12238  15.625   6.162   8.292 -0.1521  0.3125  0.4920
  812YOPS   C1B12239  14.672   5.893   7.120 -0.1428 -0.0807  0.0020
  812YOPS   C2B12240  14.618   5.750   7.476 -0.0091 -0.0363 -0.2717
  812YOPS   D3B12241  14.656   5.816   7.892 -0.1092 -0.0698  0.2360
  812YOPS   C4B12242  14.374   5.655   8.078  0.0770  0.1079  0.1330
  813YOPS   CNO12243  14.138  15.681   5.743 -0.1703  0.0767 -0.0415
  813YOPS   PO412244  14.256  16.047   6.016 -0.1088 -0.1477  0.0161
  813YOPS   GL112245  14.407  15.883   6.385  0.2605  0.0822 -0.0025
  813YOPS   GL212246  14.623  15.665   6.368  0.0600 -0.0225 -0.0341
  813YOPS   C1A12247  14.459  15.867   6.845 -0.1461 -0.0383 -0.0026
  813YOPS   D2A12248  14.216  15.854   7.326 -0.0859  0.0616  0.1959
  813YOPS   C3A12249  13.907  16.071   7.509  0.2709 -0.1152  0.1147
  813YOPS   C4A12250  13.439  16.145   7.397  0.1021 -0.0472 -0.0436
  813YOPS   C1B12251  14.915  15.554   6.711  0.1153  0.1112 -0.4414
  813YOPS   C2B12252  15.098  15.681   7.047 -0.0324 -0.2123 -0.0217
  813YOPS   D3B12253  15.295  15.959   7.352  0.1705 -0.0217 -0.2052
  813YOPS   C4B12254  15.602  15.969   7.680  0.0128 -0.0707 -0.2988
  814YOPS   CNO12255   3.434   7.445   5.776  0.0899 -0.1052 -0.1539
  814YOPS   PO412256   3.182   7.485   6.112 -0.0305  0.0025  0.3124
  814YOPS   GL112257   2.981   7.528   6.542 -0.1609  0.0125 -0.1480
  814YOPS   GL212258   2.642   7.631   6.590 -0.0186 -0.1130  0.0485
  814YOPS   C1A12259   2.986   7.566   6.950  0.2029 -0.0779  0.2216
  814YOPS   D2A12260   3.085   7.435   7.444  0.1453  0.2577 -0.0704
  814YOPS   C3A12261   2.921   7.105   7.705 -0.1231 -0.2053 -0.3019
  814YOPS   C4A12262   2.686   7.157   8.126 -0.4487 -0.0217  0.1226
  814YOPS   C1B12263   2.450   7.761   6.949  0.0769 -0.0755 -0.1195
  814YOPS   C2B12264   2.688   7.849   7.329 -0.1327 -0.0899  0.0058
  814YOPS   D3B12265   2.732   7.720   7.799  0.1226 -0.1445  0.3723
  814YOPS   C4B12266   2.839   8.000   8.190  0.1911 -0.0603  0.0386
  815YOPS   CNO12267  17.759   6.399   5.792 -0.1773 -0.0480  0.3029
  815YOPS   PO412268  17.781   6.005   5.945 -0.1252  0.0178 -0.1801
  815YOPS   GL112269  17.425   6.148   6.193 -0.1628 -0.2699  0.0441
  815YOPS   GL212270  17.198   6.028   6.469  0.3604  0.2646 -0.4167
  815YOPS   C1A12271  17.390   6.449   6.628  0.0600  0.0033  0.1854
  815YOPS   D2A12272  17.279   6.488   7.057  0.1550 -0.1362 -0.0337
  815YOPS   C3A12273  17.212   6.358   7.515  0.1538 -0.1351  0.0057
  815YOPS   C4A12274  17.424   6.290   7.925 -0.1975 -0.0635 -0.1078
  815YOPS   C1B12275  17.450   5.934   6.835 -0.0939  0.2574  0.2244
  815YOPS   C2B12276  17.403   6.047   7.183  0.2345 -0.1731 -0.4980
  815YOPS   D3B12277  17.534   5.986   7.542  0.4264  0.0076  0.0383
  815YOPS   C4B12278  17.941   6.055   7.719 -0.1381  0.4264  0.2817
  816YOPS   CNO12279   1.171  15.461   5.614 -0.1022 -0.0192  0.2265
  816YOPS   PO412280   1.244  15.709   5.885  0.1332 -0.4088 -0.2526
  816YOPS   GL112281   1.291  15.921   6.332 -0.0568 -0.3108  0.1373
  816YOPS   GL212282   1.074  16.118   6.420 -0.0242 -0.1538 -0.0484
  816YOPS   C1A12283   1.714  16.056   6.557  0.0801 -0.1730 -0.0847
  816YOPS   D2A12284   1.746  15.886   6.918 -0.0217 -0.2422  0.0755
  816YOPS   C3A12285   1.595  15.655   7.220  0.0545  0.0400 -0.2967
  816YOPS   C4A12286   1.922  15.460   7.353 -0.0338 -0.0328  0.1911
  816YOPS   C1B12287   1.232  15.979   6.838  0.1673 -0.1048 -0.3693
  816YOPS   C2B12288   1.395  16.115   7.210  0.1187  0.3130  0.0714
  816YOPS   D3B12289   1.518  16.092   7.655 -0.0032  0.2680 -0.2088
  816YOPS   C4B12290   1.763  15.741   7.803  0.3638  0.0650  0.0394
  817YOPS   CNO12291  12.694  13.539   5.787 -0.2627 -0.2154 -0.1296
  817YOPS   PO412292  12.728  13.248   6.097  0.1117  0.0336 -0.1378
  817YOPS   GL112293  12.780  13.234   6.545  0.0186 -0.0829  0.2548
  817YOPS   GL212294  12.817  12.979   6.581 -0.0010  0.1391 -0.1840
  817YOPS   C1A12295  12.925  13.429   6.892  0.0627  0.0738  0.1965
  817YOPS   D2A12296  12.723  13.654   7.089 -0.3586  0.2187  0.1557
  817YOPS   C3A12297  12.565  14.039   7.415 -0.1387 -0.0342 -0.0118
  817YOPS   C4A12298  12.459  14.394   7.310 -0.0805 -0.0670  0.0700
  817YOPS   C1B12299  13.022  12.967   7.003 -0.0603  0.1376  0.0226
  817YOPS   C2B12300  13.193  12.868   7.401  0.0838  0.2670  0.2563
  817YOPS   D3B12301  13.223  13.093   7.799  0.0437 -0.2628 -0.3698
  817YOPS   C4B12302  12.781  13.297   7.966  0.0185 -0.2247  0.1309
  818YOPS   CNO12303   3.675  10.400   5.714 -0.1538 -0.0473  0.2438
  818YOPS   PO412304   3.867  10.728   5.743 -0.0362  0.4032 -0.0598
  818YOPS   GL112305   3.578  10.640   6.124 -0.3048  0.1511  0.3870
  818YOPS   GL212306   3.745  10.436   6.232 -0.1466 -0.0078  0.1610
  818YOPS   C1A12307   3.509  10.574   6.664 -0.1120 -0.0679  0.0833
  818YOPS   D2A12308   3.335  10.699   7.046 -0.0584  0.1465  0.0926
  818YOPS   C3A12309   2.985  10.739   7.197  0.0622 -0.1264  0.2442
  818YOPS   C4A12310   2.605  10.700   7.010 -0.1755 -0.1630  0.4378
  818YOPS   C1B12311   4.046  10.531   6.522 -0.0146  0.0059 -0.2982
  818YOPS   C2B12312   4.116  10.344   6.952  0.0626  0.1730 -0.2109
  818YOPS   D3B12313   4.358  10.342   7.280 -0.1632  0.2074 -0.0018
  818YOPS   C4B12314   4.367  10.718   7.488 -0.0052 -0.3890  0.3590
  819YOPS   CNO12315   6.025   6.500   5.749 -0.0425  0.1074 -0.1933
  819YOPS   PO412316   5.688   6.238   5.935 -0.3152  0.2369  0.0258
  819YOPS   GL112317   5.674   6.056   6.340  0.1051  0.0006 -0.2951
  819YOPS   GL212318   5.800   6.309   6.598 -0.1391  0.2416 -0.2551
  819YOPS   C1A12319   5.353   6.072   6.614 -0.3145  0.0821  0.1448
  819YOPS   D2A12320   4.986   6.159   6.930  0.0083  0.2013  0.1601
  819YOPS   C3A12321   4.598   5.962   6.991 -0.1523 -0.1954 -0.1276
  819YOPS   C4A12322   4.502   5.866   7.455 -0.0394  0.3034 -0.1347
  819YOPS   C1B12323   5.817   5.893   6.811 -0.1145 -0.0004 -0.0147
  819YOPS   C2B12324   5.770   5.491   7.079  0.1397 -0.3481  0.2434
  819YOPS   D3B12325   5.644   5.463   7.445 -0.3798  0.0242  0.0936
  819YOPS   C4B12326   5.915   5.604   7.796  0.2476  0.0140 -0.0766
  820YOPS   CNO12327  13.451   1.836   5.925 -0.1561 -0.2220 -0.3500
  820YOPS   PO412328  13.325   2.076   6.152  0.1340  0.0918  0.0882
  820YOPS   GL112329  13.533   2.047   6.498 -0.2370 -0.1267 -0.0555
  820YOPS   GL212330  13.436   1.886   6.683 -0.2231  0.2393  0.0233
  820YOPS   C1A12331  13.750   2.196   6.915 -0.2492 -0.1249 -0.2079
  820YOPS   D2A12332  13.741   1.963   7.300 -0.0701 -0.1743  0.0337
  820YOPS   C3A12333  13.558   2.106   7.733 -0.4124  0.2575 -0.0160
  820YOPS   C4A12334  13.405   1.904   8.070 -0.0839 -0.0539 -0.1554
  820YOPS   C1B12335  13.271   2.026   7.095  0.0820  0.2478  0.1796
  820YOPS   C2B12336  13.036   1.895   7.578 -0.3115 -0.0791 -0.2146
  820YOPS   D3B12337  12.971   1.718   7.880 -0.1154 -0.1034 -0.0156
  820YOPS   C4B12338  12.609   1.834   8.166  0.3400  0.0811  0.1483
  821YOPS   CNO12339  15.389  10.363   5.720  0.1418 -0.0400 -0.0829
  821YOPS   PO412340  14.966  10.334   6.029 -0.1373  0.2987  0.0318
  821YOPS   GL112341  14.947  10.236   6.460  0.0063  0.2220 -0.1603
  821YOPS   GL212342  15.183  10.499   6.488  0.3427  0.3641 -0.0431
  821YOPS   C1A12343  14.937  10.152   6.938 -0.2097  0.0511  0.1229
  821YOPS   D2A12344  15.086  10.288   7.322 -0.4248 -0.1145  0.0106
  821YOPS   C3A12345  15.406  10.287   7.674  0.0174  0.0786 -0.2063
  821YOPS   C4A12346  15.314   9.906   7.865 -0.1573 -0.1001 -0.1128
  821YOPS   C1B12347  15.391  10.348   6.920 -0.2474  0.3547  0.1918
  821YOPS   C2B12348  15.435   9.977   7.226  0.0193  0.1994  0.1405
  821YOPS   D3B12349  15.580   9.644   7.394  0.3826  0.1178 -0.0895
  821YOPS   C4B12350  15.706   9.633   7.735  0.0305  0.1405  0.2274
  822YOPS   CNO12351   4.928   7.823   6.327  0.0061  0.0602  0.2477
  822YOPS   PO412352   5.255   7.566   6.073 -0.2465 -0.1735 -0.0818
  822YOPS   GL112353   5.276   7.442   6.534  0.1151 -0.0489 -0.0134
  822YOPS   GL212354   5.160   7.223   6.518 -0.0434 -0.2522  0.0975
  822YOPS   C1A12355   5.421   7.608   7.016 -0.0523  0.2878  0.2405
  822YOPS   D2A12356   5.549   7.478   7.398  0.0051 -0.1091 -0.0024
  822YOPS   C3A12357   5.547   7.249   7.765  0.1583 -0.3389 -0.2088
  822YOPS   C4A12358   5.816   7.486   8.050 -0.1838 -0.0247  0.0322
  822YOPS   C1B12359   5.189   7.034   6.856  0.1482 -0.0516 -0.2349
  822YOPS   C2B12360   5.458   7.010   7.067 -0.0386  0.1638 -0.1416
  822YOPS   D3B12361   5.645   6.747   7.410  0.1573  0.3429 -0.1662
  822YOPS   C4B12362   5.903   6.373   7.452  0.2276  0.1551 -0.0207
  823YOPS   CNO12363   7.613  16.152   5.716  0.0003 -0.1921 -0.2277
  823YOPS   PO412364   7.710  15.736   5.998 -0.2353  0.2283  0.0940
  823YOPS   GL112365   7.776  15.681   6.322 -0.0018  0.0894  0.0480
  823YOPS   GL212366   8.110  15.592   6.377 -0.1910  0.2283 -0.1133
  823YOPS   C1A12367   7.803  15.491   6.757 -0.1317 -0.0796  0.1599
  823YOPS   D2A12368   7.607  15.190   6.995 -0.2825  0.3357  0.0057
  823YOPS   C3A12369   7.619  14.835   7.273 -0.2584 -0.0519  0.0325
  823YOPS   C4A12370   7.628  14.811   7.674  0.0237 -0.0761 -0.2087
  823YOPS   C1B12371   8.276  15.292   6.682  0.0663  0.0420  0.0032
  823YOPS   C2B12372   8.640  15.036   6.750 -0.0331  0.1287 -0.1294
  823YOPS   D3B12373   9.163  14.866   6.750  0.0127  0.2343  0.2052
  823YOPS   C4B12374   9.253  14.559   6.993 -0.0746 -0.1350 -0.0795
  824YOPS   CNO12375   8.628   3.688   5.979  0.0849 -0.1199  0.2632
  824YOPS   PO412376   8.969   3.707   6.142 -0.3950 -0.1429  0.3284
  824YOPS   GL112377   8.573   3.819   6.493  0.1427 -0.2177  0.0788
  824YOPS   GL212378   8.413   3.534   6.636 -0.1469 -0.1851  0.0639
  824YOPS   C1A12379   8.573   4.225   6.811 -0.0669 -0.3412  0.0769
  824YOPS   D2A12380   8.290   4.317   7.128 -0.0194  0.0975  0.2873
  824YOPS   C3A12381   8.053   4.816   7.326 -0.1454 -0.1624 -0.0662
  824YOPS   C4A12382   7.822   4.989   7.051 -0.1372 -0.2636 -0.0328
  824YOPS   C1B12383   8.462   3.791   7.084 -0.0420 -0.1039  0.1454
  824YOPS   C2B12384   8.764   3.830   7.398 -0.2035 -0.2941 -0.2106
  824YOPS   D3B12385   8.813   3.699   7.806  0.3264 -0.2811 -0.0370
  824YOPS   C4B12386   8.404   3.650   8.062 -0.0799  0.2151 -0.0627
  825YOPS   CNO12387   5.491   1.262   5.698  0.1617 -0.2286  0.0892
  825YOPS   PO412388   5.212   1.085   6.036 -0.3769 -0.0199  0.0442
  825YOPS   GL112389   5.322   1.188   6.472 -0.0817  0.1566 -0.2736
  825YOPS   GL212390   5.240   1.482   6.509  0.0409 -0.2452  0.0932
  825YOPS   C1A12391   5.521   1.294   6.889 -0.1230 -0.0682 -0.1015
  825YOPS   D2A12392   5.717   1.132   7.210 -0.2784  0.0019 -0.0563
  825YOPS   C3A12393   5.896   0.988   7.639  0.0656  0.2541 -0.1848
  825YOPS   C4A12394   6.128   1.185   7.824 -0.0189 -0.1896  0.2485
  825YOPS   C1B12395   5.137   1.564   6.884  0.2975 -0.2372  0.0549
  825YOPS   C2B12396   5.279   1.307   7.336 -0.1547  0.0968 -0.0076
  825YOPS   D3B12397   5.320   1.194   7.808  0.1003 -0.1039 -0.1942
  825YOPS   C4B12398   5.060   0.857   7.923 -0.1900 -0.2658 -0.1067
  826YOPS   CNO12399   7.210   2.744   5.982  0.2260 -0.0412 -0.2557
  826YOPS   PO412400   7.433   3.072   5.970 -0.0620 -0.0529  0.1057
  826YOPS   GL112401   7.272   3.025   6.462 -0.0163 -0.2686  0.0652
  826YOPS   GL212402   7.217   2.684   6.518 -0.1099  0.2556 -0.1654
  826YOPS   C1A12403   7.164   3.098   6.825  0.3079  0.1485 -0.1099
  826YOPS   D2A12404   6.964   3.408   7.042 -0.2230  0.0964 -0.0679
  826YOPS   C3A12405   6.743   3.697   7.164 -0.0732 -0.1264  0.0325
  826YOPS   C4A12406   7.009   3.956   6.892  0.1732 -0.2123  0.0417
  826YOPS   C1B12407   6.963   2.628   6.841 -0.1016  0.0821  0.1684
  826YOPS   C2B12408   6.886   2.565   7.260  0.2500  0.0335  0.0923
  826YOPS   D3B12409   6.880   2.358   7.551  0.2044  0.2922 -0.0492
  826YOPS   C4B12410   7.211   2.194   7.873  0.1591  0.2194 -0.2077
  827YOPS   CNO12411   3.918   7.255   5.708 -0.1009  0.3519  0.1344
  827YOPS   PO412412   3.763   7.252   6.104  0.1760 -0.0954 -0.0428
  827YOPS   GL112413   3.630   7.086   6.492  0.2077  0.1737 -0.2048
  827YOPS   GL212414   3.388   7.113   6.539 -0.2582 -0.0812 -0.0998
  827YOPS   C1A12415   3.843   7.064   6.942  0.2607 -0.1166  0.1443
  827YOPS   D2A12416   3.919   7.105   7.345 -0.0277 -0.0317 -0.0135
  827YOPS   C3A12417   4.267   7.128   7.639  0.1852  0.2519 -0.3459
  827YOPS   C4A12418   4.581   7.296   7.711  0.2638  0.0523 -0.0174
  827YOPS   C1B12419   3.299   7.203   6.862 -0.0602  0.1143 -0.0254
  827YOPS   C2B12420   3.398   7.050   7.187  0.0303  0.0400 -0.1161
  827YOPS   D3B12421   3.470   7.088   7.636 -0.1554 -0.1630  0.0026
  827YOPS   C4B12422   3.271   6.888   8.031  0.0721 -0.1731 -0.1762
  828YOPS   CNO12423   8.464   8.132   6.380 -0.0454 -0.1576  0.1203
  828YOPS   PO412424   8.142   7.804   6.373 -0.0654  0.1319 -0.0118
  828YOPS   GL112425   7.932   7.682   6.762  0.0364 -0.0426  0.2258
  828YOPS   GL212426   8.159   7.501   6.798  0.0386  0.1125 -0.1208
  828YOPS   C1A12427   7.764   7.844   7.227  0.1497 -0.0991 -0.0155
  828YOPS   D2A12428   7.778   7.915   7.634  0.0397 -0.1707 -0.1304
  828YOPS   C3A12429   7.946   8.226   7.941  0.0286  0.0682  0.0090
  828YOPS   C4A12430   7.693   8.307   8.227 -0.1747  0.4383  0.0620
  828YOPS   C1B12431   7.935   7.322   7.111  0.0803 -0.0615  0.0526
  828YOPS   C2B12432   8.038   7.465   7.508  0.0924 -0.1158 -0.0198
  828YOPS   D3B12433   8.054   7.580   7.925  0.2100  0.1127  0.2136
  828YOPS   C4B12434   8.444   7.543   8.131 -0.3559 -0.1488 -0.0415
  829YOPS   CNO12435   3.097   9.197   5.539  0.1224 -0.0415 -0.0430
  829YOPS   PO412436   3.094   8.792   5.742  0.0718 -0.2270 -0.2140
  829YOPS   GL112437   2.925   8.424   6.070  0.1638  0.0285 -0.1718
  829YOPS   GL212438   3.255   8.264   6.262 -0.3725  0.0562 -0.3634
  829YOPS   C1A12439   2.758   8.448   6.437  0.1348 -0.0720  0.0070
  829YOPS   D2A12440   2.675   8.272   6.817  0.2740 -0.0894  0.1534
  829YOPS   C3A12441   2.364   8.237   7.264 -0.0413 -0.2930  0.2408
  829YOPS   C4A12442   2.231   8.550   7.637  0.0017  0.3696 -0.2085
  829YOPS   C1B12443   3.228   8.148   6.641 -0.0692 -0.0222 -0.1908
  829YOPS   C2B12444   3.106   7.996   7.060  0.2888 -0.4021  0.0114
  829YOPS   D3B12445   3.156   7.949   7.439 -0.0421  0.0534 -0.0455
  829YOPS   C4B12446   3.153   8.154   7.778  0.0088  0.0071  0.0970
  830YOPS   CNO12447  16.180  14.169   5.568 -0.1948  0.4350  0.1722
  830YOPS   PO412448  16.402  14.063   5.885  0.0272 -0.1500  0.0828
  830YOPS   GL112449  16.525  14.170   6.264  0.0731 -0.0517 -0.2345
  830YOPS   GL212450  16.367  14.398   6.431  0.3188 -0.1348  0.1370
  830YOPS   C1A12451  16.815  14.151   6.610  0.0007 -0.1654  0.0220
  830YOPS   D2A12452  16.817  13.978   6.935 -0.0519  0.1884 -0.0345
  830YOPS   C3A12453  16.768  13.583   7.114 -0.1752  0.2171  0.0934
  830YOPS   C4A12454  16.689  13.277   7.463 -0.2510  0.0280 -0.0541
  830YOPS   C1B12455  16.326  14.278   6.897 -0.1026  0.2224  0.0525
  830YOPS   C2B12456  16.399  13.973   7.257 -0.0043  0.1576  0.2272
  830YOPS   D3B12457  16.507  13.764   7.550 -0.1078 -0.0254  0.0131
  830YOPS   C4B12458  16.931  13.710   7.645  0.1651 -0.1737  0.0156
  831YOPS   CNO12459   9.472   3.013   6.486  0.0308 -0.0691  0.0710
  831YOPS   PO412460   9.612   3.449   6.521 -0.0805 -0.2159 -0.1158
  831YOPS   GL112461   9.456   3.238   6.915  0.1121 -0.1063 -0.2955
  831YOPS   GL212462   9.347   2.936   6.937 -0.2127  0.1369 -0.1681
  831YOPS   C1A12463   9.400   3.276   7.376 -0.1271 -0.1785  0.1318
  831YOPS   D2A12464   9.314   3.445   7.818 -0.0203 -0.0653  0.1350
  831YOPS   C3A12465   9.260   3.901   7.974  0.0163 -0.1820 -0.3659
  831YOPS   C4A12466   9.040   4.148   7.793  0.1176  0.0634 -0.2206
  831YOPS   C1B12467   9.651   2.773   7.308 -0.0328 -0.1650 -0.2771
  831YOPS   C2B12468   9.732   2.655   7.779 -0.1515  0.0897 -0.0183
  831YOPS   D3B12469   9.931   2.372   8.074 -0.1304  0.0275  0.0523
  831YOPS   C4B12470  10.280   2.475   8.334 -0.2841  0.1455 -0.0845
  832YOPS   CNO12471   9.970   0.296   5.466  0.2941 -0.0514  0.1258
  832YOPS   PO412472  10.148  -0.013   5.746  0.1005 -0.2991 -0.1623
  832YOPS   GL112473  10.137  -0.237   6.211 -0.0042  0.2242  0.4698
  832YOPS   GL212474   9.857  -0.071   6.332  0.1847  0.0915  0.3512
  832YOPS   C1A12475  10.169  -0.239   6.724 -0.0071  0.2125  0.0215
  832YOPS   D2A12476  10.067  -0.374   7.100  0.0038 -0.2663  0.1677
  832YOPS   C3A12477  10.139  -0.827   7.296 -0.0538 -0.0588  0.3724
  832YOPS   C4A12478  10.132  -0.948   7.718 -0.4700 -0.2623 -0.0521
  832YOPS   C1B12479   9.604  -0.075   6.779 -0.4493  0.0185  0.1762
  832YOPS   C2B12480   9.602  -0.227   7.200 -0.3956  0.0777 -0.0700
  832YOPS   D3B12481   9.677  -0.215   7.618 -0.0915  0.1194 -0.0063
  832YOPS   C4B12482  10.023  -0.060   7.875  0.1867 -0.0256 -0.3286
  833YOPS   CNO12483   0.191   9.439   5.231 -0.1168 -0.0360 -0.1265
  833YOPS   PO412484  -0.138   9.396   5.546 -0.1054  0.0272  0.1173
  833YOPS   GL112485  -0.052   9.314   6.024 -0.0610  0.1683 -0.0545
  833YOPS   GL212486   0.299   9.233   6.114 -0.0304  0.3692 -0.1917
  833YOPS   C1A12487  -0.019   9.319   6.451 -0.2295 -0.1551 -0.3737
  833YOPS   D2A12488  -0.068   9.234   6.924  0.0951 -0.1153  0.1081
  833YOPS   C3A12489  -0.012   9.101   7.276  0.2977 -0.0159 -0.1777
  833YOPS   C4A12490   0.328   9.361   7.625  0.0723  0.0670 -0.2391
  833YOPS   C1B12491   0.276   9.680   6.168 -0.2727  0.1275  0.1389
  833YOPS   C2B12492   0.249  10.016   6.497  0.0104 -0.0928 -0.2459
  833YOPS   D3B12493   0.490   9.989   6.940  0.1291 -0.0776 -0.2607
  833YOPS   C4B12494   0.454  10.384   7.266 -0.1171  0.1570  0.1746
  834YOPS   CNO12495   2.804  13.659   5.113  0.2578 -0.0444 -0.0172
  834YOPS   PO412496   2.760  13.633   5.583  0.0813 -0.2509  0.1127
  834YOPS   GL112497   2.561  13.583   5.890  0.3479 -0.0342 -0.0403
  834YOPS   GL212498   2.872  13.644   6.098  0.1579 -0.1925  0.1443
  834YOPS   C1A12499   2.397  13.668   6.380 -0.0868  0.0480 -0.0720
  834YOPS   D2A12500   2.273  13.745   6.817  0.1087  0.0509 -0.0200
  834YOPS   C3A12501   2.168  14.004   7.112 -0.0028 -0.0155  0.0311
  834YOPS   C4A12502   2.105  14.416   7.258 -0.4750 -0.3817  0.0698
  834YOPS   C1B12503   2.881  13.594   6.529 -0.0616  0.1707 -0.2323
  834YOPS   C2B12504   2.761  13.427   6.962 -0.0369  0.4668 -0.2590
  834YOPS   D3B12505   2.785  13.480   7.365 -0.1123  0.0639 -0.1892
  834YOPS   C4B12506   2.878  13.143   7.595 -0.0655  0.1155 -0.0236
  835YOPS   CNO12507   8.371  17.391   6.053 -0.0511  0.4475  0.0096
  835YOPS   PO412508   8.102  17.029   6.010  0.0860 -0.0038  0.0200
  835YOPS   GL112509   8.038  17.162   6.387  0.0811 -0.0573 -0.0218
  835YOPS   GL212510   8.317  17.053   6.489 -0.0435 -0.1700  0.0343
  835YOPS   C1A12511   7.969  17.272   6.840 -0.5690  0.2459  0.4489
  835YOPS   D2A12512   8.161  17.220   7.203 -0.0962  0.0269  0.0616
  835YOPS   C3A12513   8.381  17.454   7.517 -0.2747 -0.0179  0.2417
  835YOPS   C4A12514   8.416  17.537   7.912  0.1131 -0.0609  0.1936
  835YOPS   C1B12515   8.361  16.913   6.884  0.1359  0.0451 -0.0142
  835YOPS   C2B12516   8.338  16.721   7.224 -0.2697  0.2910 -0.0135
  835YOPS   D3B12517   8.150  16.802   7.532 -0.1916  0.1479 -0.1828
  835YOPS   C4B12518   7.886  17.146   7.599  0.1303 -0.1911  0.1995
  836YOPS   CNO12519   0.641  13.957   5.429 -0.3666 -0.0217  0.0964
  836YOPS   PO412520   0.368  14.299   5.691  0.1523 -0.1855 -0.0834
  836YOPS   GL112521   0.417  14.067   5.984  0.1883 -0.0013 -0.0221
  836YOPS   GL212522   0.686  13.882   5.936  0.2781  0.0526 -0.0101
  836YOPS   C1A12523   0.504  13.984   6.391  0.1042  0.2512 -0.0808
  836YOPS   D2A12524   0.459  13.925   6.801 -0.0353  0.0891 -0.0755
  836YOPS   C3A12525   0.750  13.676   7.217 -0.3458 -0.0276 -0.2172
  836YOPS   C4A12526   0.501  13.322   7.470 -0.1159  0.0850 -0.0397
  836YOPS   C1B12527   0.823  13.656   6.310 -0.4811 -0.0190  0.4606
  836YOPS   C2B12528   0.814  13.461   6.783 -0.0890 -0.0475  0.0173
  836YOPS   D3B12529   0.893  13.095   7.017  0.0179 -0.1050 -0.0376
  836YOPS   C4B12530   0.788  12.790   6.821  0.0624 -0.0737  0.2498
  837YOPS   CNO12531   4.658   8.300   5.914  0.1998 -0.0599 -0.1575
  837YOPS   PO412532   4.527   8.706   5.851  0.1830  0.2040  0.2583
  837YOPS   GL112533   4.819   8.766   6.184 -0.1461 -0.2536 -0.0411
  837YOPS   GL212534   4.951   9.065   6.116 -0.1086 -0.1950  0.0389
  837YOPS   C1A12535   4.872   8.726   6.622  0.1825  0.1389  0.0100
  837YOPS   D2A12536   5.155   8.884   6.977 -0.2352  0.2290  0.1285
  837YOPS   C3A12537   5.130   9.218   7.361 -0.0766 -0.0589  0.0026
  837YOPS   C4A12538   5.399   9.513   7.497 -0.0561 -0.0810 -0.0501
  837YOPS   C1B12539   4.608   9.114   6.409  0.0773 -0.3582  0.2361
  837YOPS   C2B12540   4.718   9.121   6.854  0.0135  0.2097 -0.0477
  837YOPS   D3B12541   4.675   9.116   7.254  0.1434 -0.0811 -0.1082
  837YOPS   C4B12542   4.210   9.035   7.372  0.0995  0.0208  0.0148
  838YOPS   CNO12543   8.921   9.508   6.036 -0.2373 -0.1916 -0.0030
  838YOPS   PO412544   9.281   9.681   5.935  0.2496 -0.0737 -0.0373
  838YOPS   GL112545   9.353   9.526   6.334  0.2282 -0.0760 -0.0856
  838YOPS   GL212546   9.476   9.157   6.478 -0.2985 -0.0128  0.2645
  838YOPS   C1A12547   9.346   9.490   6.774  0.0173 -0.2145  0.0890
  838YOPS   D2A12548   9.445   9.518   7.208 -0.1280 -0.0956  0.3474
  838YOPS   C3A12549   9.656   9.331   7.626  0.0747  0.0491  0.0114
  838YOPS   C4A12550   9.924   9.328   7.990 -0.0277  0.0032 -0.1913
  838YOPS   C1B12551   9.612   9.159   6.927  0.0568 -0.0854  0.1624
  838YOPS   C2B12552   9.666   9.007   7.284  0.0157 -0.2682  0.1459
  838YOPS   D3B12553   9.540   8.811   7.719 -0.2196  0.2269 -0.2059
  838YOPS   C4B12554   9.402   9.149   7.996 -0.3063  0.2972 -0.0441
  839YOPS   CNO12555  15.616   5.912   6.358 -0.0661 -0.4425  0.1000
  839YOPS   PO412556  15.981   5.983   6.380  0.2659  0.0694  0.1457
  839YOPS   GL112557  15.929   5.727   6.810 -0.3042 -0.1028  0.4217
  839YOPS   GL212558  15.696   5.678   6.789  0.1894  0.0234 -0.0948
  839YOPS   C1A12559  15.967   5.660   7.234  0.0452 -0.2031 -0.0461
  839YOPS   D2A12560  16.013   5.654   7.735  0.0185  0.3374  0.2731
  839YOPS   C3A12561  15.882   5.320   8.042 -0.2667  0.0491  0.1026
  839YOPS   C4A12562  15.812   5.357   8.448  0.0964 -0.1557 -0.0286
  839YOPS   C1B12563  15.439   5.550   7.147  0.3181  0.3936  0.0965
  839YOPS   C2B12564  15.572   5.564   7.529  0.0737 -0.1653 -0.1031
  839YOPS   D3B12565  15.526   5.734   7.888 -0.2803 -0.2148  0.0219
  839YOPS   C4B12566  15.442   5.703   8.306  0.0205 -0.2933  0.0636
  840YOPS   CNO12567  10.991   8.498   5.487  0.0234 -0.2372  0.2697
  840YOPS   PO412568  11.049   8.387   5.941  0.1420  0.1793 -0.1685
  840YOPS   GL112569  10.918   8.451   6.413 -0.0127 -0.0199 -0.1451
  840YOPS   GL212570  11.009   8.126   6.418 -0.1016 -0.2072 -0.1067
  840YOPS   C1A12571  10.946   8.576   6.921 -0.0716  0.0219  0.0518
  840YOPS   D2A12572  11.002   8.610   7.371 -0.0928  0.0348 -0.0009
  840YOPS   C3A12573  10.892   8.528   7.760 -0.0444  0.0120 -0.0605
  840YOPS   C4A12574  10.801   8.132   7.946  0.2098 -0.2251 -0.3091
  840YOPS   C1B12575  11.146   8.107   6.811  0.3041 -0.1245 -0.1075
  840YOPS   C2B12576  11.193   8.138   7.252 -0.1344 -0.0292 -0.0134
  840YOPS   D3B12577  11.423   8.178   7.667  0.1357  0.0183 -0.2744
  840YOPS   C4B12578  11.702   8.126   8.036 -0.1722  0.1632 -0.2206
  841POPE   NH312579  12.437   6.772   6.340  0.2864  0.2200  0.1003
  841POPE   PO412580  12.792   7.074   6.372 -0.0591 -0.0595  0.3267
  841POPE   GL112581  12.598   7.347   6.718 -0.2079  0.1362  0.0431
  841POPE   GL212582  12.317   7.112   6.692  0.2153  0.3034 -0.0201
  841POPE   C1A12583  12.489   7.321   7.191 -0.1691  0.0781  0.1796
  841POPE   D2A12584  12.500   7.391   7.665  0.4417 -0.0285  0.2987
  841POPE   C3A12585  12.298   7.288   8.034 -0.3224  0.1279 -0.1290
  841POPE   C4A12586  12.003   7.164   8.386 -0.0627 -0.0094  0.0943
  841POPE   C1B12587  12.336   6.945   6.977 -0.0771  0.2059  0.1214
  841POPE   C2B12588  12.351   6.945   7.486  0.1826  0.2318 -0.2192
  841POPE   C3B12589  12.159   6.904   7.765 -0.1799  0.2352 -0.1645
  841POPE   C4B12590  11.795   7.060   7.959 -0.1312  0.3197 -0.0958
  842POPE   NH312591  12.122  10.905   6.163 -0.1731 -0.0333 -0.3662
  842POPE   PO412592  11.701  11.253   6.152 -0.1612  0.2675  0.0951
  842POPE   GL112593  11.816  11.193   6.559 -0.2678 -0.2698 -0.0789
  842POPE   GL212594  11.727  11.507   6.703 -0.1987 -0.0189  0.0158
  842POPE   C1A12595  12.030  11.110   6.911  0.1438 -0.1020 -0.0717
  842POPE   D2A12596  12.187  10.884   7.239 -0.0355  0.0446 -0.0401
  842POPE   C3A12597  12.086  11.041   7.655 -0.2637  0.2953 -0.2938
  842POPE   C4A12598  12.278  11.385   7.867 -0.0453  0.2966 -0.1337
  842POPE   C1B12599  11.920  11.591   7.080 -0.0641  0.0885  0.3418
  842POPE   C2B12600  12.047  11.622   7.475  0.0761 -0.2330 -0.0078
  842POPE   C3B12601  11.847  11.654   7.907  0.1462 -0.0526  0.3761
  842POPE   C4B12602  11.608  11.616   8.240  0.2324 -0.0224  0.4228
  843POPE   NH312603   8.483  11.015   5.784  0.1210 -0.0051  0.2009
  843POPE   PO412604   8.799  10.694   5.837  0.0167  0.0130 -0.1352
  843POPE   GL112605   8.816  10.740   6.201  0.0782  0.3271  0.1791
  843POPE   GL212606   8.909  10.467   6.317  0.2421  0.2364  0.0479
  843POPE   C1A12607   8.701  10.783   6.598  0.1644  0.0975 -0.1952
  843POPE   D2A12608   8.732  10.677   6.985 -0.3787  0.2527 -0.0047
  843POPE   C3A12609   8.562  10.526   7.306  0.2870  0.0417  0.2746
  843POPE   C4A12610   8.242  10.402   7.590  0.0097  0.2387  0.3032
  843POPE   C1B12611   9.105  10.441   6.641  0.0612 -0.2705 -0.3598
  843POPE   C2B12612   9.221  10.537   7.090 -0.0618 -0.1684  0.1239
  843POPE   C3B12613   8.995  10.732   7.425  0.0361 -0.0635 -0.0353
  843POPE   C4B12614   8.969  11.048   7.662  0.3820 -0.1801 -0.2764
  844POPE   NH312615  10.672   7.920   6.021  0.1000  0.1774  0.1143
  844POPE   PO412616  10.919   7.675   6.343  0.1886 -0.0142  0.0808
  844POPE   GL112617  10.683   7.641   6.673 -0.0097 -0.2802  0.2704
  844POPE   GL212618  10.853   7.769   6.926 -0.0741  0.1807 -0.0668
  844POPE   C1A12619  10.378   7.592   7.020  0.0155  0.1383 -0.0189
  844POPE   D2A12620  10.446   7.297   7.426 -0.0360 -0.1693  0.1046
  844POPE   C3A12621  10.268   7.428   7.886 -0.1316  0.3264 -0.1712
  844POPE   C4A12622  10.343   7.408   8.357  0.3840  0.0670 -0.1878
  844POPE   C1B12623  10.874   7.777   7.402 -0.0206  0.1962 -0.0796
  844POPE   C2B12624  10.724   7.682   7.792 -0.1430 -0.0866  0.0481
  844POPE   C3B12625  10.414   7.859   8.176  0.1691 -0.2606 -0.0847
  844POPE   C4B12626  10.089   8.204   8.220  0.5384 -0.2669 -0.4896
  845POPE   NH312627   4.456   2.015   6.229  0.0314 -0.2886  0.1488
  845POPE   PO412628   4.335   2.409   6.162 -0.0194 -0.1888 -0.1275
  845POPE   GL112629   4.317   2.476   6.639  0.0556  0.2333 -0.0454
  845POPE   GL212630   4.583   2.230   6.759  0.3379 -0.0559 -0.0084
  845POPE   C1A12631   4.153   2.355   7.080 -0.1216  0.2435 -0.2318
  845POPE   D2A12632   4.189   2.374   7.424 -0.0129  0.1149 -0.4205
  845POPE   C3A12633   3.856   2.132   7.653 -0.1053 -0.1314 -0.1114
  845POPE   C4A12634   3.714   1.987   7.898  0.1488 -0.1001 -0.1022
  845POPE   C1B12635   4.596   2.135   7.173  0.0632 -0.0063 -0.0207
  845POPE   C2B12636   4.566   2.130   7.614  0.1063  0.4059 -0.0002
  845POPE   C3B12637   4.689   1.904   7.915 -0.2666  0.1657 -0.0416
  845POPE   C4B12638   5.015   1.841   8.092 -0.2678 -0.2343 -0.4141
  846POPE   NH312639  14.046   0.432   6.141 -0.1190  0.1196 -0.1413
  846POPE   PO412640  13.977   0.710   6.442 -0.0158 -0.1459  0.1111
  846POPE   GL112641  13.998   0.980   6.767 -0.2264 -0.0686 -0.0960
  846POPE   GL212642  14.248   0.956   6.980  0.2668 -0.0136 -0.1102
  846POPE   C1A12643  13.756   0.989   7.043  0.4911 -0.0778  0.1145
  846POPE   D2A12644  13.616   1.112   7.427  0.2436  0.1354 -0.1165
  846POPE   C3A12645  13.429   0.845   7.663 -0.0122  0.1882  0.0916
  846POPE   C4A12646  13.572   0.571   8.057  0.3298 -0.1839  0.2104
  846POPE   C1B12647  14.081   0.850   7.422 -0.2335 -0.1558  0.2305
  846POPE   C2B12648  14.018   0.797   7.864 -0.0448 -0.3278 -0.2075
  846POPE   C3B12649  13.988   0.711   8.327  0.0331  0.2846 -0.0575
  846POPE   C4B12650  13.730   0.428   8.560  0.2269  0.1798 -0.2054
  847POPE   NH312651  13.445   3.853   6.260 -0.0259  0.0900  0.3544
  847POPE   PO412652  13.556   4.217   6.407 -0.0532 -0.0864  0.1750
  847POPE   GL112653  13.363   4.053   6.751  0.0711  0.1307  0.2311
  847POPE   GL212654  13.196   4.161   6.876 -0.1450  0.2663 -0.0757
  847POPE   C1A12655  13.499   3.848   7.123 -0.0062 -0.0396 -0.1570
  847POPE   D2A12656  13.440   3.834   7.544 -0.0971 -0.0306 -0.0905
  847POPE   C3A12657  13.663   3.651   7.867 -0.3302 -0.0053  0.1455
  847POPE   C4A12658  14.039   3.435   7.945  0.2478 -0.0518 -0.5304
  847POPE   C1B12659  13.153   4.207   7.339  0.1103 -0.0648  0.2912
  847POPE   C2B12660  13.192   4.115   7.830 -0.4579 -0.1223 -0.2383
  847POPE   C3B12661  13.287   4.014   8.235 -0.1037  0.2494  0.0904
  847POPE   C4B12662  13.396   4.086   8.706  0.1756 -0.2743  0.2305
  848POPE   NH312663   7.779  11.606   5.833 -0.0585 -0.1654  0.1475
  848POPE   PO412664   7.385  11.660   5.843  0.3063  0.0687 -0.2891
  848POPE   GL112665   7.360  11.671   6.228  0.3344 -0.0210 -0.3271
  848POPE   GL212666   7.680  11.699   6.317 -0.0200  0.0913 -0.2032
  848POPE   C1A12667   7.189  11.787   6.580  0.0111  0.0298 -0.1618
  848POPE   D2A12668   7.252  12.049   7.060  0.1025 -0.2718  0.0330
  848POPE   C3A12669   7.149  11.821   7.394  0.2071 -0.0641 -0.1428
  848POPE   C4A12670   7.017  11.648   7.794 -0.0992 -0.1944  0.0024
  848POPE   C1B12671   7.586  11.391   6.613 -0.1246  0.0129 -0.0209
  848POPE   C2B12672   7.767  11.278   7.007 -0.1695  0.1766 -0.2167
  848POPE   C3B12673   8.091  11.388   7.300  0.2042  0.1278 -0.2141
  848POPE   C4B12674   8.196  11.285   7.694  0.2019  0.0607  0.2932
  849POPE   NH312675   1.381   5.995   5.910 -0.0862 -0.0725 -0.0198
  849POPE   PO412676   0.910   5.728   5.729  0.0957  0.2020 -0.4346
  849POPE   GL112677   0.927   5.811   6.169 -0.1150 -0.2310 -0.2507
  849POPE   GL212678   0.966   5.540   6.368  0.1134  0.0708 -0.1196
  849POPE   C1A12679   0.803   6.160   6.501 -0.0122  0.0278  0.2563
  849POPE   D2A12680   0.651   6.564   6.699 -0.1787  0.1952 -0.1243
  849POPE   C3A12681   0.979   6.612   7.124 -0.3778  0.0841 -0.0634
  849POPE   C4A12682   1.164   6.963   7.437 -0.0337 -0.1239  0.0839
  849POPE   C1B12683   1.051   5.686   6.689 -0.1544 -0.2340  0.1811
  849POPE   C2B12684   1.067   5.707   7.139 -0.1091 -0.1437  0.0575
  849POPE   C3B12685   1.374   5.729   7.337 -0.2243  0.1840  0.0950
  849POPE   C4B12686   1.430   5.978   7.615  0.0022  0.2062 -0.0271
  850POPE   NH312687   2.469  13.065   5.707  0.0937  0.0033 -0.1969
  850POPE   PO412688   2.755  12.755   5.596  0.3549 -0.1157  0.0660
  850POPE   GL112689   2.907  12.370   5.890  0.1409  0.2980 -0.0907
  850POPE   GL212690   3.171  12.277   5.967  0.2055 -0.0515 -0.0882
  850POPE   C1A12691   2.694  12.264   6.220  0.0820  0.0947 -0.0675
  850POPE   D2A12692   2.745  12.043   6.673 -0.2298 -0.2128  0.3177
  850POPE   C3A12693   3.109  11.934   6.866 -0.0751 -0.0944 -0.2622
  850POPE   C4A12694   3.323  11.749   7.247  0.0555  0.2731 -0.0080
  850POPE   C1B12695   3.597  12.434   6.194  0.0825  0.1353  0.0904
  850POPE   C2B12696   3.540  12.752   6.443  0.4812 -0.3573 -0.0919
  850POPE   C3B12697   3.510  12.772   6.864  0.0957  0.0034  0.0816
  850POPE   C4B12698   3.181  12.760   7.290 -0.1987 -0.2746  0.1279
  851POPE   NH312699   4.171   5.202   5.925  0.0996 -0.0106  0.0940
  851POPE   PO412700   3.940   5.599   6.048  0.2247 -0.1778 -0.1292
  851POPE   GL112701   4.044   5.511   6.351 -0.0230 -0.0408 -0.2291
  851POPE   GL212702   4.226   5.253   6.440  0.1853 -0.1688 -0.0410
  851POPE   C1A12703   3.826   5.461   6.707  0.0210  0.1416  0.0236
  851POPE   D2A12704   3.484   5.477   6.892  0.0679  0.0418  0.3097
  851POPE   C3A12705   3.432   5.264   7.198 -0.0685 -0.1242  0.1940
  851POPE   C4A12706   3.295   4.989   7.468  0.0780  0.0247 -0.1187
  851POPE   C1B12707   4.280   5.336   6.863  0.1689 -0.1128 -0.1156
  851POPE   C2B12708   4.302   5.471   7.310  0.0383  0.1399  0.1583
  851POPE   C3B12709   4.277   5.427   7.736 -0.1604  0.2041 -0.0129
  851POPE   C4B12710   3.917   5.351   7.990 -0.2758 -0.0901 -0.0163
  852POPE   NH312711  17.286   4.347   6.222 -0.1150 -0.0184  0.1477
  852POPE   PO412712  17.678   4.318   6.227 -0.1243 -0.0295  0.0717
  852POPE   GL112713  17.605   4.302   6.650  0.0614  0.2617  0.0049
  852POPE   GL212714  17.401   4.039   6.600  0.0632 -0.2756  0.1847
  852POPE   C1A12715  17.520   4.535   7.009  0.0882 -0.1515  0.2513
  852POPE   D2A12716  17.565   4.440   7.325  0.2011 -0.1055  0.0091
  852POPE   C3A12717  17.894   4.441   7.598  0.1433 -0.1437 -0.2086
  852POPE   C4A12718  18.065   4.258   7.919  0.0465  0.0457 -0.2350
  852POPE   C1B12719  17.529   3.864   6.951  0.1186  0.1844  0.2433
  852POPE   C2B12720  17.804   4.042   7.337  0.1186 -0.0743  0.1037
  852POPE   C3B12721  17.990   3.830   7.715  0.0473  0.4549  0.1629
  852POPE   C4B12722  18.186   3.551   7.875  0.0456  0.2407  0.0026
  853POPE   NH312723   0.912   8.147   5.862  0.0594  0.3242 -0.0214
  853POPE   PO412724   1.050   8.556   5.916 -0.0246 -0.2685 -0.1657
  853POPE   GL112725   1.158   8.375   6.282 -0.0311  0.2112 -0.2780
  853POPE   GL212726   0.777   8.351   6.312 -0.2503  0.1028  0.0186
  853POPE   C1A12727   1.325   8.517   6.658  0.0136 -0.0535 -0.0523
  853POPE   D2A12728   1.470   8.621   7.077  0.1074  0.3488 -0.0085
  853POPE   C3A12729   1.344   8.403   7.483  0.0235 -0.2283  0.0057
  853POPE   C4A12730   1.461   8.390   7.892 -0.0366 -0.0064 -0.1345
  853POPE   C1B12731   0.837   8.492   6.691  0.2349  0.3423 -0.3411
  853POPE   C2B12732   0.853   8.621   7.094  0.0649 -0.0334 -0.0739
  853POPE   C3B12733   0.789   8.513   7.528  0.3383 -0.1496  0.2427
  853POPE   C4B12734   0.945   8.271   7.941 -0.4142 -0.0506 -0.1553
  854POPE   NH312735   2.646   5.077   6.377  0.0447 -0.4279  0.1149
  854POPE   PO412736   2.290   5.173   6.501 -0.0307  0.2148 -0.1571
  854POPE   GL112737   2.486   5.350   6.826  0.0651  0.0243 -0.0082
  854POPE   GL212738   2.257   5.130   6.975 -0.0958  0.2539 -0.2430
  854POPE   C1A12739   2.443   5.516   7.248  0.0752  0.0095  0.1150
  854POPE   D2A12740   2.415   5.476   7.608  0.1381 -0.0654  0.0614
  854POPE   C3A12741   2.677   5.525   7.896 -0.0339 -0.3863  0.6359
  854POPE   C4A12742   2.860   5.512   8.346 -0.1570 -0.2427 -0.2340
  854POPE   C1B12743   2.383   5.049   7.440  0.2055  0.0944 -0.1927
  854POPE   C2B12744   2.544   4.982   7.899 -0.2613 -0.3237  0.1539
  854POPE   C3B12745   2.947   5.045   8.049  0.0503 -0.1754 -0.4076
  854POPE   C4B12746   3.271   5.004   8.378  0.3619 -0.1856 -0.2065
  855POPE   NH312747  16.509   6.646   6.081 -0.2337 -0.1230  0.0694
  855POPE   PO412748  16.887   6.932   6.024  0.2648  0.0011  0.0517
  855POPE   GL112749  17.152   6.922   6.358 -0.1390  0.0025 -0.2693
  855POPE   GL212750  17.365   7.332   6.416  0.0965  0.0876 -0.0152
  855POPE   C1A12751  17.226   6.908   6.763 -0.1124  0.0245 -0.1559
  855POPE   D2A12752  17.520   6.899   7.025 -0.0047  0.1371 -0.1981
  855POPE   C3A12753  17.436   6.827   7.486  0.4375 -0.2569  0.0249
  855POPE   C4A12754  17.548   6.823   7.893  0.1600 -0.0333  0.0038
  855POPE   C1B12755  17.481   7.395   6.906  0.0373 -0.0123 -0.0946
  855POPE   C2B12756  17.646   7.365   7.384  0.0846 -0.3012 -0.1500
  855POPE   C3B12757  17.829   7.605   7.723 -0.1496  0.3892 -0.1031
  855POPE   C4B12758  18.140   7.474   7.980  0.2186  0.0316 -0.0002
  856POPE   NH312759  11.710  11.745   6.210 -0.2188 -0.2936 -0.3234
  856POPE   PO412760  11.782  12.172   6.182 -0.2451 -0.1985  0.0612
  856POPE   GL112761  11.668  12.040   6.679 -0.3009  0.1316  0.0626
  856POPE   GL212762  12.013  12.074   6.771  0.0295  0.2352 -0.2031
  856POPE   C1A12763  11.565  11.966   7.094 -0.0408 -0.1874  0.0725
  856POPE   D2A12764  11.476  11.663   7.431  0.0851 -0.0605  0.0642
  856POPE   C3A12765  11.346  11.913   7.829 -0.0937 -0.1488  0.4546
  856POPE   C4A12766  11.050  12.150   7.808 -0.1231 -0.0312  0.0713
  856POPE   C1B12767  11.990  12.057   7.240 -0.2477 -0.1877 -0.0476
  856POPE   C2B12768  12.121  12.109   7.634  0.0253 -0.1809  0.0922
  856POPE   C3B12769  11.844  12.152   7.943  0.3206 -0.0340  0.0332
  856POPE   C4B12770  11.694  12.190   8.327  0.1697  0.1118 -0.1510
  857POPE   NH312771   7.833   7.524   6.087 -0.0290 -0.0176  0.2862
  857POPE   PO412772   7.407   7.712   5.899  0.0267 -0.2270  0.0872
  857POPE   GL112773   7.329   7.459   6.222  0.2803 -0.2326 -0.1077
  857POPE   GL212774   7.459   7.166   6.177  0.0620 -0.3129  0.1312
  857POPE   C1A12775   7.140   7.489   6.564 -0.0461 -0.2129  0.2676
  857POPE   D2A12776   6.963   7.202   6.863 -0.1519 -0.1882 -0.0142
  857POPE   C3A12777   7.086   7.131   7.342 -0.0198 -0.0648 -0.1147
  857POPE   C4A12778   7.067   7.250   7.737  0.2654 -0.2965  0.1193
  857POPE   C1B12779   7.623   7.325   6.633 -0.1684 -0.0043 -0.1028
  857POPE   C2B12780   7.430   7.389   7.042 -0.1334 -0.0132  0.0303
  857POPE   C3B12781   7.310   7.633   7.431 -0.0225  0.0540  0.0240
  857POPE   C4B12782   7.003   7.936   7.411 -0.2330 -0.2175  0.0549
  858POPE   NH312783   0.941   4.292   6.240  0.1509  0.2436  0.4407
  858POPE   PO412784   0.552   4.507   6.078 -0.1372 -0.0050  0.1996
  858POPE   GL112785   0.487   4.573   6.453  0.1490 -0.1402  0.0273
  858POPE   GL212786   0.128   4.631   6.656 -0.0095  0.0171  0.3370
  858POPE   C1A12787   0.649   4.736   6.890 -0.2614 -0.3343  0.1551
  858POPE   D2A12788   0.826   4.510   7.202 -0.0130 -0.2454 -0.1289
  858POPE   C3A12789   0.798   4.564   7.552 -0.1059 -0.1261 -0.2235
  858POPE   C4A12790   0.666   4.589   7.925  0.3121  0.1689 -0.1852
  858POPE   C1B12791   0.216   4.500   7.110  0.2405  0.0560 -0.0305
  858POPE   C2B12792   0.368   4.749   7.430 -0.0069 -0.0731  0.0628
  858POPE   C3B12793   0.293   4.887   7.688  0.1362 -0.0819  0.0374
  858POPE   C4B12794   0.403   5.052   8.084 -0.1435 -0.0921 -0.1935
  859POPE   NH312795   8.872   5.798   6.265 -0.2482  0.2102 -0.4661
  859POPE   PO412796   8.343   5.609   6.323 -0.1293 -0.1334 -0.4727
  859POPE   GL112797   8.337   5.238   6.560 -0.1703 -0.0951 -0.1024
  859POPE   GL212798   8.074   5.291   6.698  0.1924 -0.3690  0.0894
  859POPE   C1A12799   8.442   5.143   6.954  0.0771 -0.0333  0.0067
  859POPE   D2A12800   8.487   5.141   7.432 -0.1120 -0.0434  0.2143
  859POPE   C3A12801   8.382   4.989   7.785  0.0794  0.4202  0.0130
  859POPE   C4A12802   8.212   4.576   7.816  0.0705 -0.0200  0.2013
  859POPE   C1B12803   7.942   5.469   7.090 -0.2566 -0.4108  0.1643
  859POPE   C2B12804   7.978   5.276   7.574 -0.1590  0.1830  0.1160
  859POPE   C3B12805   7.894   5.204   8.032 -0.1031  0.1446 -0.0470
  859POPE   C4B12806   7.754   5.085   8.515  0.1586 -0.0298  0.0999
  860POPE   NH312807  13.224  12.431   6.271 -0.0177 -0.2158  0.0925
  860POPE   PO412808  12.758  12.456   6.431 -0.0274  0.0427 -0.4269
  860POPE   GL112809  12.904  12.481   6.746  0.1829  0.2841 -0.2114
  860POPE   GL212810  13.205  12.433   6.826  0.2914  0.2258  0.2270
  860POPE   C1A12811  12.840  12.532   7.204 -0.0408 -0.1889  0.3674
  860POPE   D2A12812  12.986  12.439   7.572 -0.1086  0.0464  0.1005
  860POPE   C3A12813  12.820  12.759   7.749  0.2732 -0.0233 -0.0837
  860POPE   C4A12814  12.409  12.952   7.750 -0.0749  0.0759 -0.3446
  860POPE   C1B12815  13.622  12.667   6.926 -0.1021  0.0657 -0.2855
  860POPE   C2B12816  13.669  12.841   7.347 -0.1514 -0.0790 -0.0688
  860POPE   C3B12817  13.584  12.743   7.729  0.0557 -0.2049  0.0424
  860POPE   C4B12818  13.651  12.575   8.238  0.0983 -0.1685  0.4646
  861POPE   NH312819   6.566   5.220   6.322 -0.2530  0.3003 -0.2052
  861POPE   PO412820   6.253   5.123   6.075 -0.0118  0.1464 -0.2503
  861POPE   GL112821   6.085   5.156   6.540  0.2473 -0.1268 -0.0728
  861POPE   GL212822   6.148   5.412   6.673  0.3653  0.0651 -0.1847
  861POPE   C1A12823   6.058   5.049   6.985  0.1233 -0.1463  0.1643
  861POPE   D2A12824   6.176   5.216   7.394  0.1066  0.0492 -0.0503
  861POPE   C3A12825   6.164   5.165   7.874 -0.0762  0.0893 -0.1166
  861POPE   C4A12826   6.139   5.149   8.238  0.1447 -0.2057  0.1668
  861POPE   C1B12827   6.297   5.633   6.963  0.2178  0.1035 -0.0986
  861POPE   C2B12828   6.452   5.669   7.379 -0.0938  0.0930  0.3037
  861POPE   C3B12829   6.526   5.778   7.817  0.0771 -0.1078 -0.1043
  861POPE   C4B12830   6.824   6.070   7.933 -0.1044  0.3255 -0.0025
  862POPE   NH312831  17.372   1.634   6.285  0.1664  0.0504 -0.1687
  862POPE   PO412832  17.235   1.931   6.696 -0.2710 -0.2172  0.0401
  862POPE   GL112833  17.075   1.808   7.004  0.1740 -0.1668 -0.1492
  862POPE   GL212834  17.252   1.499   6.967  0.0653 -0.0973 -0.1462
  862POPE   C1A12835  16.975   1.772   7.376 -0.0331  0.0353  0.1678
  862POPE   D2A12836  17.086   1.780   7.719  0.1369  0.3023  0.2370
  862POPE   C3A12837  16.825   1.838   7.991 -0.1530 -0.1969  0.2922
  862POPE   C4A12838  16.669   2.199   8.094 -0.0075  0.0707 -0.0712
  862POPE   C1B12839  17.485   1.545   7.354  0.0522 -0.2002 -0.0629
  862POPE   C2B12840  17.574   1.673   7.718 -0.1314  0.3112  0.4187
  862POPE   C3B12841  17.411   1.824   8.131  0.0813  0.0771  0.0609
  862POPE   C4B12842  17.310   1.667   8.565 -0.1804  0.2129 -0.3676
  863POPE   NH312843  12.532  12.072   6.171  0.5137 -0.1120  0.1413
  863POPE   PO412844  12.214  11.884   6.378 -0.0012 -0.1183  0.0893
  863POPE   GL112845  12.245  11.604   6.699  0.1353  0.2571 -0.0149
  863POPE   GL212846  12.353  11.299   6.600 -0.0345  0.0252  0.3490
  863POPE   C1A12847  12.339  11.425   7.115  0.3334  0.0999 -0.1614
  863POPE   D2A12848  12.511  11.222   7.377 -0.1099 -0.2762 -0.4071
  863POPE   C3A12849  12.788  11.451   7.682 -0.2722  0.0015  0.2962
  863POPE   C4A12850  12.860  11.445   8.140  0.1373 -0.0481 -0.1290
  863POPE   C1B12851  12.641  11.064   6.905 -0.4359  0.0215 -0.1578
  863POPE   C2B12852  12.743  10.750   7.145  0.1403 -0.1014  0.1938
  863POPE   C3B12853  12.614  10.755   7.539  0.2498 -0.0085 -0.1146
  863POPE   C4B12854  12.552  10.996   7.821 -0.1286 -0.1408  0.2754
  864POPE   NH312855  14.595   6.422   5.920 -0.0659 -0.0154 -0.0063
  864POPE   PO412856  15.016   6.552   6.010 -0.1666 -0.2788  0.0933
  864POPE   GL112857  15.093   6.757   6.485  0.1616  0.0970 -0.1272
  864POPE   GL212858  14.885   6.756   6.827  0.2250 -0.2246  0.2395
  864POPE   C1A12859  15.353   6.816   6.861 -0.1320 -0.0604 -0.2441
  864POPE   D2A12860  15.752   6.693   6.999  0.1323 -0.3935 -0.0334
  864POPE   C3A12861  15.961   7.131   7.210 -0.0893  0.1382  0.0340
  864POPE   C4A12862  15.942   7.536   7.490  0.1365 -0.0697 -0.0412
  864POPE   C1B12863  14.985   6.837   7.212 -0.3439 -0.2264 -0.0491
  864POPE   C2B12864  14.834   6.903   7.597 -0.0762  0.0634  0.0159
  864POPE   C3B12865  14.597   6.689   7.934  0.0486 -0.2329  0.0565
  864POPE   C4B12866  14.815   6.519   8.283 -0.2016  0.1814 -0.0445
  865POPE   NH312867   0.140   7.740   5.934 -0.0269  0.0674  0.0915
  865POPE   PO412868   0.422   8.140   5.957 -0.2013 -0.3715  0.2041
  865POPE   GL112869   0.119   8.203   6.328 -0.0957 -0.3333  0.4402
  865POPE   GL212870  -0.166   8.201   6.383  0.1541 -0.1075  0.2250
  865POPE   C1A12871   0.214   8.431   6.635 -0.3231 -0.3526  0.1687
  865POPE   D2A12872   0.362   8.462   7.034 -0.1177 -0.0635  0.0690
  865POPE   C3A12873   0.280   8.381   7.413 -0.2392  0.0837  0.2359
  865POPE   C4A12874   0.117   8.752   7.632 -0.0948  0.1755  0.1351
  865POPE   C1B12875  -0.242   8.346   6.660  0.0190 -0.0793  0.0943
  865POPE   C2B12876  -0.425   8.266   7.126 -0.2925 -0.3232  0.1229
  865POPE   C3B12877  -0.775   8.222   7.410  0.0154  0.3456 -0.1070
  865POPE   C4B12878  -0.811   8.118   7.785 -0.0288 -0.0064  0.1051
  866POPE   NH312879  11.810   5.633   6.066 -0.3524 -0.0539 -0.0754
  866POPE   PO412880  11.371   5.702   6.043  0.3120 -0.2194 -0.1496
  866POPE   GL112881  11.492   6.065   6.434  0.0402 -0.2467 -0.0187
  866POPE   GL212882  11.262   6.038   6.633  0.0425  0.3411  0.0632
  866POPE   C1A12883  11.593   6.339   6.782  0.0460 -0.4835 -0.4268
  866POPE   D2A12884  11.476   6.365   7.231 -0.0541 -0.2625  0.2342
  866POPE   C3A12885  11.189   6.201   7.311  0.1585  0.1329  0.0535
  866POPE   C4A12886  11.030   6.153   7.718 -0.2624 -0.1860 -0.3543
  866POPE   C1B12887  11.213   5.779   7.049 -0.1999  0.0920 -0.0765
  866POPE   C2B12888  11.339   5.738   7.571  0.2254 -0.0130  0.1586
  866POPE   C3B12889  11.224   5.783   8.009 -0.0221  0.2627 -0.0499
  866POPE   C4B12890  10.904   6.138   8.183 -0.1079  0.1734 -0.3450
  867POPE   NH312891   9.905  13.400   5.799  0.2594 -0.1183  0.0603
  867POPE   PO412892  10.165  13.663   5.872  0.1191  0.2405 -0.1988
  867POPE   GL112893  10.257  13.842   6.299 -0.0438  0.0976  0.1423
  867POPE   GL212894  10.253  13.549   6.510  0.2626 -0.1359  0.2670
  867POPE   C1A12895   9.921  13.963   6.586 -0.0787 -0.1838 -0.0898
  867POPE   D2A12896   9.652  14.312   6.708 -0.0003  0.1843 -0.1484
  867POPE   C3A12897   9.771  14.481   7.073  0.0775 -0.4722  0.1550
  867POPE   C4A12898   9.983  14.596   7.465  0.0561  0.0192 -0.1321
  867POPE   C1B12899  10.259  13.628   6.989  0.0215 -0.4848  0.0340
  867POPE   C2B12900   9.870  13.628   7.253  0.0265  0.1865 -0.1037
  867POPE   C3B12901   9.852  13.604   7.745 -0.3881 -0.0940  0.2121
  867POPE   C4B12902   9.659  13.249   7.846  0.1937  0.0038 -0.0437
  868POPE   NH312903   4.946   2.948   6.158  0.2322 -0.0573  0.0315
  868POPE   PO412904   5.376   2.756   6.255  0.1518 -0.0337 -0.1914
  868POPE   GL112905   5.422   2.993   6.547 -0.5045  0.0409 -0.2243
  868POPE   GL212906   5.791   3.032   6.519 -0.2743  0.0527 -0.0018
  868POPE   C1A12907   5.430   3.004   6.974 -0.0419 -0.1354 -0.1779
  868POPE   D2A12908   5.490   3.066   7.384 -0.1824  0.1958 -0.0644
  868POPE   C3A12909   5.453   3.108   7.806  0.1661 -0.2733  0.0888
  868POPE   C4A12910   5.331   3.163   8.218 -0.0417  0.1347  0.0952
  868POPE   C1B12911   6.134   3.002   6.824 -0.0271 -0.3098  0.0576
  868POPE   C2B12912   5.984   2.984   7.263  0.0883 -0.2854 -0.3235
  868POPE   C3B12913   6.014   2.748   7.691  0.0997  0.0223  0.0046
  868POPE   C4B12914   5.838   2.476   7.985  0.1147  0.1530 -0.1082
  869POPE   NH312915   6.676   8.169   5.838 -0.0577  0.0457  0.0103
  869POPE   PO412916   6.840   8.400   6.171 -0.1013  0.0640 -0.1652
  869POPE   GL112917   6.739   8.334   6.625 -0.5320  0.3170  0.1850
  869POPE   GL212918   6.543   8.182   6.666 -0.0279  0.2902  0.1854
  869POPE   C1A12919   6.914   8.259   7.009  0.0047  0.1404 -0.2478
  869POPE   D2A12920   6.917   8.445   7.372 -0.3376  0.0359 -0.2382
  869POPE   C3A12921   6.907   8.227   7.818 -0.1983 -0.2507  0.2249
  869POPE   C4A12922   6.716   8.450   8.205 -0.0430 -0.3873 -0.3180
  869POPE   C1B12923   6.184   8.114   6.810  0.2643  0.3412  0.2756
  869POPE   C2B12924   6.051   7.875   7.123  0.2374  0.1443  0.2813
  869POPE   C3B12925   5.955   7.757   7.616  0.0235 -0.0440  0.2066
  869POPE   C4B12926   6.259   7.743   7.887  0.0770  0.0440 -0.4074
  870POPE   NH312927  15.620  17.612   6.450  0.1648 -0.1706 -0.2914
  870POPE   PO412928  15.248  17.850   6.413  0.0805  0.3051  0.2305
  870POPE   GL112929  15.415  17.869   6.880  0.0157  0.0845 -0.1038
  870POPE   GL212930  15.484  18.166   6.950 -0.1215 -0.0340 -0.2283
  870POPE   C1A12931  15.350  17.783   7.348 -0.0020  0.0409  0.0478
  870POPE   D2A12932  15.118  17.657   7.836  0.2114 -0.1450 -0.0741
  870POPE   C3A12933  15.314  17.458   8.074  0.0053 -0.3403 -0.1347
  870POPE   C4A12934  15.625  17.218   8.288  0.2519  0.0253  0.0364
  870POPE   C1B12935  15.563  18.423   7.421  0.2189 -0.0968  0.3651
  870POPE   C2B12936  15.393  18.567   7.809 -0.1748  0.1467 -0.2665
  870POPE   C3B12937  15.485  18.622   8.288  0.1196 -0.1929 -0.0569
  870POPE   C4B12938  15.537  18.659   8.767 -0.1522 -0.1013 -0.1368
  871YOPE   NH312939  11.447   2.187   6.309  0.1848  0.1900 -0.0116
  871YOPE   PO412940  11.861   2.168   6.093 -0.4872 -0.1859 -0.1651
  871YOPE   GL112941  11.851   1.977   6.555  0.1905 -0.0928 -0.0515
  871YOPE   GL212942  11.677   2.130   6.783 -0.0701 -0.2733 -0.2549
  871YOPE   C1A12943  11.971   1.743   6.996 -0.4551 -0.1203  0.0390
  871YOPE   D2A12944  11.989   1.765   7.427 -0.0296  0.2092  0.3318
  871YOPE   C3A12945  12.037   1.976   7.705  0.0644  0.1613  0.3344
  871YOPE   C4A12946  12.155   2.003   8.162  0.0428 -0.0835 -0.0064
  871YOPE   C1B12947  11.687   2.095   7.277 -0.2451 -0.1919  0.1111
  871YOPE   C2B12948  11.540   1.988   7.667 -0.2646 -0.2100 -0.0299
  871YOPE   D3B12949  11.279   1.770   7.934 -0.1263 -0.0506  0.1767
  871YOPE   C4B12950  10.948   1.600   8.217  0.1286 -0.1668 -0.1286
  872YOPE   NH312951   9.332   1.060   5.961  0.0555  0.0088  0.2277
  872YOPE   PO412952   9.147   1.302   6.162 -0.0607 -0.2766 -0.0413
  872YOPE   GL112953   9.312   1.021   6.471 -0.0672 -0.2059 -0.1063
  872YOPE   GL212954   9.657   0.992   6.454  0.0213  0.1054  0.1721
  872YOPE   C1A12955   9.253   1.131   6.899  0.2144  0.0006 -0.0227
  872YOPE   D2A12956   9.096   0.974   7.163 -0.2967 -0.1297  0.1095
  872YOPE   C3A12957   9.230   0.551   7.180 -0.1891 -0.1456 -0.0805
  872YOPE   C4A12958   9.614   0.301   7.321 -0.0221 -0.0423  0.0394
  872YOPE   C1B12959   9.772   0.825   6.898  0.0200  0.0549  0.4090
  872YOPE   C2B12960   9.976   0.728   7.177 -0.1975 -0.1525  0.3372
  872YOPE   D3B12961  10.117   0.957   7.581  0.0678 -0.2045 -0.0715
  872YOPE   C4B12962  10.044   1.280   7.797  0.2769  0.1554  0.4575
  873YOPE   NH312963   2.046   5.467   6.102  0.1476 -0.4201 -0.0108
  873YOPE   PO412964   1.865   5.004   6.195 -0.1816  0.1290  0.0107
  873YOPE   GL112965   1.738   4.952   6.680 -0.2514  0.0430  0.5260
  873YOPE   GL212966   1.642   4.650   6.668 -0.1420 -0.2037 -0.1093
  873YOPE   C1A12967   1.818   4.898   7.147  0.0873  0.0582  0.0457
  873YOPE   D2A12968   1.904   4.828   7.483  0.0601 -0.0340  0.2971
  873YOPE   C3A12969   1.643   4.827   7.784 -0.1277 -0.1779  0.1605
  873YOPE   C4A12970   1.420   4.706   8.200  0.0875 -0.0006 -0.0965
  873YOPE   C1B12971   1.643   4.415   7.113 -0.0014  0.1245 -0.1646
  873YOPE   C2B12972   1.744   4.328   7.560 -0.0426  0.0374 -0.2267
  873YOPE   D3B12973   1.659   4.305   8.003 -0.0372 -0.0097  0.1951
  873YOPE   C4B12974   1.588   4.308   8.519 -0.0848  0.2331  0.5302
  874YOPE   NH312975  15.277   4.352   6.487 -0.0509 -0.3531  0.2262
  874YOPE   PO412976  15.285   3.937   6.595 -0.3434 -0.0750 -0.2951
  874YOPE   GL112977  15.333   4.012   6.947 -0.0930 -0.1370  0.1607
  874YOPE   GL212978  15.582   4.216   6.965  0.0389  0.2155 -0.0016
  874YOPE   C1A12979  15.125   4.002   7.330 -0.1189 -0.1550  0.2980
  874YOPE   D2A12980  14.999   4.024   7.644 -0.0999 -0.0442  0.1532
  874YOPE   C3A12981  14.666   4.178   7.636  0.1719  0.0425 -0.2044
  874YOPE   C4A12982  14.344   4.425   7.877  0.0365 -0.1932 -0.1236
  874YOPE   C1B12983  15.672   4.268   7.301 -0.0185 -0.0006  0.1886
  874YOPE   C2B12984  15.468   4.220   7.654  0.0429  0.1107 -0.4543
  874YOPE   D3B12985  15.561   4.138   7.997  0.1798  0.5199  0.0430
  874YOPE   C4B12986  15.328   4.220   8.394  0.0938  0.2009  0.1957
  875YOPE   NH312987   4.836   4.529   5.876  0.1241 -0.1237  0.1588
  875YOPE   PO412988   4.605   4.918   5.878  0.0839 -0.2139 -0.0922
  875YOPE   GL112989   4.561   4.840   6.262  0.0000  0.4619 -0.1218
  875YOPE   GL212990   4.243   4.751   6.219 -0.2822 -0.0194 -0.0367
  875YOPE   C1A12991   4.454   4.882   6.704 -0.0697 -0.1793  0.1940
  875YOPE   D2A12992   4.239   4.796   7.103  0.2741 -0.0437 -0.3575
  875YOPE   C3A12993   4.469   5.008   7.453 -0.0685 -0.0238 -0.0335
  875YOPE   C4A12994   4.653   5.048   7.868  0.2166  0.0478  0.1760
  875YOPE   C1B12995   4.140   4.521   6.528 -0.1109 -0.2077 -0.0997
  875YOPE   C2B12996   3.965   4.416   6.883  0.0377 -0.1317  0.4775
  875YOPE   D3B12997   3.794   4.620   7.237  0.1176  0.1552  0.1760
  875YOPE   C4B12998   3.702   4.597   7.692  0.1113 -0.1733 -0.3144
  876YOPE   NH312999   8.165   9.395   6.035 -0.1502  0.0700 -0.0361
  876YOPE   PO413000   8.395   9.793   5.980  0.1910  0.0560 -0.1758
  876YOPE   GL113001   8.333  10.144   6.337 -0.3024 -0.1476 -0.1523
  876YOPE   GL213002   7.985  10.111   6.339  0.3614 -0.0856  0.3755
  876YOPE   C1A13003   8.297  10.439   6.641 -0.0304  0.2672 -0.3605
  876YOPE   D2A13004   8.154  10.914   6.859 -0.0355  0.1760  0.3265
  876YOPE   C3A13005   8.462  11.188   6.802  0.0491 -0.2055  0.1123
  876YOPE   C4A13006   8.750  11.371   6.443 -0.1619  0.2324  0.2114
  876YOPE   C1B13007   7.907  10.081   6.782  0.2305  0.2076 -0.1559
  876YOPE   C2B13008   7.939   9.818   7.098 -0.0902  0.3647  0.2675
  876YOPE   D3B13009   7.910   9.773   7.463  0.4073 -0.0397  0.0639
  876YOPE   C4B13010   8.127   9.625   7.850  0.2258 -0.0196  0.1912
  877YOPE   NH313011  12.263  14.200   6.277  0.0442 -0.0198  0.4326
  877YOPE   PO413012  11.839  14.204   6.337 -0.0375 -0.1598 -0.1740
  877YOPE   GL113013  11.789  14.017   6.721 -0.0013  0.0680  0.1603
  877YOPE   GL213014  11.540  13.999   6.839  0.2339  0.0440 -0.0148
  877YOPE   C1A13015  11.967  13.883   7.045  0.1455 -0.0330 -0.0854
  877YOPE   D2A13016  12.162  13.821   7.370 -0.0151 -0.1960  0.1564
  877YOPE   C3A13017  11.910  13.827   7.750  0.0083 -0.0504  0.0913
  877YOPE   C4A13018  11.894  13.670   8.183 -0.1129 -0.0019  0.0743
  877YOPE   C1B13019  11.549  14.025   7.315  0.2655 -0.1722  0.0035
  877YOPE   C2B13020  11.298  13.948   7.665  0.1328 -0.0468  0.3107
  877YOPE   D3B13021  11.327  13.934   8.130 -0.2371 -0.1879  0.0679
  877YOPE   C4B13022  11.607  14.069   8.469  0.4450  0.1104  0.2620
  878YOPE   NH313023   3.459  16.210   5.983  0.1393 -0.4517 -0.0191
  878YOPE   PO413024   3.302  15.873   5.907 -0.2278  0.2167 -0.1672
  878YOPE   GL113025   3.366  15.742   6.263  0.0320 -0.0850  0.1659
  878YOPE   GL213026   3.202  15.499   6.215 -0.1443  0.1961  0.0652
  878YOPE   C1A13027   3.504  15.646   6.668 -0.4027 -0.0473 -0.2060
  878YOPE   D2A13028   3.301  15.756   7.083 -0.0494  0.1555 -0.2502
  878YOPE   C3A13029   3.248  15.425   7.440 -0.2706  0.3862  0.1748
  878YOPE   C4A13030   3.616  15.294   7.737 -0.0845 -0.0260 -0.3804
  878YOPE   C1B13031   2.970  15.497   6.655 -0.1850 -0.2300 -0.0609
  878YOPE   C2B13032   2.907  15.303   7.054  0.2657 -0.1519  0.1289
  878YOPE   D3B13033   2.751  15.174   7.470 -0.1087  0.0172 -0.2535
  878YOPE   C4B13034   2.780  15.279   7.813 -0.3846  0.0405 -0.1285
  879YOPE   NH313035  16.256   2.754   6.534  0.1297 -0.1823 -0.0301
  879YOPE   PO413036  16.501   2.469   6.469 -0.2519 -0.1125  0.2137
  879YOPE   GL113037  16.708   2.401   6.856 -0.0474  0.1272 -0.2277
  879YOPE   GL213038  16.928   2.237   6.924 -0.1676 -0.1782 -0.1530
  879YOPE   C1A13039  16.682   2.690   7.190  0.0328 -0.2931 -0.1926
  879YOPE   D2A13040  16.600   2.646   7.596 -0.0942 -0.2535  0.1048
  879YOPE   C3A13041  16.745   2.659   7.987  0.3123 -0.1079  0.1782
  879YOPE   C4A13042  16.899   2.537   8.474  0.1472 -0.0169 -0.0382
  879YOPE   C1B13043  16.944   2.260   7.328  0.0142 -0.0678  0.3013
  879YOPE   C2B13044  16.961   2.262   7.697  0.0605  0.0470  0.0094
  879YOPE   D3B13045  17.130   2.301   8.096  0.4143 -0.1962 -0.1082
  879YOPE   C4B13046  16.969   2.027   8.438  0.0665  0.0726  0.0146
  880YOPE   NH313047   3.662  15.531   5.847  0.0330  0.2073  0.1905
  880YOPE   PO413048   3.823  15.900   6.065  0.0255  0.2621 -0.0176
  880YOPE   GL113049   3.908  15.736   6.380  0.1848  0.0368  0.3781
  880YOPE   GL213050   3.786  15.370   6.335  0.0453  0.2202  0.1331
  880YOPE   C1A13051   3.950  15.650   6.872 -0.0825  0.0277  0.0498
  880YOPE   D2A13052   3.734  15.507   7.252  0.2527  0.2032  0.2759
  880YOPE   C3A13053   3.593  15.792   7.569  0.1871  0.1844 -0.1706
  880YOPE   C4A13054   3.559  16.099   7.894  0.1776  0.1579 -0.0001
  880YOPE   C1B13055   3.861  15.201   6.703 -0.1378  0.3060 -0.1984
  880YOPE   C2B13056   4.043  15.128   7.024 -0.0617 -0.2531  0.1905
  880YOPE   D3B13057   4.198  15.255   7.432  0.0113  0.1568  0.0086
  880YOPE   C4B13058   4.548  15.259   7.740 -0.0017 -0.0772 -0.1755
  881YOPE   NH313059  14.137   5.185   6.269  0.0523  0.0629 -0.0320
  881YOPE   PO413060  14.207   5.639   6.235  0.0439 -0.0278 -0.1478
  881YOPE   GL113061  14.202   5.545   6.631 -0.0935  0.0824  0.1982
  881YOPE   GL213062  13.988   5.277   6.741  0.2542 -0.1792  0.0098
  881YOPE   C1A13063  14.116   5.671   7.122  0.2512  0.0337  0.2947
  881YOPE   D2A13064  14.211   5.495   7.633 -0.0544  0.0659  0.3747
  881YOPE   C3A13065  13.834   5.284   7.863 -0.1595 -0.2639  0.1759
  881YOPE   C4A13066  13.325   5.054   7.942 -0.2252  0.1216 -0.1766
  881YOPE   C1B13067  13.799   5.380   7.300 -0.0671  0.4947  0.0954
  881YOPE   C2B13068  13.571   5.121   7.505  0.2600  0.2732  0.3502
  881YOPE   D3B13069  13.735   4.742   7.642 -0.3453 -0.0032 -0.2440
  881YOPE   C4B13070  13.738   4.288   7.773 -0.2274 -0.1945 -0.1831
  882YOPE   NH313071  14.999  16.949   6.179 -0.2713  0.2539  0.1269
  882YOPE   PO413072  14.563  17.009   6.201  0.3042  0.0098 -0.3408
  882YOPE   GL113073  14.643  16.670   6.492 -0.0252  0.0794  0.2708
  882YOPE   GL213074  14.589  16.336   6.346  0.1341 -0.1657  0.0678
  882YOPE   C1A13075  14.760  16.688   6.918  0.2278  0.3338  0.0390
  882YOPE   D2A13076  15.019  16.800   7.258 -0.0124 -0.0533 -0.0244
  882YOPE   C3A13077  14.942  17.134   7.549 -0.1865  0.1016  0.5027
  882YOPE   C4A13078  14.812  17.308   7.992  0.0830 -0.0410  0.4185
  882YOPE   C1B13079  14.329  16.396   6.788  0.0726  0.2644 -0.1075
  882YOPE   C2B13080  14.441  16.321   7.218 -0.2104 -0.0228 -0.1938
  882YOPE   D3B13081  14.554  16.198   7.700 -0.0472 -0.1483  0.2911
  882YOPE   C4B13082  14.847  16.263   8.079 -0.0842 -0.3028  0.0790
  883YOPE   NH313083   6.608  16.022   5.942 -0.0721  0.5641  0.1971
  883YOPE   PO413084   7.005  16.207   6.015  0.1252 -0.1366 -0.2798
  883YOPE   GL113085   7.346  15.973   6.226  0.2837  0.1690 -0.0026
  883YOPE   GL213086   7.656  16.194   6.223  0.0652 -0.0106  0.1412
  883YOPE   C1A13087   7.468  16.036   6.674  0.1548 -0.2992 -0.0167
  883YOPE   D2A13088   7.622  16.296   7.071 -0.0066  0.0145  0.1691
  883YOPE   C3A13089   7.761  16.474   7.497  0.0407 -0.0752  0.0894
  883YOPE   C4A13090   7.905  16.621   7.952  0.2890  0.1725 -0.2439
  883YOPE   C1B13091   7.469  16.527   6.486 -0.1372 -0.2402  0.1321
  883YOPE   C2B13092   7.256  16.556   6.868 -0.0943 -0.1048  0.0081
  883YOPE   D3B13093   7.306  16.584   7.336  0.0262 -0.0738 -0.0274
  883YOPE   C4B13094   7.323  16.708   7.701 -0.0256  0.1245  0.2659
  884YOPE   NH313095   5.325  17.070   6.156  0.2322 -0.1375 -0.0800
  884YOPE   PO413096   4.985  17.336   6.353 -0.2026 -0.2261  0.3407
  884YOPE   GL113097   5.223  17.319   6.660  0.0432 -0.0283  0.0609
  884YOPE   GL213098   5.435  17.577   6.727 -0.2590 -0.1570  0.2941
  884YOPE   C1A13099   5.153  17.193   7.129  0.1170  0.0299  0.1619
  884YOPE   D2A13100   5.165  17.007   7.536 -0.2863  0.1288 -0.0711
  884YOPE   C3A13101   5.393  17.123   7.928 -0.2264 -0.0100 -0.0118
  884YOPE   C4A13102   5.547  17.268   8.328 -0.0104  0.3047  0.2671
  884YOPE   C1B13103   5.577  17.678   7.063 -0.1570  0.3052  0.0045
  884YOPE   C2B13104   5.974  17.598   7.408  0.2316  0.0189  0.3664
  884YOPE   D3B13105   6.114  17.604   7.832 -0.1084 -0.3462 -0.2478
  884YOPE   C4B13106   6.086  17.544   8.218  0.0091  0.0926  0.1675
  885YOPE   NH313107   8.690   4.852   6.064 -0.0371 -0.1384  0.1046
  885YOPE   PO413108   9.112   4.704   6.266  0.0201 -0.3627 -0.1681
  885YOPE   GL113109   9.165   4.795   6.688 -0.1913  0.0877  0.0093
  885YOPE   GL213110   9.319   4.516   6.807  0.1095 -0.1181  0.0626
  885YOPE   C1A13111   8.777   4.711   6.938  0.0294 -0.0104  0.1214
  885YOPE   D2A13112   8.567   4.658   7.313  0.1052 -0.1390 -0.0300
  885YOPE   C3A13113   8.800   4.649   7.717  0.1500  0.3140  0.0091
  885YOPE   C4A13114   9.012   4.616   8.148 -0.0599  0.0436 -0.2714
  885YOPE   C1B13115   9.203   4.752   7.188  0.0808 -0.0565 -0.2212
  885YOPE   C2B13116   9.036   4.999   7.489 -0.1349  0.2047 -0.2476
  885YOPE   D3B13117   8.887   5.103   7.980  0.0505 -0.2680  0.2068
  885YOPE   C4B13118   8.668   4.963   8.379  0.0868 -0.1995 -0.3441
  886YOPE   NH313119   1.779   8.489   5.232  0.1904 -0.3196 -0.2045
  886YOPE   PO413120   2.126   8.433   5.552 -0.2549  0.1900 -0.0259
  886YOPE   GL113121   2.321   8.459   6.033  0.3500  0.0707 -0.1081
  886YOPE   GL213122   2.180   8.652   6.244 -0.0950 -0.2179  0.0332
  886YOPE   C1A13123   2.311   8.105   6.375 -0.2749  0.1381  0.0410
  886YOPE   D2A13124   2.103   8.130   6.781  0.0692  0.0236  0.3749
  886YOPE   C3A13125   1.993   7.975   7.154 -0.1443 -0.1185  0.1073
  886YOPE   C4A13126   2.239   7.837   7.563  0.2076 -0.1590  0.0499
  886YOPE   C1B13127   2.304   8.621   6.630 -0.1121  0.0317 -0.0957
  886YOPE   C2B13128   2.387   8.657   6.995  0.0093  0.4218  0.0452
  886YOPE   D3B13129   2.452   8.839   7.348 -0.4073  0.1658 -0.4683
  886YOPE   C4B13130   2.529   8.968   7.776 -0.0062 -0.1513 -0.2219
  887YOPE   NH313131   7.807  12.985   5.978  0.1318 -0.1875 -0.1324
  887YOPE   PO413132   7.889  12.693   6.091  0.2222  0.0142  0.0507
  887YOPE   GL113133   7.611  12.538   6.232 -0.1289 -0.0391 -0.1609
  887YOPE   GL213134   7.650  12.251   6.365  0.0971 -0.1086 -0.0168
  887YOPE   C1A13135   7.275  12.455   6.608  0.2324 -0.2191 -0.2328
  887YOPE   D2A13136   7.279  12.606   7.004 -0.1807  0.1486 -0.2517
  887YOPE   C3A13137   7.197  12.406   7.416 -0.1959 -0.0585 -0.1391
  887YOPE   C4A13138   7.202  12.147   7.733  0.0759 -0.1159 -0.5657
  887YOPE   C1B13139   7.712  12.354   6.877  0.2274  0.1701  0.1869
  887YOPE   C2B13140   7.724  12.315   7.281 -0.2479 -0.2663  0.2677
  887YOPE   D3B13141   7.716  12.161   7.656  0.1030  0.0561 -0.2405
  887YOPE   C4B13142   7.758  12.237   8.106  0.1469 -0.0718 -0.1886
  888YOPE   NH313143  17.067   0.757   6.506 -0.0129 -0.0925 -0.0063
  888YOPE   PO413144  17.243   1.172   6.537 -0.2733 -0.1096 -0.0729
  888YOPE   GL113145  17.436   0.972   6.861 -0.0338  0.0643  0.2026
  888YOPE   GL213146  17.759   0.897   6.822  0.0538 -0.0084 -0.1950
  888YOPE   C1A13147  17.348   0.737   7.406  0.1352 -0.0149  0.0559
  888YOPE   D2A13148  17.285   0.661   7.853  0.1402 -0.1760 -0.4280
  888YOPE   C3A13149  17.226   0.871   8.240 -0.2689  0.1346 -0.0094
  888YOPE   C4A13150  17.097   1.171   8.537 -0.0575  0.0551  0.3871
  888YOPE   C1B13151  17.823   0.724   7.209  0.2532  0.1220  0.1608
  888YOPE   C2B13152  17.820   0.601   7.680 -0.0514 -0.2721  0.3296
  888YOPE   D3B13153  17.768   0.243   7.858 -0.0949  0.0295  0.0902
  888YOPE   C4B13154  17.765  -0.008   8.172  0.0832  0.1725  0.1555
  889YOPE   NH313155   3.890   9.714   5.379 -0.1858 -0.1013 -0.1944
  889YOPE   PO413156   3.937   9.941   5.723  0.0953  0.0301 -0.1413
  889YOPE   GL113157   3.844   9.912   6.128 -0.1306  0.0167  0.0628
  889YOPE   GL213158   3.523   9.972   6.079 -0.1607  0.0258  0.1387
  889YOPE   C1A13159   4.033  10.018   6.520  0.1716  0.0738  0.3295
  889YOPE   D2A13160   4.116   9.867   7.009  0.1256 -0.0894 -0.0331
  889YOPE   C3A13161   4.062   9.996   7.441 -0.1690  0.3112  0.0314
  889YOPE   C4A13162   3.747  10.061   7.742  0.1152 -0.2526  0.3199
  889YOPE   C1B13163   3.428   9.989   6.563  0.2989 -0.0476  0.1019
  889YOPE   C2B13164   3.337  10.090   6.924  0.1205  0.1725 -0.0213
  889YOPE   D3B13165   3.632  10.169   7.230  0.2658  0.2733  0.1631
  889YOPE   C4B13166   3.902  10.463   7.424 -0.1261 -0.1198 -0.2095
  890YOPE   NH313167  15.588   2.217   6.546 -0.0576 -0.0859 -0.2105
  890YOPE   PO413168  15.487   2.657   6.257 -0.0145 -0.1958 -0.0264
  890YOPE   GL113169  15.257   2.593   6.728  0.1001  0.0785  0.1038
  890YOPE   GL213170  15.038   2.960   6.776 -0.2177  0.0592  0.0185
  890YOPE   C1A13171  15.174   2.557   7.193 -0.0885 -0.3292 -0.2120
  890YOPE   D2A13172  15.235   2.565   7.649  0.3537 -0.0201  0.1194
  890YOPE   C3A13173  14.937   2.380   7.980 -0.0490  0.1815 -0.0441
  890YOPE   C4A13174  14.769   2.282   8.351  0.0753 -0.1879  0.0714
  890YOPE   C1B13175  15.363   3.116   7.133  0.0714 -0.2860  0.1205
  890YOPE   C2B13176  15.294   3.063   7.600  0.2262 -0.0173 -0.0046
  890YOPE   D3B13177  15.431   3.162   8.060  0.0361  0.1149  0.3073
  890YOPE   C4B13178  15.509   2.956   8.455 -0.0976 -0.0408  0.2088
  891YOPE   NH313179   6.907   8.986   6.142 -0.4586  0.1948 -0.0554
  891YOPE   PO413180   7.356   9.074   6.252 -0.0521 -0.1109 -0.0400
  891YOPE   GL113181   7.299   9.194   6.635 -0.1593  0.0681  0.0874
  891YOPE   GL213182   7.129   9.424   6.660 -0.3158  0.4816  0.1547
  891YOPE   C1A13183   7.348   9.101   7.047  0.0747 -0.0432 -0.0121
  891YOPE   D2A13184   7.211   9.201   7.504 -0.2046 -0.1070 -0.2949
  891YOPE   C3A13185   7.230   9.147   7.918  0.1830 -0.0591 -0.1597
  891YOPE   C4A13186   7.054   9.054   8.305 -0.0117 -0.2027 -0.1934
  891YOPE   C1B13187   6.971   9.467   7.044 -0.1975  0.1381  0.2602
  891YOPE   C2B13188   6.834   9.482   7.538 -0.1082  0.0306  0.0879
  891YOPE   D3B13189   6.619   9.702   7.678 -0.1795 -0.0695 -0.2359
  891YOPE   C4B13190   6.214   9.963   7.745 -0.2875  0.0567 -0.0981
  892YOPE   NH313191  11.896  16.924   5.796  0.1401  0.0814 -0.2025
  892YOPE   PO413192  11.488  17.084   5.832 -0.4586 -0.1003  0.0385
  892YOPE   GL113193  11.383  16.910   6.104 -0.0024  0.2983  0.2283
  892YOPE   GL213194  11.496  16.933   6.455 -0.0263 -0.0718  0.0953
  892YOPE   C1A13195  10.937  16.776   6.258 -0.0543 -0.0585 -0.1422
  892YOPE   D2A13196  10.659  16.716   6.591 -0.1823  0.1670  0.1159
  892YOPE   C3A13197  10.638  16.335   6.692 -0.0842  0.3028  0.1633
  892YOPE   C4A13198  10.726  16.040   6.412  0.0604  0.0175  0.1479
  892YOPE   C1B13199  11.568  17.006   6.830 -0.0037  0.0722 -0.2322
  892YOPE   C2B13200  11.569  17.115   7.214  0.2309  0.1425 -0.0259
  892YOPE   D3B13201  11.453  17.402   7.574 -0.1495 -0.5865  0.0621
  892YOPE   C4B13202  11.888  17.664   7.764 -0.1590 -0.0548 -0.0750
  893YOPE   NH313203   3.088   0.130   5.876  0.0918  0.1294 -0.0277
  893YOPE   PO413204   3.429   0.245   6.094  0.0185 -0.2697 -0.2013
  893YOPE   GL113205   3.344   0.163   6.499  0.1379 -0.1629  0.0346
  893YOPE   GL213206   3.701   0.305   6.553  0.0041 -0.1391 -0.0711
  893YOPE   C1A13207   3.157   0.258   7.019  0.1490  0.3484  0.0191
  893YOPE   D2A13208   3.127   0.282   7.553 -0.2583  0.1287  0.0641
  893YOPE   C3A13209   3.321   0.147   7.891 -0.1109  0.1020  0.1034
  893YOPE   C4A13210   3.281   0.335   8.348  0.1774  0.1290  0.4343
  893YOPE   C1B13211   4.076   0.133   6.862  0.1479  0.1571 -0.2772
  893YOPE   C2B13212   4.032   0.085   7.334  0.3247  0.3488 -0.0138
  893YOPE   D3B13213   4.198   0.232   7.655 -0.4095 -0.4058  0.0840
  893YOPE   C4B13214   4.160   0.261   8.103 -0.1172  0.1291 -0.0838
  894YOPE   NH313215   9.690   9.940   5.755  0.0915 -0.1639  0.1116
  894YOPE   PO413216  10.007   9.806   5.698  0.1545 -0.0149  0.1124
  894YOPE   GL113217  10.084  10.114   6.024  0.1227 -0.0169  0.2246
  894YOPE   GL213218  10.252   9.943   6.164 -0.0407  0.0270 -0.2383
  894YOPE   C1A13219  10.072  10.330   6.464  0.2711 -0.0325  0.0303
  894YOPE   D2A13220  10.138  10.280   6.939  0.1854  0.2131 -0.1558
  894YOPE   C3A13221  10.029  10.064   7.319 -0.0869 -0.1628 -0.2656
  894YOPE   C4A13222   9.746   9.824   7.548  0.2981 -0.1820  0.1666
  894YOPE   C1B13223  10.329   9.883   6.640 -0.2428  0.2035  0.2201
  894YOPE   C2B13224  10.428   9.767   7.060 -0.0818 -0.0732 -0.0538
  894YOPE   D3B13225  10.634   9.546   7.501  0.2233 -0.2001 -0.1898
  894YOPE   C4B13226  10.697   9.399   7.953 -0.0268  0.2757  0.1700
  895YOPE   NH313227   9.382   9.164   5.976 -0.3053 -0.1563  0.1439
  895YOPE   PO413228   9.491   8.735   6.064 -0.1078 -0.0684 -0.0820
  895YOPE   GL113229   9.109   8.755   6.346 -0.1215 -0.1285 -0.1115
  895YOPE   GL213230   8.933   9.090   6.344  0.2485  0.1069 -0.1498
  895YOPE   C1A13231   8.799   8.448   6.505  0.2034 -0.0031  0.1434
  895YOPE   D2A13232   8.847   8.173   6.958  0.0113  0.3548 -0.2696
  895YOPE   C3A13233   9.186   7.909   6.969  0.0871  0.0624  0.2163
  895YOPE   C4A13234   9.530   7.785   6.717  0.0555  0.0200  0.0308
  895YOPE   C1B13235   9.061   9.063   6.720  0.1125 -0.2203  0.1774
  895YOPE   C2B13236   9.099   9.101   7.191  0.2607  0.1075  0.3308
  895YOPE   D3B13237   9.151   9.327   7.590 -0.0188  0.2324 -0.0140
  895YOPE   C4B13238   9.016   9.453   7.933  0.2273  0.0694 -0.2767
  896YOPE   NH313239   5.602  10.021   6.030 -0.3723  0.0414 -0.2656
  896YOPE   PO413240   5.750  10.461   6.054  0.0135  0.1213  0.0305
  896YOPE   GL113241   5.619  10.413   6.508 -0.1008 -0.0403  0.1881
  896YOPE   GL213242   5.263  10.157   6.522  0.1613 -0.1252  0.0696
  896YOPE   C1A13243   5.652  10.212   6.871  0.1862 -0.0824  0.0064
  896YOPE   D2A13244   5.570   9.943   7.239 -0.1025 -0.0831  0.3017
  896YOPE   C3A13245   5.674  10.119   7.621  0.3583  0.0442 -0.1753
  896YOPE   C4A13246   5.815  10.327   8.039  0.0622  0.0363  0.0500
  896YOPE   C1B13247   5.268  10.476   6.915  0.1230  0.1309 -0.0664
  896YOPE   C2B13248   5.373  10.404   7.327  0.1480 -0.0990  0.1389
  896YOPE   D3B13249   5.315  10.644   7.692  0.0869  0.0380 -0.1483
  896YOPE   C4B13250   5.341  10.662   8.147 -0.0008  0.1930  0.0993
  897YOPE   NH313251  13.493  10.565   5.934 -0.0092  0.1585 -0.0633
  897YOPE   PO413252  13.845  10.881   5.991  0.1574  0.0312  0.1490
  897YOPE   GL113253  13.933  11.055   6.431  0.1650 -0.2372 -0.0723
  897YOPE   GL213254  14.237  11.063   6.630  0.2354 -0.2772 -0.0167
  897YOPE   C1A13255  13.690  11.045   6.875  0.0205 -0.0082 -0.2721
  897YOPE   D2A13256  13.573  11.035   7.347  0.3189  0.1993 -0.0861
  897YOPE   C3A13257  13.487  10.645   7.636  0.0220  0.1825 -0.0795
  897YOPE   C4A13258  13.442  10.193   7.869 -0.1338  0.0116  0.0897
  897YOPE   C1B13259  14.087  11.372   6.961 -0.0187  0.0322  0.1545
  897YOPE   C2B13260  14.075  11.529   7.332  0.1297  0.3678  0.2063
  897YOPE   D3B13261  13.925  11.365   7.670  0.4359 -0.1263  0.0848
  897YOPE   C4B13262  13.857  11.293   8.101  0.1928  0.1424  0.0649
  898YOPE   NH313263  13.325   5.517   6.398 -0.2724 -0.1826  0.0610
  898YOPE   PO413264  13.722   5.565   6.428  0.3864 -0.0925 -0.1300
  898YOPE   GL113265  13.695   5.686   6.816 -0.0725  0.0281 -0.0902
  898YOPE   GL213266  13.262   5.744   6.848  0.2278 -0.1689  0.1865
  898YOPE   C1A13267  13.707   5.849   7.259  0.2386 -0.1397 -0.5141
  898YOPE   D2A13268  13.770   5.803   7.638 -0.1295 -0.1289  0.0329
  898YOPE   C3A13269  13.549   5.661   7.942 -0.1286 -0.0980 -0.0896
  898YOPE   C4A13270  13.470   5.419   8.308 -0.1346  0.2043 -0.0050
  898YOPE   C1B13271  13.114   5.910   7.204  0.0458  0.0856  0.1324
  898YOPE   C2B13272  13.372   6.140   7.554 -0.2754 -0.0324  0.0302
  898YOPE   D3B13273  13.384   6.147   8.012 -0.0067 -0.1717  0.1380
  898YOPE   C4B13274  13.459   6.199   8.452 -0.1198 -0.0474  0.1299
  899YOPE   NH313275   2.747   2.328   6.186 -0.1185 -0.0066 -0.1839
  899YOPE   PO413276   3.175   2.223   6.173 -0.1887 -0.0086 -0.1510
  899YOPE   GL113277   2.977   2.421   6.612  0.0504 -0.0323  0.0614
  899YOPE   GL213278   2.660   2.160   6.620  0.1715  0.0675 -0.0840
  899YOPE   C1A13279   2.960   2.756   6.836 -0.2393 -0.0712  0.0203
  899YOPE   D2A13280   3.104   3.180   6.978 -0.0593 -0.1827  0.0672
  899YOPE   C3A13281   3.196   3.345   7.417  0.1507 -0.1177 -0.2224
  899YOPE   C4A13282   3.076   3.457   7.836 -0.1820 -0.0781  0.0250
  899YOPE   C1B13283   2.686   2.356   7.103  0.0934  0.1362  0.1371
  899YOPE   C2B13284   2.676   2.448   7.450 -0.0403  0.1703  0.2995
  899YOPE   D3B13285   2.942   2.192   7.753  0.0162 -0.1191 -0.1107
  899YOPE   C4B13286   3.261   2.241   8.030  0.0730  0.0608 -0.3048
  900YOPE   NH313287   4.932   0.008   6.379 -0.1481 -0.5091 -0.0179
  900YOPE   PO413288   4.773   0.344   6.302 -0.0696  0.4161  0.2361
  900YOPE   GL113289   4.835   0.365   6.706  0.1845 -0.3872  0.0510
  900YOPE   GL213290   5.008   0.016   6.879 -0.1253  0.0002  0.0746
  900YOPE   C1A13291   5.045   0.489   7.130  0.0689 -0.0745  0.1900
  900YOPE   D2A13292   5.171   0.281   7.451 -0.2786  0.3570 -0.0282
  900YOPE   C3A13293   5.023   0.263   7.925  0.0050 -0.2342  0.0131
  900YOPE   C4A13294   4.760   0.168   8.222  0.0729 -0.1861 -0.1307
  900YOPE   C1B13295   5.091  -0.161   7.187 -0.2617 -0.0831 -0.0452
  900YOPE   C2B13296   5.123  -0.294   7.657  0.1567  0.2058 -0.2773
  900YOPE   D3B13297   5.148  -0.209   8.097  0.0288  0.2326  0.1149
  900YOPE   C4B13298   5.280   0.231   8.337  0.0700 -0.0989  0.1782
  901YOPE   NH313299  10.696   4.445   6.323 -0.0025 -0.0845 -0.1835
  901YOPE   PO413300  11.092   4.457   5.955  0.0342 -0.2231 -0.0467
  901YOPE   GL113301  11.305   4.548   6.361 -0.1145  0.1772  0.0767
  901YOPE   GL213302  11.044   4.793   6.562 -0.1664 -0.0270  0.0377
  901YOPE   C1A13303  11.235   4.308   6.713  0.0728  0.0551  0.1358
  901YOPE   D2A13304  11.053   4.225   7.074 -0.1094 -0.2647  0.1102
  901YOPE   C3A13305  11.066   4.429   7.414  0.0019 -0.2570 -0.3615
  901YOPE   C4A13306  10.983   4.577   7.763  0.0180  0.0034  0.2293
  901YOPE   C1B13307  10.995   4.728   6.958 -0.0096  0.1476 -0.2406
  901YOPE   C2B13308  10.813   4.840   7.356  0.1922 -0.0891 -0.2441
  901YOPE   D3B13309  10.704   5.047   7.791  0.1483 -0.0658 -0.0211
  901YOPE   C4B13310  10.434   5.240   8.172 -0.1357 -0.1468  0.2746
  902YOPE   NH313311   7.301  12.554   5.774  0.1093  0.1323  0.0351
  902YOPE   PO413312   7.368  13.013   5.844  0.0443  0.0823 -0.0791
  902YOPE   GL113313   7.442  12.996   6.292 -0.1056  0.1489  0.0123
  902YOPE   GL213314   7.713  12.877   6.561  0.1358  0.2516  0.1639
  902YOPE   C1A13315   7.279  12.997   6.679 -0.2142 -0.2969 -0.0504
  902YOPE   D2A13316   7.200  13.137   7.003  0.1836  0.3234 -0.0957
  902YOPE   C3A13317   7.312  13.132   7.299  0.2256  0.2843 -0.0474
  902YOPE   C4A13318   7.168  12.906   7.602 -0.1996  0.1398 -0.0914
  902YOPE   C1B13319   7.700  12.931   6.975  0.1380 -0.2663  0.2127
  902YOPE   C2B13320   7.657  12.775   7.458 -0.0023  0.0685  0.1546
  902YOPE   D3B13321   7.476  12.570   7.880 -0.1446 -0.2615  0.0659
  902YOPE   C4B13322   7.233  12.363   8.198 -0.3151 -0.0965  0.0768
  903YOPE   NH313323   9.383  15.605   5.940 -0.0386 -0.0669  0.2450
  903YOPE   PO413324   8.985  15.472   6.068  0.0671  0.0302  0.0367
  903YOPE   GL113325   9.015  15.620   6.455 -0.1273  0.2535  0.0932
  903YOPE   GL213326   8.660  15.529   6.484  0.0182 -0.3485  0.1943
  903YOPE   C1A13327   9.163  15.387   6.685  0.1246  0.0530  0.5874
  903YOPE   D2A13328   9.072  15.195   7.095 -0.1845 -0.2039  0.0155
  903YOPE   C3A13329   9.293  15.255   7.506  0.2283 -0.2181  0.1659
  903YOPE   C4A13330   9.392  15.362   7.906  0.4397  0.2181 -0.1032
  903YOPE   C1B13331   8.784  15.636   6.951 -0.1296  0.0080 -0.1369
  903YOPE   C2B13332   8.795  15.499   7.341  0.0603 -0.4444 -0.0638
  903YOPE   D3B13333   8.842  15.535   7.802 -0.1024 -0.1260  0.1163
  903YOPE   C4B13334   8.956  15.191   8.098  0.0336 -0.0474  0.1222
  904YOPE   NH313335  15.678  13.996   5.587 -0.0711  0.2061 -0.1981
  904YOPE   PO413336  15.201  14.006   5.775 -0.1267 -0.1834 -0.1151
  904YOPE   GL113337  15.220  13.846   6.179  0.1052  0.1589 -0.0672
  904YOPE   GL213338  15.066  13.979   6.398 -0.0540  0.2376 -0.0361
  904YOPE   C1A13339  15.476  13.778   6.677 -0.0135  0.1114  0.1855
  904YOPE   D2A13340  15.599  13.421   6.914 -0.0784  0.0202 -0.2097
  904YOPE   C3A13341  15.636  13.488   7.334  0.0122  0.2498 -0.0020
  904YOPE   C4A13342  15.810  13.573   7.794 -0.0637  0.0967  0.3851
  904YOPE   C1B13343  14.934  13.951   6.864 -0.1352  0.2760 -0.1691
  904YOPE   C2B13344  14.791  13.918   7.307 -0.0584  0.2032 -0.2829
  904YOPE   D3B13345  14.918  14.113   7.691 -0.1113 -0.1663  0.1561
  904YOPE   C4B13346  14.843  14.493   7.982  0.0858  0.1640  0.0293
  905YOPE   NH313347  14.683  10.698   6.316 -0.0278 -0.1602 -0.2941
  905YOPE   PO413348  15.056  10.974   6.344 -0.1900  0.0236  0.0050
  905YOPE   GL113349  14.980  11.192   6.813 -0.1379 -0.0838 -0.0497
  905YOPE   GL213350  14.670  11.159   6.910  0.1127 -0.2014  0.2238
  905YOPE   C1A13351  15.065  11.406   7.141  0.1958  0.0724 -0.5009
  905YOPE   D2A13352  15.355  11.265   7.560  0.1365 -0.1780 -0.0216
  905YOPE   C3A13353  15.348  11.291   7.959 -0.1497  0.0028  0.0507
  905YOPE   C4A13354  15.177  11.113   8.333 -0.1857 -0.0730 -0.1341
  905YOPE   C1B13355  14.564  11.175   7.288 -0.1264 -0.1604  0.1205
  905YOPE   C2B13356  14.512  11.172   7.619  0.0670 -0.3274 -0.1966
  905YOPE   D3B13357  14.295  11.060   7.997 -0.2526  0.0178  0.1137
  905YOPE   C4B13358  14.043  10.830   8.236 -0.1876 -0.1611 -0.0929
  906YOPE   NH313359   8.382  16.588   5.773  0.2094 -0.1979 -0.1348
  906YOPE   PO413360   8.605  16.291   5.963  0.2314  0.3245 -0.2248
  906YOPE   GL113361   8.400  16.034   6.338 -0.0846  0.3717 -0.1017
  906YOPE   GL213362   8.148  16.082   6.375  0.1359  0.2699  0.1385
  906YOPE   C1A13363   8.312  15.829   6.793 -0.1232  0.0049  0.2380
  906YOPE   D2A13364   8.394  15.886   7.196  0.2997 -0.2242  0.3084
  906YOPE   C3A13365   8.326  15.638   7.589  0.2470 -0.0339 -0.1045
  906YOPE   C4A13366   8.439  15.202   7.799 -0.0366 -0.0848  0.0067
  906YOPE   C1B13367   7.929  16.096   6.639 -0.0092  0.0720  0.1094
  906YOPE   C2B13368   7.892  15.878   7.070  0.1767 -0.2342  0.4310
  906YOPE   D3B13369   7.831  15.573   7.399 -0.2550 -0.1676  0.0875
  906YOPE   C4B13370   7.534  15.360   7.497  0.0080 -0.1013  0.0513
  907YOPE   NH313371   0.416   9.165   5.589 -0.1996 -0.0479  0.0473
  907YOPE   PO413372   0.094   8.836   5.777  0.0667  0.1703 -0.1300
  907YOPE   GL113373  -0.106   8.782   6.160  0.2305  0.0097  0.0761
  907YOPE   GL213374  -0.388   8.558   6.179  0.3485 -0.3692  0.3542
  907YOPE   C1A13375  -0.168   8.803   6.679 -0.4097 -0.2819  0.2625
  907YOPE   D2A13376  -0.101   8.656   7.095  0.2110  0.1109  0.0206
  907YOPE   C3A13377  -0.337   8.649   7.493  0.1471 -0.0930  0.1532
  907YOPE   C4A13378  -0.389   8.558   7.907  0.1694  0.2320  0.0335
  907YOPE   C1B13379  -0.647   8.607   6.497 -0.0919 -0.0154  0.3095
  907YOPE   C2B13380  -0.602   8.674   6.942 -0.0409 -0.1082 -0.1650
  907YOPE   D3B13381  -0.832   8.706   7.237  0.0315 -0.0345 -0.0540
  907YOPE   C4B13382  -1.146   8.495   7.565 -0.0377  0.0147 -0.0666
  908YOPE   NH313383   6.400  12.602   5.909  0.0347 -0.0870  0.1176
  908YOPE   PO413384   6.057  12.620   5.554 -0.0566  0.1500 -0.3241
  908YOPE   GL113385   5.859  12.491   6.089 -0.0765  0.3731  0.0206
  908YOPE   GL213386   6.011  12.721   6.291  0.2541 -0.0317  0.0192
  908YOPE   C1A13387   5.808  12.084   6.285  0.0061  0.1173 -0.0694
  908YOPE   D2A13388   5.628  11.811   6.330 -0.2238 -0.2072  0.0700
  908YOPE   C3A13389   5.596  11.750   6.760 -0.2408 -0.2147  0.1250
  908YOPE   C4A13390   5.872  11.952   6.902  0.0878  0.0852 -0.2302
  908YOPE   C1B13391   6.205  12.618   6.668  0.0436  0.1673  0.2724
  908YOPE   C2B13392   6.444  12.715   6.894 -0.1538  0.0276  0.0705
  908YOPE   D3B13393   6.466  12.567   7.282  0.2061 -0.1167 -0.0512
  908YOPE   C4B13394   6.132  12.456   7.554  0.3895  0.0196 -0.1045
  909YOPE   NH313395   0.003   0.544   6.092  0.1320 -0.3710  0.0254
  909YOPE   PO413396  -0.265   0.799   6.316  0.0255 -0.1806  0.0960
  909YOPE   GL113397  -0.289   0.505   6.585  0.2686 -0.0946  0.0423
  909YOPE   GL213398  -0.519   0.477   6.832  0.0195 -0.1137  0.0486
  909YOPE   C1A13399  -0.065   0.308   6.828  0.0236 -0.0902 -0.0488
  909YOPE   D2A13400  -0.143   0.266   7.267 -0.3118  0.0659 -0.1502
  909YOPE   C3A13401  -0.445   0.256   7.559 -0.1525 -0.2318 -0.0664
  909YOPE   C4A13402  -0.501   0.152   8.003 -0.1596 -0.1685  0.0116
  909YOPE   C1B13403  -0.738   0.357   7.209  0.2539 -0.0775 -0.0426
  909YOPE   C2B13404  -1.027   0.104   7.447 -0.1677  0.0780 -0.0547
  909YOPE   D3B13405  -1.094  -0.268   7.410  0.0393 -0.1157  0.0009
  909YOPE   C4B13406  -0.943  -0.625   7.486 -0.0361 -0.0912 -0.2647
  910YOPE   NH313407  10.180   5.621   6.062 -0.0133 -0.1424 -0.0040
  910YOPE   PO413408  10.346   6.040   6.111  0.1107 -0.0440 -0.1788
  910YOPE   GL113409  10.346   6.187   6.545 -0.2471  0.0694 -0.1019
  910YOPE   GL213410  10.580   6.269   6.584 -0.0692 -0.3301  0.2196
  910YOPE   C1A13411  10.336   6.078   7.014 -0.0922 -0.0006 -0.2447
  910YOPE   D2A13412  10.170   5.881   7.359 -0.1138 -0.0880  0.3359
  910YOPE   C3A13413   9.883   5.884   7.697 -0.0520  0.2386  0.2938
  910YOPE   C4A13414   9.796   5.505   7.679  0.0622 -0.2360 -0.0511
  910YOPE   C1B13415  10.805   6.089   6.944 -0.1096 -0.1086  0.0388
  910YOPE   C2B13416  10.830   5.797   7.332 -0.1830 -0.0524  0.0222
  910YOPE   D3B13417  10.748   5.643   7.707  0.1047 -0.0928  0.3433
  910YOPE   C4B13418  10.790   5.537   8.053 -0.2996  0.2137 -0.2998
  911YOPE   NH313419   7.317  15.442   6.177 -0.1607 -0.1344  0.0073
  911YOPE   PO413420   7.327  15.006   6.010 -0.1345  0.1846 -0.0035
  911YOPE   GL113421   7.540  14.634   6.195 -0.4208 -0.0278 -0.0789
  911YOPE   GL213422   7.395  14.299   6.302 -0.2260 -0.2682 -0.0832
  911YOPE   C1A13423   7.810  14.363   6.529  0.1598 -0.2009  0.2077
  911YOPE   D2A13424   7.768  14.429   7.004  0.1768 -0.0122  0.0328
  911YOPE   C3A13425   7.838  14.318   7.387 -0.3014 -0.1736  0.1185
  911YOPE   C4A13426   7.912  14.454   7.811 -0.2375 -0.2489 -0.2241
  911YOPE   C1B13427   7.447  14.111   6.800  0.0763 -0.0440  0.0357
  911YOPE   C2B13428   7.490  13.898   7.236  0.2667 -0.0487  0.0861
  911YOPE   D3B13429   7.431  13.824   7.687 -0.1477 -0.1225  0.0951
  911YOPE   C4B13430   7.381  13.950   8.154  0.0777 -0.0955 -0.3066
  912YOPE   NH313431   8.685   1.964   6.389 -0.4735  0.0433 -0.0041
  912YOPE   PO413432   8.598   2.331   6.153  0.0728 -0.0537 -0.1672
  912YOPE   GL113433   8.634   2.305   6.715 -0.2247  0.0276 -0.0164
  912YOPE   GL213434   8.796   2.651   6.817 -0.2354  0.0229  0.0816
  912YOPE   C1A13435   8.744   2.301   7.225 -0.2279 -0.0574 -0.0193
  912YOPE   D2A13436   8.842   2.384   7.584 -0.1593  0.1318  0.2011
  912YOPE   C3A13437   8.882   2.134   7.865 -0.0101 -0.1994 -0.0071
  912YOPE   C4A13438   9.014   2.037   8.185 -0.1528  0.3805 -0.2548
  912YOPE   C1B13439   8.429   2.698   7.205  0.0126 -0.0726 -0.1895
  912YOPE   C2B13440   8.552   2.839   7.649  0.3934 -0.0457 -0.2907
  912YOPE   D3B13441   8.615   2.676   8.024  0.0094 -0.0621 -0.3133
  912YOPE   C4B13442   8.708   2.393   8.303 -0.1297 -0.0135 -0.0609
  913YOPE   NH313443   0.092  13.946   5.371 -0.0979 -0.0419  0.4103
  913YOPE   PO413444  -0.057  13.556   5.338 -0.0011  0.4557 -0.0777
  913YOPE   GL113445  -0.085  13.552   5.678  0.0811  0.0054 -0.0138
  913YOPE   GL213446   0.223  13.603   5.745  0.2693  0.1224  0.1144
  913YOPE   C1A13447  -0.303  13.670   5.990  0.3896 -0.3856  0.1998
  913YOPE   D2A13448  -0.683  13.869   6.224 -0.2152 -0.0155 -0.0880
  913YOPE   C3A13449  -0.539  14.051   6.609  0.0456  0.0554  0.4033
  913YOPE   C4A13450  -0.251  14.349   6.797 -0.0154 -0.0427 -0.2942
  913YOPE   C1B13451   0.240  13.556   6.122 -0.2998  0.1634  0.1108
  913YOPE   C2B13452   0.369  13.525   6.571  0.4415  0.1482  0.1235
  913YOPE   D3B13453   0.251  13.486   6.975  0.3579 -0.4431 -0.0184
  913YOPE   C4B13454   0.149  13.652   7.442 -0.0300  0.2978  0.1025
  914YOPE   NH313455   9.625   5.120   5.655  0.0677  0.0474 -0.1977
  914YOPE   PO413456  10.020   5.142   5.900 -0.1824 -0.1472 -0.0527
  914YOPE   GL113457  10.096   5.234   6.340  0.0251  0.1313 -0.1652
  914YOPE   GL213458   9.872   5.389   6.437  0.0653  0.1590 -0.0371
  914YOPE   C1A13459  10.107   5.072   6.774 -0.2573  0.2284  0.1289
  914YOPE   D2A13460   9.764   4.790   6.947  0.1504 -0.0216  0.0287
  914YOPE   C3A13461   9.610   4.688   7.427 -0.1337 -0.2832 -0.0289
  914YOPE   C4A13462   9.287   4.525   7.649  0.0797 -0.2047  0.0581
  914YOPE   C1B13463   9.914   5.657   6.837 -0.0513 -0.0838 -0.0031
  914YOPE   C2B13464   9.846   5.543   7.180  0.2780 -0.1225  0.2666
  914YOPE   D3B13465   9.912   5.091   7.286  0.1336 -0.1180  0.0206
  914YOPE   C4B13466  10.074   4.932   7.667  0.1075 -0.1181 -0.2076
  915YOPE   NH313467   0.600  16.771   5.860 -0.1765  0.4804 -0.0030
  915YOPE   PO413468   0.187  16.882   5.922 -0.2069 -0.1450 -0.0401
  915YOPE   GL113469   0.029  16.981   6.348 -0.2877 -0.2864  0.1421
  915YOPE   GL213470  -0.163  16.739   6.354  0.2782 -0.0231 -0.4903
  915YOPE   C1A13471   0.050  16.815   6.852 -0.2529 -0.0200 -0.2098
  915YOPE   D2A13472  -0.286  16.734   7.094  0.3196 -0.2055  0.1124
  915YOPE   C3A13473  -0.237  16.683   7.562  0.2023 -0.0467 -0.1478
  915YOPE   C4A13474  -0.121  16.615   8.006  0.1135 -0.2375 -0.0751
  915YOPE   C1B13475  -0.340  16.439   6.695  0.1182  0.2698  0.1353
  915YOPE   C2B13476  -0.308  16.240   7.089  0.1845 -0.1900 -0.0755
  915YOPE   D3B13477  -0.483  16.266   7.514 -0.0750  0.3719 -0.3398
  915YOPE   C4B13478  -0.474  15.997   7.925 -0.0250 -0.0260 -0.5384
  916YOPE   NH313479   7.340   9.573   6.217 -0.0302 -0.0328 -0.2002
  916YOPE   PO413480   7.698   9.332   5.847  0.4406 -0.1512 -0.1000
  916YOPE   GL113481   7.819   9.455   6.390  0.2165 -0.0695 -0.2389
  916YOPE   GL213482   8.050   9.672   6.575 -0.2543  0.1899  0.0905
  916YOPE   C1A13483   7.741   9.355   6.826 -0.0600 -0.0345  0.1288
  916YOPE   D2A13484   7.685   9.408   7.299  0.2330  0.1319 -0.1243
  916YOPE   C3A13485   7.737   9.185   7.639 -0.1361  0.3305  0.0624
  916YOPE   C4A13486   7.800   9.236   8.108  0.2945  0.1245  0.1627
  916YOPE   C1B13487   8.309   9.794   6.767 -0.0419 -0.0873 -0.1374
  916YOPE   C2B13488   8.357  10.090   7.102  0.0040  0.0074 -0.0636
  916YOPE   D3B13489   8.440   9.980   7.428 -0.1871 -0.0853 -0.1752
  916YOPE   C4B13490   8.591   9.833   7.916 -0.1481  0.0948  0.0699
  917YOPE   NH313491  10.260  16.000   5.903 -0.2317  0.2546 -0.0338
  917YOPE   PO413492  10.638  15.953   5.748  0.0403 -0.2679  0.1393
  917YOPE   GL113493  10.995  16.064   6.000 -0.1212  0.0575  0.0430
  917YOPE   GL213494  11.151  15.779   6.279  0.2283 -0.1093  0.0323
  917YOPE   C1A13495  11.174  16.248   6.291  0.2122 -0.0932 -0.0170
  917YOPE   D2A13496  11.129  16.515   6.661  0.1257  0.1696 -0.0419
  917YOPE   C3A13497  11.316  16.582   7.126 -0.2396 -0.1354  0.1948
  917YOPE   C4A13498  11.683  16.702   7.445 -0.1097 -0.0124 -0.0486
  917YOPE   C1B13499  11.180  15.962   6.700  0.0400 -0.0666 -0.0287
  917YOPE   C2B13500  10.991  16.188   7.085 -0.1865 -0.1524  0.1510
  917YOPE   D3B13501  10.868  16.345   7.465 -0.2025 -0.3424  0.1563
  917YOPE   C4B13502  11.188  16.528   7.723  0.0641 -0.1941  0.0546
  918YOPE   NH313503  13.712  11.401   6.079 -0.0954 -0.1572  0.1464
  918YOPE   PO413504  13.360  11.138   5.888 -0.0123 -0.0570 -0.3318
  918YOPE   GL113505  13.384  10.957   6.238  0.1635  0.1727 -0.1702
  918YOPE   GL213506  13.455  11.192   6.447 -0.1348  0.1726 -0.2953
  918YOPE   C1A13507  13.289  10.767   6.627 -0.0974 -0.1856  0.2366
  918YOPE   D2A13508  13.283  10.744   7.074 -0.3735  0.0778 -0.0368
  918YOPE   C3A13509  13.200  10.439   7.319  0.1921  0.3093  0.2494
  918YOPE   C4A13510  12.987  10.447   7.678 -0.0908 -0.1206  0.2489
  918YOPE   C1B13511  13.233  11.244   6.887  0.2825 -0.0113  0.4407
  918YOPE   C2B13512  13.058  11.150   7.216 -0.0084  0.0062  0.0301
  918YOPE   D3B13513  13.044  10.951   7.494  0.0862  0.2852 -0.0461
  918YOPE   C4B13514  13.021  10.901   7.997 -0.1823  0.1102  0.1990
  919YOPE   NH313515  17.009   8.412   5.874  0.1346  0.1342  0.0876
  919YOPE   PO413516  17.301   8.160   5.970 -0.2388  0.1313 -0.1114
  919YOPE   GL113517  17.118   8.065   6.342  0.1530 -0.3379  0.1290
  919YOPE   GL213518  17.139   7.745   6.400  0.1276 -0.1316  0.1747
  919YOPE   C1A13519  16.878   8.235   6.755 -0.0380 -0.1215  0.1716
  919YOPE   D2A13520  16.666   8.361   7.080 -0.0390  0.0811 -0.0810
  919YOPE   C3A13521  16.313   8.506   7.154 -0.1515  0.1567 -0.1509
  919YOPE   C4A13522  15.987   8.398   7.417  0.0827 -0.0856 -0.0432
  919YOPE   C1B13523  17.287   7.909   6.755 -0.0894 -0.0650 -0.1308
  919YOPE   C2B13524  17.307   7.810   7.216  0.2445  0.4116  0.2054
  919YOPE   D3B13525  17.327   7.686   7.641  0.0726  0.0529 -0.0824
  919YOPE   C4B13526  17.363   7.728   7.983  0.1670 -0.1630 -0.2417
  920YOPE   NH313527  15.296   0.578   6.538  0.0867 -0.2607 -0.0005
  920YOPE   PO413528  15.301   1.048   6.522  0.1847 -0.1626  0.1212
  920YOPE   GL113529  15.511   0.946   6.856  0.1461 -0.0816  0.2342
  920YOPE   GL213530  15.307   0.852   6.989 -0.0221  0.1824  0.0963
  920YOPE   C1A13531  15.608   1.063   7.275  0.0068 -0.1951 -0.0381
  920YOPE   D2A13532  15.499   1.207   7.583  0.1642 -0.1803 -0.3433
  920YOPE   C3A13533  15.661   1.132   8.019  0.0375  0.1724 -0.1134
  920YOPE   C4A13534  15.697   1.290   8.449  0.0524  0.0639  0.0810
  920YOPE   C1B13535  15.083   0.916   7.326  0.1061 -0.0280 -0.3215
  920YOPE   C2B13536  14.956   0.967   7.715  0.1512 -0.0704 -0.1134
  920YOPE   D3B13537  15.165   1.123   7.995 -0.1068 -0.0796  0.3207
  920YOPE   C4B13538  15.285   1.433   8.209 -0.0086 -0.1038  0.2981
  921YOPE   NH313539   5.582  14.399   5.999 -0.2466  0.0260  0.3888
  921YOPE   PO413540   5.490  13.969   5.954  0.2788  0.0741 -0.0358
  921YOPE   GL113541   5.465  13.945   6.318  0.3052 -0.0955 -0.0159
  921YOPE   GL213542   5.482  14.241   6.452  0.2858  0.3593  0.3670
  921YOPE   C1A13543   5.658  13.810   6.706 -0.0605 -0.1690  0.1067
  921YOPE   D2A13544   5.688  13.725   7.190  0.1574 -0.0646  0.0867
  921YOPE   C3A13545   5.982  14.059   7.340 -0.2536 -0.0091  0.1979
  921YOPE   C4A13546   6.015  14.316   7.591 -0.2199  0.1346  0.2629
  921YOPE   C1B13547   5.449  14.320   6.881 -0.1132 -0.1010  0.1552
  921YOPE   C2B13548   5.504  14.241   7.280  0.0684  0.1506 -0.1310
  921YOPE   D3B13549   5.592  13.973   7.662  0.0922  0.0029 -0.0121
  921YOPE   C4B13550   6.004  13.907   7.888 -0.0353 -0.1719 -0.4496
  922YOPE   NH313551  12.690   5.064   6.030 -0.2772  0.1259  0.3619
  922YOPE   PO413552  13.088   5.058   6.232  0.2778 -0.1067  0.2196
  922YOPE   GL113553  13.216   5.073   6.613  0.1961  0.0404 -0.0269
  922YOPE   GL213554  13.454   5.244   6.788 -0.1972  0.0240  0.1359
  922YOPE   C1A13555  12.972   4.963   6.968  0.0729 -0.1440 -0.0455
  922YOPE   D2A13556  12.839   4.688   7.300  0.2417 -0.1875 -0.4278
  922YOPE   C3A13557  13.162   4.609   7.670 -0.1818 -0.0101 -0.0582
  922YOPE   C4A13558  13.037   4.491   8.103  0.1299  0.0847  0.2012
  922YOPE   C1B13559  13.337   5.396   7.168 -0.0527  0.1142  0.1016
  922YOPE   C2B13560  13.341   5.551   7.503  0.0761 -0.0796 -0.1891
  922YOPE   D3B13561  13.098   5.786   7.785  0.0811 -0.1447 -0.0362
  922YOPE   C4B13562  13.083   5.744   8.177 -0.0961  0.1870 -0.0903
  923YOPE   NH313563  12.931   9.572   6.287 -0.0132  0.0926  0.2276
  923YOPE   PO413564  13.315   9.724   6.220  0.1597  0.1053  0.2339
  923YOPE   GL113565  13.291   9.699   6.603 -0.0592  0.0488 -0.4552
  923YOPE   GL213566  12.870   9.651   6.787  0.2218  0.1527  0.3099
  923YOPE   C1A13567  13.343   9.510   6.977  0.2434  0.3403 -0.0127
  923YOPE   D2A13568  13.186   9.493   7.426 -0.2027  0.0569  0.1019
  923YOPE   C3A13569  13.458   9.529   7.640 -0.2948 -0.0921 -0.0274
  923YOPE   C4A13570  13.671   9.449   7.960 -0.3725  0.0340  0.1394
  923YOPE   C1B13571  12.719   9.668   7.271 -0.0241  0.0078  0.0770
  923YOPE   C2B13572  12.752   9.530   7.723 -0.0587 -0.0328 -0.1126
  923YOPE   D3B13573  13.122   9.539   8.006 -0.2819  0.0428 -0.0638
  923YOPE   C4B13574  13.374   9.796   8.209  0.0664 -0.2112 -0.0990
  924YOPE   NH313575  10.675  13.712   5.871 -0.3830  0.2387 -0.0927
  924YOPE   PO413576  11.046  13.601   5.904  0.0033  0.0276 -0.0351
  924YOPE   GL113577  10.904  13.808   6.364  0.1684 -0.1008 -0.1007
  924YOPE   GL213578  11.174  13.768   6.646  0.0671 -0.2873 -0.2417
  924YOPE   C1A13579  10.606  13.867   6.683  0.1592  0.0126  0.2821
  924YOPE   D2A13580  10.625  13.929   7.094  0.0105 -0.1476  0.2071
  924YOPE   C3A13581  10.395  13.766   7.449 -0.2594  0.0396  0.1931
  924YOPE   C4A13582  10.312  13.667   7.892  0.4716  0.1316 -0.1411
  924YOPE   C1B13583  11.104  13.733   7.095 -0.1563  0.0761  0.0298
  924YOPE   C2B13584  10.981  13.616   7.468 -0.2236  0.1697  0.0704
  924YOPE   D3B13585  10.833  13.637   7.863  0.1020  0.0710  0.4328
  924YOPE   C4B13586  10.853  13.537   8.257 -0.0834 -0.1724 -0.0739
  925YOPE   NH313587   3.743   3.620   6.236  0.2308 -0.1941 -0.0510
  925YOPE   PO413588   3.525   4.049   6.241 -0.1861  0.1055  0.0767
  925YOPE   GL113589   3.773   4.068   6.564  0.1256 -0.0815 -0.4131
  925YOPE   GL213590   4.012   4.082   6.410 -0.2144 -0.0069  0.0909
  925YOPE   C1A13591   3.753   3.921   6.987  0.5683 -0.4353 -0.1252
  925YOPE   D2A13592   3.708   4.127   7.345 -0.1616 -0.2240  0.0060
  925YOPE   C3A13593   3.969   4.038   7.821 -0.0195 -0.3396  0.1614
  925YOPE   C4A13594   3.780   4.299   8.131 -0.2080  0.0772 -0.0590
  925YOPE   C1B13595   4.206   3.969   6.795 -0.0217 -0.0406  0.1532
  925YOPE   C2B13596   4.206   4.052   7.171  0.1824 -0.1804  0.0580
  925YOPE   D3B13597   4.167   4.473   7.522 -0.0503  0.2199  0.2219
  925YOPE   C4B13598   4.170   4.761   7.796  0.1117  0.4393 -0.2283
  926YOPE   NH313599   5.393  15.418   6.024  0.0323 -0.1924  0.0560
  926YOPE   PO413600   5.510  14.893   5.888  0.0774 -0.2541  0.1132
  926YOPE   GL113601   5.598  14.839   6.305  0.4248 -0.2807  0.1922
  926YOPE   GL213602   5.473  15.143   6.491 -0.0959 -0.0703 -0.2728
  926YOPE   C1A13603   5.702  14.725   6.705 -0.0100  0.0032 -0.2596
  926YOPE   D2A13604   6.071  14.923   6.977 -0.1740  0.0219 -0.0904
  926YOPE   C3A13605   6.362  14.721   7.271 -0.3115  0.0427  0.2185
  926YOPE   C4A13606   6.569  14.446   7.646 -0.0046 -0.2320  0.1517
  926YOPE   C1B13607   5.308  15.311   6.792 -0.2150 -0.0816  0.2717
  926YOPE   C2B13608   5.085  15.236   7.073 -0.0489  0.1979 -0.0463
  926YOPE   D3B13609   4.999  15.085   7.484  0.1236 -0.3031 -0.2607
  926YOPE   C4B13610   4.786  14.800   7.714 -0.1625  0.0446 -0.0720
  927YOPE   NH313611  15.746   4.104   6.516 -0.1793 -0.0578 -0.1494
  927YOPE   PO413612  15.760   4.489   6.368  0.0753  0.2158 -0.1838
  927YOPE   GL113613  15.765   4.604   6.746 -0.1549  0.0224  0.0545
  927YOPE   GL213614  16.107   4.582   6.775 -0.0421  0.2446 -0.1870
  927YOPE   C1A13615  15.604   4.681   7.084  0.0143  0.0276  0.0396
  927YOPE   D2A13616  15.558   4.708   7.518  0.1931 -0.0882 -0.0995
  927YOPE   C3A13617  15.322   4.587   7.939 -0.0494  0.1342  0.0859
  927YOPE   C4A13618  14.957   4.436   8.010  0.0463 -0.2286 -0.0071
  927YOPE   C1B13619  16.147   4.585   7.190  0.2970  0.4620 -0.0188
  927YOPE   C2B13620  16.170   4.539   7.647  0.1328 -0.1799 -0.2172
  927YOPE   D3B13621  16.463   4.618   7.954 -0.0486  0.0333 -0.0223
  927YOPE   C4B13622  16.891   4.726   8.174  0.4274 -0.2733  0.1403
  928YOPE   NH313623  10.095  15.119   5.811 -0.1415 -0.0762  0.2013
  928YOPE   PO413624   9.847  14.699   5.950  0.1510 -0.3099  0.0247
  928YOPE   GL113625   9.842  14.945   6.240 -0.1279 -0.0825 -0.0210
  928YOPE   GL213626   9.821  15.284   6.193 -0.1887 -0.1299 -0.1376
  928YOPE   C1A13627   9.661  14.958   6.680 -0.1709  0.0123  0.1126
  928YOPE   D2A13628   9.656  14.991   7.115  0.4519 -0.0997  0.1970
  928YOPE   C3A13629   9.412  14.777   7.425  0.0312 -0.0376 -0.0751
  928YOPE   C4A13630   9.525  14.442   7.634  0.0322 -0.0993 -0.1571
  928YOPE   C1B13631   9.584  15.510   6.506  0.1063  0.1138  0.1624
  928YOPE   C2B13632   9.613  15.427   6.891 -0.1790  0.1631 -0.1627
  928YOPE   D3B13633   9.693  15.532   7.369 -0.2904  0.0429  0.1679
  928YOPE   C4B13634   9.712  15.744   7.776 -0.2248 -0.2919 -0.0424
  929YOPE   NH313635   3.974  12.764   5.608 -0.2052 -0.0998  0.1934
  929YOPE   PO413636   4.329  13.064   5.724 -0.0201  0.1473  0.1832
  929YOPE   GL113637   4.451  12.938   6.165 -0.0693 -0.2630 -0.4331
  929YOPE   GL213638   4.746  13.064   6.190  0.1695  0.0093  0.2651
  929YOPE   C1A13639   4.505  12.856   6.630  0.0844 -0.0209  0.1048
  929YOPE   D2A13640   4.753  12.868   6.990  0.1568 -0.0571  0.2231
  929YOPE   C3A13641   5.035  12.532   7.188  0.0113  0.2176 -0.1424
  929YOPE   C4A13642   5.262  12.412   7.576 -0.1819 -0.2226 -0.2427
  929YOPE   C1B13643   4.910  13.138   6.524  0.0275  0.2563 -0.0799
  929YOPE   C2B13644   5.014  13.274   6.896  0.1279  0.1169  0.2275
  929YOPE   D3B13645   4.803  13.407   7.239 -0.2534  0.0273 -0.1814
  929YOPE   C4B13646   4.923  13.451   7.613  0.3242 -0.2811  0.1722
  930YOPE   NH313647   8.247   3.991   5.876  0.2596  0.0507  0.1195
  930YOPE   PO413648   8.181   3.736   6.188 -0.2403 -0.0767  0.1043
  930YOPE   GL113649   7.941   3.664   6.548  0.0879 -0.2386 -0.4368
  930YOPE   GL213650   7.821   3.368   6.499  0.2649 -0.0070 -0.0742
  930YOPE   C1A13651   7.992   3.555   6.975  0.0501 -0.1188 -0.1924
  930YOPE   D2A13652   7.889   3.448   7.409 -0.3597  0.1457 -0.2206
  930YOPE   C3A13653   7.629   3.704   7.664  0.1246 -0.0270  0.0695
  930YOPE   C4A13654   7.638   3.917   7.941 -0.1814  0.1134  0.0862
  930YOPE   C1B13655   7.629   3.219   6.801  0.0274  0.1614 -0.2466
  930YOPE   C2B13656   7.554   3.202   7.188 -0.1443 -0.2590  0.1565
  930YOPE   D3B13657   7.572   3.165   7.641  0.2497 -0.0806 -0.2831
  930YOPE   C4B13658   7.587   2.877   7.963  0.0887  0.1542  0.1264
  931YOPE   NH313659   1.674   0.684   6.145 -0.0504  0.0397 -0.2339
  931YOPE   PO413660   2.048   1.048   6.143  0.2333  0.0551  0.1051
  931YOPE   GL113661   2.081   0.817   6.525 -0.1398  0.0617  0.0755
  931YOPE   GL213662   2.424   0.962   6.727 -0.0868  0.0873  0.0761
  931YOPE   C1A13663   1.964   0.704   6.823 -0.0834  0.2362  0.0775
  931YOPE   D2A13664   1.938   0.847   7.284 -0.0833 -0.1521  0.0059
  931YOPE   C3A13665   1.964   0.641   7.709 -0.1344 -0.0170  0.0600
  931YOPE   C4A13666   2.012   0.191   7.747 -0.0773  0.2871  0.0788
  931YOPE   C1B13667   2.434   0.924   7.190  0.3762  0.0071  0.2672
  931YOPE   C2B13668   2.334   0.946   7.620 -0.1677 -0.0909  0.2145
  931YOPE   D3B13669   2.134   0.987   8.025  0.3486  0.2618 -0.2502
  931YOPE   C4B13670   2.074   0.999   8.498  0.1694 -0.0864  0.0512
  932YOPE   NH313671   3.388   7.914   5.933 -0.2376 -0.2570 -0.1391
  932YOPE   PO413672   3.680   8.153   6.036 -0.0501  0.1824 -0.1591
  932YOPE   GL113673   3.755   8.298   6.433 -0.3126 -0.0561 -0.1544
  932YOPE   GL213674   3.973   8.539   6.476 -0.4803  0.3007  0.1509
  932YOPE   C1A13675   3.734   8.270   6.863  0.0929  0.2645  0.3249
  932YOPE   D2A13676   3.613   8.050   7.257 -0.1722  0.0420 -0.0056
  932YOPE   C3A13677   3.936   8.032   7.575  0.0209 -0.0501 -0.2054
  932YOPE   C4A13678   4.410   8.244   7.676  0.3172 -0.0014  0.1747
  932YOPE   C1B13679   4.174   8.887   6.514 -0.0342 -0.1314  0.2473
  932YOPE   C2B13680   4.201   9.150   6.873  0.1489 -0.0272  0.1097
  932YOPE   D3B13681   4.288   9.511   7.293 -0.3197 -0.1811 -0.5592
  932YOPE   C4B13682   4.572   9.850   7.600  0.0019 -0.0916 -0.5754
  933YOPE   NH313683   9.283   2.532   6.645  0.1764 -0.0224  0.1594
  933YOPE   PO413684   9.074   2.257   6.511  0.4446  0.1658 -0.0347
  933YOPE   GL113685   9.098   2.153   6.958 -0.1062 -0.1089 -0.0845
  933YOPE   GL213686   9.333   2.379   7.071 -0.2293 -0.2159 -0.0826
  933YOPE   C1A13687   9.135   1.938   7.376  0.1189 -0.1207 -0.1743
  933YOPE   D2A13688   9.155   1.697   7.714 -0.0701 -0.3048 -0.1115
  933YOPE   C3A13689   9.272   1.615   8.069  0.1110  0.3287  0.1971
  933YOPE   C4A13690   9.168   1.681   8.520 -0.0762 -0.2763  0.0205
  933YOPE   C1B13691   9.390   2.348   7.502  0.0917 -0.1781  0.0619
  933YOPE   C2B13692   9.491   2.141   7.901  0.0372 -0.1009 -0.0397
  933YOPE   D3B13693   9.525   2.009   8.256  0.0134 -0.1409 -0.0798
  933YOPE   C4B13694   9.581   1.930   8.714  0.0864  0.2132  0.2404
  934YOPE   NH313695  14.904   1.669   6.618 -0.0930 -0.1264  0.2462
  934YOPE   PO413696  14.720   1.309   6.494 -0.3717  0.0518  0.0594
  934YOPE   GL113697  14.692   1.211   6.810  0.0875  0.0778 -0.0172
  934YOPE   GL213698  14.786   0.836   6.896  0.1322 -0.2731 -0.1119
  934YOPE   C1A13699  14.603   1.189   7.317  0.1093  0.2740  0.1409
  934YOPE   D2A13700  14.425   1.114   7.815 -0.4193 -0.0038 -0.0835
  934YOPE   C3A13701  14.713   1.170   8.207 -0.1054  0.1089 -0.0976
  934YOPE   C4A13702  15.013   0.943   8.504  0.1329  0.0842  0.0094
  934YOPE   C1B13703  14.525   0.583   7.220 -0.0473  0.0418  0.2751
  934YOPE   C2B13704  14.541   0.651   7.650  0.0711 -0.1659 -0.2944
  934YOPE   D3B13705  14.497   0.666   8.049 -0.0437  0.0901 -0.1147
  934YOPE   C4B13706  14.468   0.772   8.461  0.1497  0.1315 -0.0005
  935YOPE   NH313707  10.920   7.159   6.273 -0.1358  0.1672 -0.3489
  935YOPE   PO413708  10.398   7.083   6.248  0.2349  0.2737  0.1967
  935YOPE   GL113709  10.551   7.115   6.595 -0.0019  0.0056  0.1081
  935YOPE   GL213710  10.671   6.790   6.629  0.0052  0.1561  0.1021
  935YOPE   C1A13711  10.536   7.099   7.035 -0.0663  0.0095 -0.0637
  935YOPE   D2A13712  10.516   6.784   7.431 -0.1110 -0.2023 -0.0374
  935YOPE   C3A13713  10.232   6.876   7.817 -0.2632 -0.1978 -0.2317
  935YOPE   C4A13714  10.108   6.895   8.238 -0.0862 -0.0965  0.0659
  935YOPE   C1B13715  10.478   6.554   6.995 -0.2022  0.1189 -0.1288
  935YOPE   C2B13716  10.617   6.275   7.356  0.3390  0.1199  0.1533
  935YOPE   D3B13717  10.517   6.051   7.693  0.0701 -0.2845 -0.1526
  935YOPE   C4B13718  10.428   6.027   8.071  0.1394 -0.1073  0.0173
  936YOPE   NH313719  12.593   1.204   5.768  0.1174 -0.1748  0.0164
  936YOPE   PO413720  12.469   1.576   5.738  0.1317  0.1257  0.3044
  936YOPE   GL113721  12.675   1.612   6.165 -0.0787 -0.0575  0.0132
  936YOPE   GL213722  12.755   1.283   6.298  0.3249  0.0232 -0.0622
  936YOPE   C1A13723  12.539   1.599   6.626 -0.1087  0.1063 -0.2655
  936YOPE   D2A13724  12.395   1.434   6.966  0.0238  0.1596  0.1945
  936YOPE   C3A13725  12.580   1.264   7.288 -0.4185  0.0305  0.0150
  936YOPE   C4A13726  12.980   1.434   7.328  0.0899  0.1974 -0.2150
  936YOPE   C1B13727  12.497   1.115   6.430 -0.3580  0.0188  0.2385
  936YOPE   C2B13728  12.432   0.670   6.653 -0.5300  0.4826  0.2379
  936YOPE   D3B13729  12.442   0.221   6.519 -0.0737  0.0040  0.0253
  936YOPE   C4B13730  12.509  -0.222   6.402 -0.1545  0.0475 -0.0421
  937YOPE   NH313731  14.845   3.691   6.302 -0.0437  0.4135 -0.0707
  937YOPE   PO413732  14.459   3.568   6.209 -0.1299  0.1013  0.1093
  937YOPE   GL113733  14.386   3.496   6.642  0.1702  0.4299  0.0667
  937YOPE   GL213734  14.388   3.788   6.718 -0.2268 -0.1222 -0.1100
  937YOPE   C1A13735  14.122   3.340   6.927  0.0250  0.2783  0.0761
  937YOPE   D2A13736  14.259   3.439   7.301  0.3780  0.0015  0.2341
  937YOPE   C3A13737  14.472   3.195   7.543  0.1688 -0.2112 -0.0701
  937YOPE   C4A13738  14.461   3.174   8.004  0.0009  0.1131 -0.3764
  937YOPE   C1B13739  14.623   3.764   7.078  0.1255 -0.1402  0.0137
  937YOPE   C2B13740  14.640   3.720   7.483  0.2304  0.0080 -0.1948
  937YOPE   D3B13741  14.469   3.691   7.859 -0.0085 -0.2608  0.4089
  937YOPE   C4B13742  14.655   3.963   8.141  0.1009  0.2573 -0.1011
  938YOPE   NH313743   0.782   5.036   6.366 -0.0377  0.0793  0.0233
  938YOPE   PO413744   1.038   4.738   6.039  0.2045  0.2592 -0.2074
  938YOPE   GL113745   1.070   4.647   6.547  0.2005 -0.0226  0.1259
  938YOPE   GL213746   1.290   4.279   6.626  0.0943 -0.1455 -0.0258
  938YOPE   C1A13747   1.275   4.709   6.975  0.1342  0.2446 -0.1353
  938YOPE   D2A13748   1.280   4.632   7.408  0.0977  0.0426  0.0779
  938YOPE   C3A13749   1.160   4.874   7.807 -0.1496  0.0318  0.4462
  938YOPE   C4A13750   0.935   4.898   8.202  0.1605  0.0597 -0.2499
  938YOPE   C1B13751   1.209   4.205   7.022 -0.1018 -0.0061  0.1850
  938YOPE   C2B13752   1.166   3.989   7.415 -0.0936  0.1526 -0.0590
  938YOPE   D3B13753   1.258   3.893   7.946  0.1321  0.0469  0.0577
  938YOPE   C4B13754   1.174   3.828   8.359 -0.1083 -0.1330 -0.1400
  939YOPE   NH313755  11.948   1.408   5.695  0.3504  0.0913 -0.0061
  939YOPE   PO413756  12.158   1.028   5.548  0.2931  0.0590  0.0703
  939YOPE   GL113757  12.321   0.771   5.913  0.1816 -0.2296  0.2855
  939YOPE   GL213758  12.120   0.771   6.213 -0.0226  0.2420 -0.2385
  939YOPE   C1A13759  12.588   0.573   6.205  0.0618 -0.2805  0.1350
  939YOPE   D2A13760  12.908   0.746   6.520  0.0863 -0.3113 -0.0904
  939YOPE   C3A13761  12.789   1.095   6.802 -0.1356  0.4129 -0.1146
  939YOPE   C4A13762  12.969   1.433   6.859  0.0479  0.0188 -0.3906
  939YOPE   C1B13763  11.985   0.901   6.625 -0.2250  0.0346 -0.1829
  939YOPE   C2B13764  11.822   0.720   7.051  0.0053 -0.0294  0.1390
  939YOPE   D3B13765  11.818   0.498   7.435  0.0123 -0.0194 -0.1738
  939YOPE   C4B13766  12.055   0.274   7.672  0.0622 -0.0609  0.0021
  940YOPE   NH313767  15.981   7.160   6.108 -0.0215  0.2755 -0.1051
  940YOPE   PO413768  16.255   7.487   6.148  0.3802  0.1322 -0.0099
  940YOPE   GL113769  16.373   7.550   6.607  0.2368  0.4605  0.1046
  940YOPE   GL213770  16.604   7.749   6.578 -0.4300  0.0539 -0.0743
  940YOPE   C1A13771  16.394   7.473   7.128  0.0555 -0.4608 -0.4685
  940YOPE   D2A13772  16.425   7.487   7.542 -0.1198  0.0850  0.1248
  940YOPE   C3A13773  16.125   7.145   7.675 -0.1419 -0.0150 -0.1190
  940YOPE   C4A13774  16.118   7.085   8.040  0.0819  0.2280  0.0680
  940YOPE   C1B13775  16.818   7.832   6.998 -0.0762 -0.4783  0.0787
  940YOPE   C2B13776  16.815   7.817   7.397 -0.1657 -0.0446  0.0681
  940YOPE   D3B13777  16.844   7.661   7.852 -0.1082 -0.2205 -0.2162
  940YOPE   C4B13778  16.928   7.818   8.259 -0.2710  0.0651  0.0592
  941POPC   NC313779  17.451   8.976   5.728 -0.0117 -0.0275  0.1995
  941POPC   PO413780  17.085   8.861   5.858 -0.1763  0.1004 -0.0846
  941POPC   GL113781  16.843   9.123   6.189 -0.0366  0.1705 -0.1220
  941POPC   GL213782  16.898   9.409   6.228 -0.2020 -0.1220  0.0587
  941POPC   C1A13783  16.656   9.274   6.629  0.2199  0.1149  0.1239
  941POPC   D2A13784  16.721   9.436   7.000  0.0749 -0.1677  0.1574
  941POPC   C3A13785  16.636   9.776   7.206  0.0393 -0.2537 -0.0235
  941POPC   C4A13786  16.322  10.099   6.985  0.4577 -0.0571  0.0223
  941POPC   C1B13787  17.297   9.700   6.411 -0.0425  0.2484 -0.3545
  941POPC   C2B13788  17.641   9.819   6.690 -0.3093  0.0421  0.2207
  941POPC   C3B13789  17.859  10.083   6.943 -0.2758 -0.2288 -0.1337
  941POPC   C4B13790  17.909   9.942   7.419 -0.2824 -0.2297  0.0860
  942POPC   NC313791  14.215  12.490   5.772  0.0470 -0.0660 -0.0484
  942POPC   PO413792  14.364  12.096   5.811 -0.2365  0.2279  0.1548
  942POPC   GL113793  14.441  12.202   6.226  0.0990 -0.3010  0.2840
  942POPC   GL213794  14.402  12.501   6.222 -0.0330  0.0983 -0.1574
  942POPC   C1A13795  14.476  12.219   6.726 -0.1078 -0.0576  0.0786
  942POPC   D2A13796  14.494  12.131   7.152 -0.1331 -0.0749 -0.2460
  942POPC   C3A13797  14.869  11.962   7.126 -0.1100  0.0754 -0.3280
  942POPC   C4A13798  15.161  11.810   6.778  0.1181 -0.3246  0.0563
  942POPC   C1B13799  14.775  12.593   6.482 -0.0578  0.1336  0.1468
  942POPC   C2B13800  14.918  12.453   6.950  0.0175 -0.0909 -0.0033
  942POPC   C3B13801  15.054  12.395   7.360 -0.0691  0.1416  0.0015
  942POPC   C4B13802  15.022  12.685   7.669 -0.1883 -0.0023 -0.3000
  943POPC   NC313803   7.055  11.977   5.623  0.0060  0.0185  0.0474
  943POPC   PO413804   6.848  12.342   5.769  0.1072  0.0498  0.0963
  943POPC   GL113805   6.642  12.237   6.163  0.1427 -0.2070  0.2425
  943POPC   GL213806   6.379  11.931   6.231 -0.1880  0.3934 -0.2050
  943POPC   C1A13807   6.778  12.181   6.564  0.0352  0.2512  0.3684
  943POPC   D2A13808   6.836  12.340   6.988  0.0487  0.3412 -0.0548
  943POPC   C3A13809   6.723  12.132   7.408 -0.2716  0.0505 -0.2263
  943POPC   C4A13810   6.491  12.009   7.696  0.1190 -0.0312  0.1273
  943POPC   C1B13811   6.292  12.042   6.547  0.2689 -0.1457  0.1484
  943POPC   C2B13812   6.349  12.174   6.995  0.2918  0.1908 -0.2742
  943POPC   C3B13813   6.121  12.016   7.345  0.1684 -0.3544 -0.0539
  943POPC   C4B13814   5.994  11.740   7.647  0.1144 -0.1307 -0.3308
  944POPC   NC313815   2.286   8.919   5.825  0.1159 -0.1997 -0.1179
  944POPC   PO413816   1.925   8.848   5.644  0.3051  0.2489 -0.2876
  944POPC   GL113817   1.868   9.096   6.021  0.1971  0.1649 -0.1608
  944POPC   GL213818   1.867   9.341   6.125 -0.1190  0.0267  0.2173
  944POPC   C1A13819   2.029   9.051   6.501 -0.0286  0.0031 -0.0541
  944POPC   D2A13820   2.189   9.095   6.909 -0.0261 -0.0379  0.0225
  944POPC   C3A13821   2.050   9.009   7.149  0.0021 -0.2875  0.1739
  944POPC   C4A13822   2.043   9.172   7.545  0.0780  0.3851 -0.1059
  944POPC   C1B13823   1.789   9.533   6.528 -0.2593 -0.1100  0.1061
  944POPC   C2B13824   1.787   9.564   6.926 -0.2658  0.0984  0.1042
  944POPC   C3B13825   1.973   9.540   7.247  0.1308 -0.2003  0.3043
  944POPC   C4B13826   2.185   9.658   7.744  0.2175 -0.0262 -0.4639
  945POPC   NC313827  11.484   7.065   6.252 -0.0555  0.0835  0.3558
  945POPC   PO413828  11.971   7.020   6.181 -0.0435  0.3349  0.4039
  945POPC   GL113829  11.924   7.368   6.465 -0.3221  0.0194 -0.2188
  945POPC   GL213830  12.177   7.595   6.599 -0.1091  0.1680  0.2924
  945POPC   C1A13831  12.020   7.358   6.972 -0.1552  0.0790 -0.2280
  945POPC   D2A13832  12.042   7.279   7.390 -0.2011 -0.1423  0.0114
  945POPC   C3A13833  11.884   7.483   7.624  0.2609 -0.0245  0.0590
  945POPC   C4A13834  11.662   7.608   7.987  0.2523 -0.1058  0.1830
  945POPC   C1B13835  12.333   7.801   6.887 -0.0413 -0.1079 -0.1654
  945POPC   C2B13836  12.778   7.934   6.902  0.1634 -0.0910 -0.0330
  945POPC   C3B13837  13.070   8.051   7.201 -0.0230  0.0238 -0.0189
  945POPC   C4B13838  13.091   8.064   7.710  0.0188 -0.1311  0.0174
  946POPC   NC313839   9.833   5.953   5.904 -0.1367 -0.2704  0.3000
  946POPC   PO413840   9.518   6.046   6.191 -0.0107 -0.1469  0.1717
  946POPC   GL113841   9.321   6.138   6.598  0.2291 -0.0067 -0.1187
  946POPC   GL213842   9.520   5.950   6.719 -0.0586 -0.4250  0.1499
  946POPC   C1A13843   8.978   6.080   6.853 -0.3747  0.1087  0.4179
  946POPC   D2A13844   8.970   5.941   7.306 -0.0584  0.1924 -0.3644
  946POPC   C3A13845   8.882   6.027   7.734  0.2374 -0.0002 -0.4332
  946POPC   C4A13846   8.793   6.187   8.115  0.1861 -0.0735 -0.0696
  946POPC   C1B13847   9.309   5.713   6.978 -0.0552 -0.1137 -0.2058
  946POPC   C2B13848   9.369   5.727   7.548 -0.4050 -0.1870  0.0677
  946POPC   C3B13849   9.345   5.914   7.960  0.1356 -0.0121 -0.0090
  946POPC   C4B13850   9.608   6.053   8.346  0.0630  0.0511  0.1168
  947POPC   NC313851   2.169   9.404   5.701  0.2248 -0.3274 -0.1364
  947POPC   PO413852   2.616   9.277   5.672 -0.2106  0.1807  0.2356
  947POPC   GL113853   2.850   9.210   5.964  0.1246 -0.0843  0.0273
  947POPC   GL213854   2.721   8.901   6.064 -0.4528  0.0535 -0.1412
  947POPC   C1A13855   2.896   9.385   6.409 -0.4290  0.4365 -0.1245
  947POPC   D2A13856   3.265   9.351   6.657 -0.1486  0.0872  0.3171
  947POPC   C3A13857   3.250   9.109   7.003 -0.1545 -0.0758 -0.3250
  947POPC   C4A13858   2.894   9.076   7.353  0.1199 -0.3200  0.2328
  947POPC   C1B13859   2.570   9.051   6.491 -0.1882 -0.2390  0.0615
  947POPC   C2B13860   2.646   9.189   6.900 -0.3125 -0.0330 -0.3359
  947POPC   C3B13861   2.499   9.332   7.389  0.0763 -0.0292 -0.0028
  947POPC   C4B13862   2.652   9.467   7.723  0.4569 -0.2448 -0.1078
  948POPC   NC313863   7.288   6.482   6.228  0.1849  0.2049 -0.2753
  948POPC   PO413864   7.665   6.569   6.159 -0.0467  0.4033  0.1672
  948POPC   GL113865   7.746   6.414   6.517 -0.1757 -0.1883 -0.2582
  948POPC   GL213866   8.032   6.359   6.517 -0.1870 -0.2422 -0.2210
  948POPC   C1A13867   7.616   6.335   6.984 -0.1237 -0.4686  0.1237
  948POPC   D2A13868   7.658   6.239   7.493 -0.2951 -0.2278 -0.2517
  948POPC   C3A13869   7.438   6.361   7.933  0.3351  0.0676  0.3637
  948POPC   C4A13870   7.256   6.455   8.363  0.3919  0.0086 -0.0105
  948POPC   C1B13871   8.098   6.501   6.897  0.1057  0.0670  0.0923
  948POPC   C2B13872   8.125   6.519   7.382 -0.0074 -0.2182  0.1410
  948POPC   C3B13873   8.008   6.457   7.860  0.0130 -0.1269 -0.0568
  948POPC   C4B13874   7.780   6.538   8.269  0.1253 -0.4334 -0.0070
  949POPC   NC313875  11.397   3.220   6.076 -0.1334  0.0181  0.2275
  949POPC   PO413876  11.320   3.678   6.196 -0.1054 -0.2141  0.1583
  949POPC   GL113877  11.694   3.612   6.425 -0.0441 -0.0658  0.0240
  949POPC   GL213878  11.611   3.831   6.572 -0.2118  0.2824 -0.0011
  949POPC   C1A13879  11.826   3.404   6.833 -0.4117  0.0305  0.2684
  949POPC   D2A13880  12.207   3.245   7.126  0.2112 -0.0888  0.0996
  949POPC   C3A13881  12.083   2.998   7.459  0.2622 -0.1922  0.1775
  949POPC   C4A13882  11.947   2.923   7.828  0.0103 -0.1405 -0.0937
  949POPC   C1B13883  11.970   3.865   6.819  0.2262 -0.1091 -0.0887
  949POPC   C2B13884  11.881   3.597   7.280 -0.2561  0.0769  0.1789
  949POPC   C3B13885  11.952   3.497   7.680  0.0802  0.1300 -0.0308
  949POPC   C4B13886  12.181   3.319   8.007  0.0320 -0.3713 -0.0610
  950POPC   NC313887  17.523   2.453   6.456  0.2744 -0.1268 -0.0012
  950POPC   PO413888  17.030   2.542   6.539 -0.1274 -0.0475 -0.0347
  950POPC   GL113889  17.132   2.755   6.937 -0.0134 -0.0751 -0.0486
  950POPC   GL213890  17.100   3.080   6.976  0.0675  0.1669 -0.1146
  950POPC   C1A13891  17.165   2.756   7.441 -0.0848 -0.3986 -0.0063
  950POPC   D2A13892  17.263   3.196   7.710 -0.1683 -0.2844  0.2129
  950POPC   C3A13893  17.227   3.331   8.161 -0.2207  0.0286  0.1380
  950POPC   C4A13894  17.103   3.477   8.535  0.1317 -0.2435 -0.1634
  950POPC   C1B13895  17.389   3.373   7.210 -0.3214 -0.1930 -0.0955
  950POPC   C2B13896  17.517   3.640   7.513 -0.0377 -0.3303 -0.5052
  950POPC   C3B13897  17.542   3.596   7.887  0.1922 -0.2553  0.1328
  950POPC   C4B13898  17.516   3.761   8.371  0.0044 -0.0616  0.2137
  951POPC   NC313899  15.412  16.196   6.075 -0.0735  0.0953 -0.0987
  951POPC   PO413900  15.540  15.786   5.935 -0.0208  0.1186  0.0029
  951POPC   GL113901  15.782  15.936   6.341 -0.2455  0.3191  0.0300
  951POPC   GL213902  15.606  16.239   6.522  0.1791 -0.0977 -0.0329
  951POPC   C1A13903  15.617  15.710   6.688  0.2109 -0.2033  0.1263
  951POPC   D2A13904  15.648  15.634   7.194 -0.3513  0.1544  0.0649
  951POPC   C3A13905  15.396  15.513   7.647 -0.0566 -0.0109  0.0559
  951POPC   C4A13906  15.194  15.692   8.038  0.0100  0.0909  0.1534
  951POPC   C1B13907  15.440  16.150   6.921  0.1491  0.0020 -0.1436
  951POPC   C2B13908  15.494  16.392   7.334 -0.1374 -0.1383 -0.0313
  951POPC   C3B13909  15.776  16.451   7.732 -0.0084  0.0585  0.0515
  951POPC   C4B13910  16.016  16.407   8.094  0.3710 -0.0642 -0.1062
  952POPC   NC313911   4.434   2.893   6.238 -0.1893  0.0405  0.1645
  952POPC   PO413912   4.615   3.360   6.295 -0.0175 -0.1789 -0.1212
  952POPC   GL113913   4.582   3.259   6.687  0.0809 -0.0386  0.1250
  952POPC   GL213914   4.638   3.340   6.910 -0.1716  0.0263 -0.0072
  952POPC   C1A13915   4.281   3.563   7.078 -0.4827  0.4520 -0.0199
  952POPC   D2A13916   4.206   3.672   7.505 -0.1720 -0.1882  0.2269
  952POPC   C3A13917   4.090   3.335   7.853 -0.1732 -0.0978  0.1938
  952POPC   C4A13918   4.218   2.964   7.973  0.1239 -0.1323  0.1830
  952POPC   C1B13919   4.519   3.238   7.335  0.2860 -0.2466 -0.0434
  952POPC   C2B13920   4.617   3.214   7.775  0.4142  0.0627 -0.1465
  952POPC   C3B13921   4.460   3.386   8.291  0.0205  0.1832  0.2907
  952POPC   C4B13922   4.283   3.163   8.671  0.0502  0.2173  0.1477
  953POPC   NC313923  10.792  15.445   5.588 -0.1279  0.1862 -0.0118
  953POPC   PO413924  10.590  15.041   5.785 -0.0315 -0.0766 -0.0309
  953POPC   GL113925  10.670  15.115   6.223 -0.1962  0.1331 -0.2117
  953POPC   GL213926  10.317  15.143   6.281  0.0077 -0.4562 -0.0756
  953POPC   C1A13927  10.628  15.083   6.688 -0.2230  0.0302 -0.1376
  953POPC   D2A13928  10.574  15.185   7.054 -0.1280 -0.2410  0.1168
  953POPC   C3A13929  10.547  14.914   7.311 -0.0883 -0.0340 -0.1184
  953POPC   C4A13930  10.464  14.940   7.687  0.0100  0.1604  0.0581
  953POPC   C1B13931  10.215  14.926   6.664  0.1880  0.0122  0.0142
  953POPC   C2B13932  10.122  14.888   7.009 -0.1312  0.0425 -0.3461
  953POPC   C3B13933  10.055  15.049   7.378  0.0858  0.2174 -0.0031
  953POPC   C4B13934   9.799  14.947   7.765 -0.0339  0.3931  0.0662
  954POPC   NC313935   5.916  13.711   5.440 -0.3011  0.0019 -0.2597
  954POPC   PO413936   5.846  13.189   5.502  0.2154 -0.1796 -0.1441
  954POPC   GL113937   5.723  13.060   5.949  0.1994  0.1895 -0.1772
  954POPC   GL213938   6.061  13.149   6.128  0.0944  0.1469 -0.3046
  954POPC   C1A13939   5.682  13.146   6.438  0.0280 -0.0109 -0.2023
  954POPC   D2A13940   5.790  12.881   6.796  0.0039  0.0553  0.0566
  954POPC   C3A13941   5.998  12.943   7.154  0.0054  0.1210  0.1192
  954POPC   C4A13942   5.791  13.218   7.339 -0.2578 -0.2556  0.1040
  954POPC   C1B13943   5.995  13.536   6.443 -0.1814  0.0638  0.1410
  954POPC   C2B13944   5.979  13.967   6.362 -0.3854  0.3731 -0.1003
  954POPC   C3B13945   5.934  14.263   6.731 -0.1412  0.1211  0.0117
  954POPC   C4B13946   5.878  14.515   7.146  0.1602 -0.0966 -0.2979
  955POPC   NC313947   5.783   8.617   6.055  0.3392  0.2130  0.1211
  955POPC   PO413948   6.124   8.734   6.127  0.0080  0.2275 -0.3033
  955POPC   GL113949   5.944   8.910   6.458 -0.1093 -0.4472 -0.1579
  955POPC   GL213950   6.108   9.146   6.584  0.1792 -0.1642  0.1214
  955POPC   C1A13951   5.651   9.138   6.731  0.2130 -0.1925 -0.0394
  955POPC   D2A13952   5.629   9.137   7.116 -0.0282  0.1560  0.1530
  955POPC   C3A13953   5.839   9.435   7.252 -0.1036 -0.1380  0.0539
  955POPC   C4A13954   5.818   9.680   7.695  0.0676  0.3029 -0.0635
  955POPC   C1B13955   6.073   9.036   7.013 -0.0163 -0.3285  0.0990
  955POPC   C2B13956   6.194   8.834   7.335  0.1110  0.1089  0.0028
  955POPC   C3B13957   6.364   8.585   7.653  0.0849  0.0774  0.1445
  955POPC   C4B13958   6.257   8.344   7.975 -0.2298  0.0952 -0.1160
  956POPC   NC313959   9.649   0.324   5.852  0.1516  0.1319 -0.1355
  956POPC   PO413960   9.410   0.609   6.172  0.0672 -0.3303 -0.1734
  956POPC   GL113961   9.681   0.383   6.419  0.1681 -0.1035 -0.2021
  956POPC   GL213962   9.429   0.402   6.726 -0.1065  0.0235  0.0166
  956POPC   C1A13963   9.937   0.307   6.819  0.0527 -0.0078  0.0848
  956POPC   D2A13964  10.081   0.166   7.184  0.1864  0.0397 -0.0061
  956POPC   C3A13965  10.094   0.345   7.613  0.0627  0.0407 -0.0712
  956POPC   C4A13966  10.387   0.484   7.847  0.1259  0.0544 -0.0561
  956POPC   C1B13967   9.211   0.101   6.980 -0.0525  0.3270 -0.4338
  956POPC   C2B13968   9.156   0.042   7.371  0.1627  0.0618 -0.1911
  956POPC   C3B13969   9.084   0.390   7.714  0.0535 -0.3743  0.0802
  956POPC   C4B13970   9.101   0.731   7.931 -0.0182 -0.1673 -0.1870
  957POPC   NC313971  11.610  15.505   6.061 -0.1246  0.0581  0.0566
  957POPC   PO413972  11.615  15.985   5.933  0.0596 -0.0537  0.2796
  957POPC   GL113973  11.830  15.973   6.240 -0.0909 -0.1038  0.1649
  957POPC   GL213974  11.670  15.707   6.487 -0.0432 -0.1139 -0.4430
  957POPC   C1A13975  12.120  16.110   6.345  0.0223  0.2305 -0.3263
  957POPC   D2A13976  12.512  16.219   6.542 -0.1071  0.1319  0.4240
  957POPC   C3A13977  12.620  16.198   6.880 -0.1465 -0.0017  0.0975
  957POPC   C4A13978  12.453  16.307   7.272  0.0988 -0.1081  0.1485
  957POPC   C1B13979  11.560  15.705   6.932  0.1046 -0.1618  0.2553
  957POPC   C2B13980  11.673  15.787   7.327 -0.1495 -0.1444  0.0686
  957POPC   C3B13981  11.765  15.892   7.742 -0.0908 -0.1420 -0.0589
  957POPC   C4B13982  12.068  16.101   8.071 -0.0321  0.0661 -0.1556
  958POPC   NC313983  16.310   5.640   6.195 -0.0907 -0.0085  0.0788
  958POPC   PO413984  15.901   5.457   6.348  0.0035 -0.0438  0.1174
  958POPC   GL113985  16.160   5.335   6.574 -0.1050 -0.3004  0.1245
  958POPC   GL213986  16.454   5.495   6.624 -0.0901 -0.2471  0.1132
  958POPC   C1A13987  16.291   5.072   6.899  0.0064  0.1011  0.2762
  958POPC   D2A13988  16.486   4.935   7.315  0.0577 -0.0520  0.1071
  958POPC   C3A13989  16.677   4.991   7.702 -0.2927 -0.0564  0.1972
  958POPC   C4A13990  16.838   5.346   7.952 -0.1113  0.1963  0.0277
  958POPC   C1B13991  16.427   5.540   7.076  0.0445 -0.1290  0.1373
  958POPC   C2B13992  16.447   5.396   7.542 -0.1201 -0.0246 -0.0021
  958POPC   C3B13993  16.366   5.443   8.011  0.2886 -0.2085  0.2070
  958POPC   C4B13994  16.291   5.501   8.423 -0.0670 -0.0549 -0.0794
  959POPC   NC313995   2.852  11.405   5.293 -0.0585  0.1292 -0.1256
  959POPC   PO413996   2.830  11.822   5.307  0.0089 -0.1647  0.2565
  959POPC   GL113997   2.765  11.736   5.700 -0.2413 -0.1058 -0.1382
  959POPC   GL213998   3.059  11.716   5.966 -0.0832 -0.0058  0.0605
  959POPC   C1A13999   2.515  11.712   6.110 -0.0414 -0.1159  0.0287
  959POPC   D2A14000   2.321  11.304   6.313  0.1100  0.0640  0.0108
  959POPC   C3A14001   2.562  10.949   6.460 -0.1524 -0.0543 -0.0844
  959POPC   C4A14002   2.415  10.612   6.554  0.0382  0.0497 -0.3375
  959POPC   C1B14003   3.179  11.943   6.338  0.2170 -0.1624 -0.0353
  959POPC   C2B14004   3.328  12.272   6.589 -0.1191 -0.0756 -0.1418
  959POPC   C3B14005   3.416  12.303   7.021  0.1553  0.3163 -0.5152
  959POPC   C4B14006   3.196  12.226   7.394 -0.0513  0.2110  0.0062
  960POPC   NC314007   0.217   1.750   6.280 -0.2059 -0.1614  0.3457
  960POPC   PO414008  -0.119   2.042   6.246  0.1527  0.1928  0.2840
  960POPC   GL114009  -0.104   1.980   6.655 -0.0694  0.0281  0.2882
  960POPC   GL214010  -0.113   1.687   6.699  0.0466  0.0047  0.1592
  960POPC   C1A14011   0.062   1.999   7.099 -0.1744  0.0198  0.0879
  960POPC   D2A14012   0.058   1.980   7.432 -0.0460 -0.0867 -0.1529
  960POPC   C3A14013   0.226   1.608   7.653 -0.0946  0.1671  0.2136
  960POPC   C4A14014   0.190   1.340   8.055 -0.1013  0.0392  0.0364
  960POPC   C1B14015  -0.003   1.401   6.958  0.1051  0.0004  0.0989
  960POPC   C2B14016   0.045   1.268   7.318  0.0661 -0.0752 -0.2316
  960POPC   C3B14017  -0.162   1.115   7.746 -0.0609 -0.1065  0.0714
  960POPC   C4B14018  -0.306   1.322   8.153  0.2160 -0.4132  0.1394
  961POPC   NC314019  13.109   2.907   6.193 -0.2470  0.0970  0.2414
  961POPC   PO414020  13.274   3.303   6.275 -0.3674  0.0812 -0.0538
  961POPC   GL114021  13.173   3.477   6.655  0.0737  0.1755 -0.2529
  961POPC   GL214022  13.027   3.744   6.631  0.0076  0.4093  0.0091
  961POPC   C1A14023  13.130   3.400   7.047 -0.1269  0.1022  0.2324
  961POPC   D2A14024  13.211   3.397   7.460 -0.0687 -0.4238  0.1061
  961POPC   C3A14025  12.911   3.295   7.699  0.0010 -0.3470  0.2362
  961POPC   C4A14026  12.674   3.230   8.052  0.3392 -0.0190 -0.0650
  961POPC   C1B14027  12.892   3.840   7.120 -0.1495  0.1031 -0.2256
  961POPC   C2B14028  12.889   3.791   7.534 -0.1494  0.2233  0.3024
  961POPC   C3B14029  12.853   3.760   7.921 -0.1147 -0.1651  0.2264
  961POPC   C4B14030  12.690   3.602   8.387  0.1612 -0.0755 -0.2202
  962POPC   NC314031   1.137   1.992   6.041  0.0258  0.0247  0.0918
  962POPC   PO414032   1.642   2.010   6.074  0.4095  0.0571  0.2044
  962POPC   GL114033   1.590   1.901   6.465  0.0898  0.1065 -0.0880
  962POPC   GL214034   1.832   1.788   6.546 -0.0386  0.3719 -0.1290
  962POPC   C1A14035   1.373   1.990   6.947  0.1295  0.0147  0.0040
  962POPC   D2A14036   1.284   1.947   7.345  0.0209 -0.2699 -0.1786
  962POPC   C3A14037   0.962   1.892   7.705  0.3461  0.2845 -0.0570
  962POPC   C4A14038   1.143   1.601   8.058 -0.1443  0.0368 -0.0197
  962POPC   C1B14039   1.784   1.703   6.942  0.0329 -0.2350 -0.0311
  962POPC   C2B14040   1.767   1.704   7.427 -0.0063 -0.1090  0.3953
  962POPC   C3B14041   1.961   1.810   7.799  0.0168  0.2503 -0.1716
  962POPC   C4B14042   2.227   1.784   8.201 -0.0977  0.1202  0.1975
  963POPC   NC314043   7.301   2.196   5.754 -0.2868  0.1571  0.2289
  963POPC   PO414044   7.178   1.856   6.047  0.4097  0.0187 -0.0633
  963POPC   GL114045   7.130   1.670   6.372 -0.0981 -0.0916 -0.4088
  963POPC   GL214046   6.769   1.661   6.366 -0.2445 -0.1231 -0.0245
  963POPC   C1A14047   7.231   1.738   6.835  0.1237 -0.2613 -0.1573
  963POPC   D2A14048   7.009   1.848   7.280 -0.1660  0.2311  0.0583
  963POPC   C3A14049   7.094   1.666   7.679 -0.1227 -0.1428 -0.2336
  963POPC   C4A14050   7.131   1.429   8.102  0.0312  0.0558  0.0911
  963POPC   C1B14051   6.900   1.395   6.696  0.0041 -0.0515 -0.1252
  963POPC   C2B14052   7.058   1.278   7.137 -0.0822 -0.1226  0.1440
  963POPC   C3B14053   7.202   1.140   7.523 -0.1367 -0.0667  0.0228
  963POPC   C4B14054   7.473   1.105   7.894  0.1214  0.2175  0.0547
  964POPC   NC314055  12.065   4.192   6.284 -0.2469  0.0407 -0.1691
  964POPC   PO414056  11.844   4.566   6.239  0.1557 -0.0893  0.0859
  964POPC   GL114057  11.688   4.380   6.572  0.0546  0.0309 -0.0614
  964POPC   GL214058  12.008   4.373   6.753 -0.1423  0.1304 -0.1539
  964POPC   C1A14059  11.547   4.158   7.025 -0.1233 -0.2705  0.0056
  964POPC   D2A14060  11.513   4.192   7.466  0.0626  0.2960 -0.1883
  964POPC   C3A14061  11.395   4.225   7.801 -0.0892  0.0273  0.1474
  964POPC   C4A14062  11.420   4.348   8.197 -0.2059 -0.1143 -0.2581
  964POPC   C1B14063  12.014   4.376   7.171  0.1052  0.3344 -0.2336
  964POPC   C2B14064  11.973   4.012   7.486 -0.1058 -0.0066 -0.0146
  964POPC   C3B14065  11.777   3.926   7.796 -0.0218  0.0107 -0.1855
  964POPC   C4B14066  11.777   3.680   8.173  0.0181  0.1819 -0.2764
  965POPC   NC314067  10.841   3.840   5.972  0.0195 -0.0628  0.0461
  965POPC   PO414068  10.558   3.929   6.249  0.2720 -0.2934  0.0912
  965POPC   GL114069  10.642   3.980   6.698  0.1882 -0.0673  0.0364
  965POPC   GL214070  10.573   3.682   6.795  0.1370 -0.1619  0.1635
  965POPC   C1A14071  10.557   4.353   7.059  0.1516 -0.1621  0.0267
  965POPC   D2A14072  10.582   4.323   7.434  0.1664 -0.1023 -0.0129
  965POPC   C3A14073  10.442   4.574   7.726 -0.1190 -0.1363 -0.1841
  965POPC   C4A14074  10.246   4.699   8.127 -0.2204 -0.1644 -0.2092
  965POPC   C1B14075  10.695   3.899   7.191 -0.1589 -0.4098 -0.0883
  965POPC   C2B14076  10.918   4.021   7.657  0.0313 -0.0824  0.0981
  965POPC   C3B14077  10.853   4.096   7.994  0.0494  0.0496  0.1886
  965POPC   C4B14078  10.627   4.354   8.269  0.1640 -0.2267 -0.1629
  966POPC   NC314079  12.435   6.145   6.361  0.1204 -0.0978  0.0173
  966POPC   PO414080  12.757   6.382   6.375  0.0198  0.1069 -0.0268
  966POPC   GL114081  13.087   6.445   6.730 -0.0388  0.2547  0.1323
  966POPC   GL214082  12.977   6.253   6.894  0.2019 -0.1087  0.0068
  966POPC   C1A14083  13.281   6.782   6.938  0.0037 -0.0357 -0.1566
  966POPC   D2A14084  13.518   7.123   7.171  0.0589  0.2624  0.2039
  966POPC   C3A14085  13.397   7.196   7.609  0.1097 -0.0250 -0.0190
  966POPC   C4A14086  13.558   7.366   8.053  0.3203  0.1138  0.3029
  966POPC   C1B14087  12.979   6.339   7.350  0.0615 -0.0135  0.1265
  966POPC   C2B14088  12.966   6.387   7.775  0.3116  0.2145  0.1323
  966POPC   C3B14089  12.989   6.571   8.162  0.0579 -0.1002 -0.1985
  966POPC   C4B14090  13.129   6.669   8.572  0.0320 -0.1088  0.0261
  967POPC   NC314091   4.511  16.477   5.986  0.2281  0.2737 -0.0044
  967POPC   PO414092   4.380  16.758   6.064  0.1777 -0.2825  0.2242
  967POPC   GL114093   4.311  16.624   6.434  0.1011  0.0353  0.0768
  967POPC   GL214094   4.602  16.465   6.520 -0.0210  0.2917  0.1770
  967POPC   C1A14095   3.942  16.614   6.701 -0.1315  0.1741  0.1128
  967POPC   D2A14096   3.913  16.683   7.162  0.2783  0.1610  0.0287
  967POPC   C3A14097   3.759  16.991   7.389  0.1053 -0.2209 -0.0743
  967POPC   C4A14098   3.518  17.286   7.326  0.0386 -0.3894  0.2689
  967POPC   C1B14099   4.346  16.478   6.934  0.2957 -0.3943  0.0139
  967POPC   C2B14100   4.326  16.396   7.339  0.1400 -0.3205  0.3641
  967POPC   C3B14101   4.470  16.300   7.779  0.0219 -0.0624  0.2267
  967POPC   C4B14102   4.376  16.154   8.191 -0.1608  0.0320  0.0862
  968POPC   NC314103   5.772   3.946   5.909  0.2950  0.0461 -0.0614
  968POPC   PO414104   5.706   4.127   6.345  0.1347  0.1685 -0.2713
  968POPC   GL114105   5.646   4.397   6.694 -0.1021 -0.0908  0.3342
  968POPC   GL214106   5.916   4.683   6.743  0.1436  0.3058  0.0654
  968POPC   C1A14107   5.684   4.376   7.111 -0.0507 -0.1387  0.0774
  968POPC   D2A14108   5.854   4.398   7.464 -0.1137 -0.0537  0.0894
  968POPC   C3A14109   5.783   4.225   7.813  0.0866 -0.0872 -0.4336
  968POPC   C4A14110   5.751   3.995   8.176 -0.2228 -0.3098 -0.0485
  968POPC   C1B14111   6.194   4.543   7.037  0.2664 -0.0411 -0.1022
  968POPC   C2B14112   6.348   4.725   7.389  0.1418 -0.0364  0.0271
  968POPC   C3B14113   6.488   4.816   7.827  0.0441 -0.1848  0.2599
  968POPC   C4B14114   6.517   4.640   8.164 -0.0427 -0.2266 -0.4080
  969POPC   NC314115  16.185   3.716   6.457  0.1318  0.1197  0.4239
  969POPC   PO414116  16.262   4.127   6.621  0.0926  0.2640 -0.1876
  969POPC   GL114117  16.063   3.990   6.935 -0.1184 -0.0467 -0.2685
  969POPC   GL214118  16.200   3.629   6.928  0.1162  0.0776  0.2034
  969POPC   C1A14119  16.154   4.066   7.367 -0.1181 -0.0876  0.2747
  969POPC   D2A14120  16.015   3.990   7.753 -0.2086 -0.0395 -0.1623
  969POPC   C3A14121  16.112   3.781   8.185 -0.1865 -0.1792 -0.0331
  969POPC   C4A14122  15.994   3.496   8.538 -0.1599  0.0460 -0.0429
  969POPC   C1B14123  16.193   3.511   7.319  0.0711  0.1693 -0.1152
  969POPC   C2B14124  16.148   3.477   7.668  0.1164 -0.0658 -0.3165
  969POPC   C3B14125  16.196   3.317   8.031  0.0619  0.0861 -0.0631
  969POPC   C4B14126  15.933   3.127   8.170  0.4476 -0.0871 -0.0333
  970POPC   NC314127   2.474   3.156   5.939  0.0385  0.1020  0.1763
  970POPC   PO414128   2.662   3.301   6.366  0.1664  0.0286 -0.3130
  970POPC   GL114129   2.330   3.570   6.660  0.0978  0.3168 -0.1888
  970POPC   GL214130   1.958   3.679   6.556  0.1329 -0.0979 -0.0142
  970POPC   C1A14131   2.289   3.800   7.015 -0.3461  0.0098  0.2905
  970POPC   D2A14132   2.075   3.732   7.370 -0.0047  0.1006  0.0550
  970POPC   C3A14133   2.113   3.585   7.726  0.0510  0.0175 -0.1216
  970POPC   C4A14134   2.031   3.184   7.981  0.0443  0.2198 -0.0710
  970POPC   C1B14135   1.696   3.774   6.869  0.0827  0.0563 -0.1960
  970POPC   C2B14136   1.594   3.824   7.210 -0.0115  0.1110 -0.0669
  970POPC   C3B14137   1.656   3.832   7.638 -0.0412  0.0924  0.5108
  970POPC   C4B14138   2.020   4.046   7.838  0.2181  0.1956  0.0850
  971POPC   NC314139  11.029   5.368   6.079 -0.0494  0.3127  0.1960
  971POPC   PO414140  11.314   5.148   6.252  0.1498  0.0814 -0.1544
  971POPC   GL114141  11.500   5.546   6.496 -0.0996  0.0889 -0.0994
  971POPC   GL214142  11.816   5.419   6.566  0.2359 -0.1129 -0.0445
  971POPC   C1A14143  11.686   5.816   6.826  0.3325 -0.0848 -0.0264
  971POPC   D2A14144  11.775   5.753   7.230 -0.1252 -0.0135  0.1965
  971POPC   C3A14145  11.690   6.059   7.552  0.1750  0.1043  0.1900
  971POPC   C4A14146  11.500   6.241   7.885  0.1948 -0.1363 -0.0274
  971POPC   C1B14147  11.622   5.341   7.045  0.2234 -0.1584 -0.1803
  971POPC   C2B14148  11.626   5.223   7.431 -0.0570 -0.1656 -0.0278
  971POPC   C3B14149  11.730   5.125   7.906 -0.0921 -0.2758 -0.3140
  971POPC   C4B14150  11.884   5.060   8.337  0.0746 -0.2597 -0.0348
  972POPC   NC314151   2.894  14.197   5.396 -0.1755 -0.3353 -0.1589
  972POPC   PO414152   3.353  14.329   5.408  0.0336  0.0461 -0.1082
  972POPC   GL114153   3.573  14.259   5.762 -0.0316  0.2631 -0.1667
  972POPC   GL214154   3.615  14.487   5.970  0.1330  0.1303 -0.0824
  972POPC   C1A14155   3.440  14.069   6.155  0.2795  0.1334  0.0483
  972POPC   D2A14156   3.001  14.008   6.363  0.2108  0.2813 -0.0851
  972POPC   C3A14157   2.811  13.993   6.812 -0.2425 -0.2793  0.2239
  972POPC   C4A14158   2.655  13.930   7.185  0.0628  0.0444  0.0478
  972POPC   C1B14159   3.397  14.554   6.329  0.2670  0.3138  0.0469
  972POPC   C2B14160   3.276  14.390   6.596 -0.1101  0.0786 -0.1791
  972POPC   C3B14161   3.133  14.326   7.019  0.1502  0.3564 -0.2327
  972POPC   C4B14162   3.039  14.347   7.455  0.1017  0.1341  0.1683
  973POPC   NC314163  15.395   8.148   5.897  0.0693  0.2697 -0.2364
  973POPC   PO414164  15.046   8.174   5.828  0.1968 -0.1769  0.2228
  973POPC   GL114165  15.108   8.065   6.304 -0.1770  0.0653  0.1749
  973POPC   GL214166  15.402   7.902   6.380 -0.1556 -0.2081  0.1803
  973POPC   C1A14167  15.092   8.095   6.687  0.0078  0.0515 -0.1044
  973POPC   D2A14168  15.286   8.239   7.075 -0.1126  0.2751  0.0397
  973POPC   C3A14169  15.353   8.276   7.593  0.0331  0.0630  0.0736
  973POPC   C4A14170  15.483   8.473   8.018 -0.0355 -0.0924  0.0426
  973POPC   C1B14171  15.521   7.905   6.813  0.1294 -0.0750 -0.0716
  973POPC   C2B14172  15.457   7.813   7.294 -0.1894 -0.3783  0.1552
  973POPC   C3B14173  15.470   7.649   7.721  0.0507 -0.1621 -0.2622
  973POPC   C4B14174  15.284   7.455   8.099 -0.0569  0.0232 -0.1359
  974POPC   NC314175   0.874   1.132   5.937 -0.1858 -0.1301 -0.0953
  974POPC   PO414176   1.386   1.041   5.989 -0.0723 -0.1260 -0.2743
  974POPC   GL114177   1.603   1.118   6.357 -0.1444  0.0528  0.1525
  974POPC   GL214178   1.600   1.364   6.346  0.0187  0.3034 -0.2012
  974POPC   C1A14179   1.660   1.121   6.787  0.0861  0.1123 -0.1320
  974POPC   D2A14180   1.579   1.125   7.206  0.1256  0.0510  0.1542
  974POPC   C3A14181   1.699   1.152   7.706 -0.0928 -0.2476  0.1886
  974POPC   C4A14182   1.791   1.387   8.008 -0.2192  0.1275 -0.1873
  974POPC   C1B14183   1.342   1.559   6.692 -0.1238 -0.2723 -0.1395
  974POPC   C2B14184   1.286   1.498   7.102 -0.1023 -0.2393  0.1677
  974POPC   C3B14185   1.328   1.422   7.525  0.2753  0.0880  0.0286
  974POPC   C4B14186   1.224   1.117   7.911  0.1632  0.4795  0.2099
  975POPC   NC314187   2.852  14.993   5.494 -0.0802  0.5203 -0.1471
  975POPC   PO414188   2.719  14.598   5.622 -0.3544 -0.0821 -0.0628
  975POPC   GL114189   2.523  14.587   6.028 -0.0148  0.1419  0.0699
  975POPC   GL214190   2.183  14.658   5.967  0.1457  0.1133 -0.1303
  975POPC   C1A14191   2.655  14.522   6.345  0.1534  0.0767 -0.0115
  975POPC   D2A14192   2.786  14.488   6.672  0.0986 -0.0732 -0.0834
  975POPC   C3A14193   2.656  14.430   7.166 -0.3185 -0.0622  0.2248
  975POPC   C4A14194   2.588  14.211   7.589 -0.0877 -0.0417  0.3793
  975POPC   C1B14195   2.094  14.466   6.342  0.1192 -0.1360  0.4179
  975POPC   C2B14196   1.913  14.652   6.711  0.2897  0.0955  0.1759
  975POPC   C3B14197   1.769  14.600   7.004 -0.2034 -0.1305  0.1425
  975POPC   C4B14198   1.696  14.713   7.375  0.1402 -0.1654  0.1583
  976POPC   NC314199  17.508  16.966   5.910  0.2366 -0.0452 -0.1030
  976POPC   PO414200  17.580  16.504   5.975  0.1471  0.3515  0.0231
  976POPC   GL114201  17.664  16.172   6.289  0.0630 -0.1719 -0.0574
  976POPC   GL214202  17.905  15.993   6.146  0.0448  0.0631 -0.0475
  976POPC   C1A14203  17.647  15.890   6.669  0.0640 -0.1764 -0.2724
  976POPC   D2A14204  17.449  15.713   7.035 -0.0611 -0.2789  0.0954
  976POPC   C3A14205  17.417  15.760   7.435  0.1319 -0.1083 -0.1694
  976POPC   C4A14206  17.474  15.454   7.859 -0.0184  0.2154  0.1808
  976POPC   C1B14207  18.150  15.889   6.507  0.0536 -0.2017 -0.1449
  976POPC   C2B14208  18.419  15.792   6.782  0.0820  0.2570  0.0110
  976POPC   C3B14209  18.532  15.901   7.160  0.0345  0.2266  0.1154
  976POPC   C4B14210  18.325  16.118   7.516 -0.1627  0.0684  0.0465
  977POPC   NC314211   8.079  15.466   5.896  0.2224 -0.2806 -0.1561
  977POPC   PO414212   7.790  15.186   6.060 -0.0290 -0.1637 -0.1661
  977POPC   GL114213   7.732  15.106   6.421 -0.0155  0.0425 -0.1775
  977POPC   GL214214   7.969  14.898   6.563 -0.0632  0.0059  0.1878
  977POPC   C1A14215   7.548  14.768   6.659  0.0019 -0.0430  0.0094
  977POPC   D2A14216   7.265  14.520   6.988 -0.1327 -0.1654  0.1985
  977POPC   C3A14217   7.320  14.352   7.356  0.1220  0.1862 -0.0225
  977POPC   C4A14218   7.443  14.349   7.732  0.3678 -0.0857 -0.2469
  977POPC   C1B14219   8.080  14.871   7.014  0.2967  0.0777 -0.1272
  977POPC   C2B14220   8.228  14.601   7.259 -0.3769  0.0429 -0.0870
  977POPC   C3B14221   8.368  14.716   7.688 -0.0519 -0.1192 -0.1156
  977POPC   C4B14222   8.589  14.799   8.107  0.1661  0.2171 -0.1041
  978POPC   NC314223  13.171   6.281   6.107  0.0808 -0.0851 -0.0819
  978POPC   PO414224  13.448   6.051   6.406 -0.2680  0.2513  0.3004
  978POPC   GL114225  13.519   6.176   6.718 -0.0601  0.2785  0.2201
  978POPC   GL214226  13.578   6.521   6.635  0.0061  0.1240 -0.1999
  978POPC   C1A14227  13.423   6.301   7.106  0.0221  0.0166  0.1492
  978POPC   D2A14228  13.346   6.657   7.405  0.2018  0.1033  0.1587
  978POPC   C3A14229  13.363   6.693   7.903 -0.0941  0.2443 -0.0275
  978POPC   C4A14230  13.781   6.486   8.039 -0.0832  0.2375 -0.1514
  978POPC   C1B14231  13.878   6.446   6.986 -0.0470 -0.0895 -0.0450
  978POPC   C2B14232  13.808   6.460   7.432  0.0563 -0.1615  0.1310
  978POPC   C3B14233  14.103   6.570   7.675 -0.2218  0.3175  0.0889
  978POPC   C4B14234  14.259   6.370   8.021 -0.1499 -0.0423 -0.0534
  979POPC   NC314235  13.871  15.715   6.212 -0.3004  0.2046  0.3062
  979POPC   PO414236  13.425  15.476   6.338  0.0994 -0.1619  0.0084
  979POPC   GL114237  13.545  15.319   6.609 -0.3021 -0.2800 -0.0618
  979POPC   GL214238  13.897  15.468   6.731 -0.3162  0.1015 -0.1413
  979POPC   C1A14239  13.524  15.218   7.103 -0.2429  0.3054 -0.5343
  979POPC   D2A14240  13.605  15.134   7.612  0.1258 -0.1213 -0.2601
  979POPC   C3A14241  13.349  14.933   7.912  0.0373 -0.2741  0.0615
  979POPC   C4A14242  13.002  14.747   7.932  0.0313 -0.0092  0.0230
  979POPC   C1B14243  13.716  15.659   7.120  0.1613 -0.3178 -0.1241
  979POPC   C2B14244  13.541  15.643   7.480 -0.0262 -0.1012  0.2339
  979POPC   C3B14245  13.495  15.917   7.790  0.1662 -0.0424  0.1310
  979POPC   C4B14246  13.063  15.999   8.023  0.0727 -0.0818 -0.1658
  980POPC   NC314247   3.800  14.186   5.291 -0.3837 -0.2919  0.3703
  980POPC   PO414248   3.730  13.894   5.475  0.0623 -0.1921  0.2033
  980POPC   GL114249   3.888  13.780   5.911  0.0570 -0.1669 -0.0507
  980POPC   GL214250   4.060  13.909   6.178  0.1554  0.2903  0.3349
  980POPC   C1A14251   3.716  13.636   6.347  0.1326 -0.2422 -0.1455
  980POPC   D2A14252   3.395  13.807   6.592 -0.2211 -0.2251 -0.1494
  980POPC   C3A14253   3.178  13.745   7.073 -0.1452 -0.0543 -0.2526
  980POPC   C4A14254   3.094  13.809   7.497 -0.1735 -0.0799 -0.0726
  980POPC   C1B14255   4.049  13.830   6.606  0.0498 -0.2588 -0.2125
  980POPC   C2B14256   4.087  13.926   7.041 -0.2464  0.0271 -0.1261
  980POPC   C3B14257   4.098  13.844   7.435 -0.0137 -0.2481 -0.2586
  980POPC   C4B14258   4.202  13.973   7.806  0.0849  0.2993  0.1424
  981YOPC   NC314259   9.737   7.008   5.998 -0.0203 -0.1128  0.0680
  981YOPC   PO414260  10.100   6.794   5.946  0.1361  0.1775  0.1407
  981YOPC   GL114261   9.988   6.790   6.377 -0.0558 -0.0780  0.2901
  981YOPC   GL214262  10.198   6.713   6.550 -0.3103  0.0673 -0.0501
  981YOPC   C1A14263   9.724   6.873   6.615  0.0119  0.0537 -0.3533
  981YOPC   D2A14264   9.581   6.944   7.072 -0.1304  0.1235  0.0198
  981YOPC   C3A14265   9.527   6.663   7.436  0.3059  0.2824 -0.0217
  981YOPC   C4A14266   9.596   6.257   7.652  0.0191 -0.0759  0.1659
  981YOPC   C1B14267  10.145   7.015   6.849  0.3962  0.2226  0.0082
  981YOPC   C2B14268   9.979   7.149   7.248 -0.0747 -0.1361  0.1203
  981YOPC   D3B14269   9.731   7.095   7.534 -0.0654 -0.2446  0.0377
  981YOPC   C4B14270   9.788   7.299   7.974  0.0043  0.1310  0.1541
  982YOPC   NC314271   1.677  11.504   4.654  0.0226  0.1691  0.1389
  982YOPC   PO414272   1.560  11.399   5.052 -0.1245  0.0657 -0.0965
  982YOPC   GL114273   1.947  11.275   5.483  0.0484 -0.0214  0.0717
  982YOPC   GL214274   2.001  10.997   5.647 -0.1914 -0.1502 -0.1936
  982YOPC   C1A14275   2.249  11.340   5.806  0.0457  0.2048  0.0112
  982YOPC   D2A14276   2.612  11.255   5.927  0.2015  0.0685 -0.0062
  982YOPC   C3A14277   2.880  11.339   6.180 -0.1346 -0.1905 -0.2644
  982YOPC   C4A14278   2.841  11.625   6.499 -0.2254  0.0408 -0.2261
  982YOPC   C1B14279   1.762  10.768   5.828 -0.1775  0.0590 -0.0551
  982YOPC   C2B14280   1.615  10.536   6.181  0.0105 -0.1181  0.0184
  982YOPC   D3B14281   1.838  10.524   6.611 -0.0249  0.1361  0.2829
  982YOPC   C4B14282   2.102  10.519   7.070  0.1882 -0.0951  0.2648
  983YOPC   NC314283  14.661   4.072   5.615  0.0435  0.0499  0.1642
  983YOPC   PO414284  14.510   4.036   6.044  0.0018 -0.0308  0.3329
  983YOPC   GL114285  14.545   4.118   6.397 -0.0176 -0.1460  0.0474
  983YOPC   GL214286  14.822   4.115   6.681  0.0157 -0.1741 -0.0888
  983YOPC   C1A14287  14.353   4.261   6.727  0.3876 -0.4040  0.0677
  983YOPC   D2A14288  14.206   4.518   6.881  0.2459  0.0474  0.3397
  983YOPC   C3A14289  14.346   4.901   7.015 -0.1563 -0.3524 -0.1553
  983YOPC   C4A14290  14.387   5.312   7.113  0.1324  0.0186 -0.1355
  983YOPC   C1B14291  14.728   4.257   7.177  0.4017  0.4299 -0.0900
  983YOPC   C2B14292  14.500   4.587   7.385  0.1306  0.0682  0.1017
  983YOPC   D3B14293  14.077   4.518   7.363 -0.2827 -0.2075  0.0296
  983YOPC   C4B14294  13.654   4.291   7.245  0.1345 -0.1429  0.0579
  984YOPC   NC314295   0.663   7.084   5.829  0.0498  0.0945 -0.1150
  984YOPC   PO414296   0.312   7.284   5.748  0.0730 -0.2200 -0.3591
  984YOPC   GL114297   0.475   7.390   6.183 -0.1176 -0.0287  0.1116
  984YOPC   GL214298   0.431   7.788   6.321 -0.0842  0.0697 -0.1041
  984YOPC   C1A14299   0.437   7.387   6.642  0.0399 -0.1589  0.2760
  984YOPC   D2A14300   0.447   7.610   6.966  0.0828 -0.0905 -0.3776
  984YOPC   C3A14301   0.369   7.399   7.405  0.0983  0.0435  0.2062
  984YOPC   C4A14302   0.779   7.495   7.655  0.0391 -0.0819 -0.0417
  984YOPC   C1B14303   0.534   8.008   6.596  0.0770  0.2144 -0.0298
  984YOPC   C2B14304   0.651   8.069   6.973 -0.0500  0.2052  0.1680
  984YOPC   D3B14305   0.561   7.837   7.398  0.2452  0.1908 -0.1569
  984YOPC   C4B14306   0.465   7.947   7.829  0.0088  0.1870  0.1484
  985YOPC   NC314307  12.779  10.463   5.571 -0.1093 -0.3237  0.0366
  985YOPC   PO414308  12.627  10.330   6.056  0.2091  0.4629  0.1198
  985YOPC   GL114309  12.476  10.284   6.434  0.0135 -0.2731 -0.1804
  985YOPC   GL214310  12.246   9.982   6.474  0.2179  0.1449  0.0642
  985YOPC   C1A14311  12.597  10.127   6.823 -0.6470 -0.1801  0.0017
  985YOPC   D2A14312  12.738  10.150   7.204 -0.1186 -0.0928 -0.0351
  985YOPC   C3A14313  12.528  10.188   7.608  0.3663  0.0703 -0.1125
  985YOPC   C4A14314  12.222  10.180   7.915 -0.1963  0.0583  0.1368
  985YOPC   C1B14315  12.057  10.043   6.884  0.0294 -0.0062  0.0843
  985YOPC   C2B14316  11.865  10.268   7.224  0.3290  0.0674 -0.1664
  985YOPC   D3B14317  11.867  10.034   7.608 -0.1237 -0.0805 -0.1403
  985YOPC   C4B14318  11.642   9.748   7.886 -0.1054 -0.0328  0.1472
  986YOPC   NC314319  13.957   8.286   6.474 -0.1942 -0.0064 -0.4195
  986YOPC   PO414320  13.774   7.877   6.411  0.0823  0.0095 -0.0148
  986YOPC   GL114321  13.956   7.838   6.846  0.0892 -0.1233  0.0876
  986YOPC   GL214322  14.249   8.032   6.911 -0.0825  0.1991  0.1824
  986YOPC   C1A14323  13.969   7.911   7.396 -0.1459  0.0535  0.1918
  986YOPC   D2A14324  14.134   8.138   7.836  0.1235 -0.1466  0.1830
  986YOPC   C3A14325  13.935   8.556   7.984  0.1309 -0.0392  0.1408
  986YOPC   C4A14326  13.795   8.963   8.214 -0.1034 -0.0320  0.0646
  986YOPC   C1B14327  14.576   8.121   7.069 -0.0037 -0.2465  0.2695
  986YOPC   C2B14328  14.796   8.313   7.019  0.3845 -0.1391  0.0948
  986YOPC   D3B14329  14.829   8.473   7.397 -0.0591 -0.0396  0.0900
  986YOPC   C4B14330  15.122   8.781   7.508  0.0827 -0.3729  0.1359
  987YOPC   NC314331   8.619   0.500   5.962 -0.0274 -0.1547 -0.0266
  987YOPC   PO414332   8.958   0.772   6.142  0.1356  0.2393 -0.4478
  987YOPC   GL114333   8.607   0.795   6.473  0.0124 -0.0985 -0.2297
  987YOPC   GL214334   8.455   0.487   6.516 -0.2831  0.0773  0.0994
  987YOPC   C1A14335   8.687   0.922   6.944 -0.1544 -0.2463  0.2726
  987YOPC   D2A14336   8.591   1.183   7.285  0.0198  0.3047 -0.0582
  987YOPC   C3A14337   8.442   1.167   7.709 -0.1818  0.1311 -0.1469
  987YOPC   C4A14338   8.650   0.998   8.045 -0.1965 -0.2130 -0.1532
  987YOPC   C1B14339   8.761   0.421   6.905  0.2459  0.2643 -0.3278
  987YOPC   C2B14340   8.741   0.480   7.322 -0.2541 -0.0847  0.3300
  987YOPC   D3B14341   8.811   0.829   7.547 -0.1709 -0.3382  0.0016
  987YOPC   C4B14342   9.087   1.186   7.679  0.0235  0.1649  0.0707
  988YOPC   NC314343   5.395   2.222   6.189 -0.0946 -0.0294  0.0331
  988YOPC   PO414344   5.527   1.874   6.369 -0.1495  0.3576  0.0326
  988YOPC   GL114345   5.486   1.958   6.755 -0.0436  0.1041  0.1185
  988YOPC   GL214346   5.160   2.036   6.655  0.3553  0.0855 -0.0751
  988YOPC   C1A14347   5.553   1.767   7.214 -0.0909  0.1517 -0.1847
  988YOPC   D2A14348   5.452   2.176   7.519 -0.0535 -0.0538 -0.0956
  988YOPC   C3A14349   5.430   2.133   7.962  0.2941  0.0323  0.3964
  988YOPC   C4A14350   5.549   2.137   8.363  0.0033  0.1481 -0.0202
  988YOPC   C1B14351   5.030   1.999   7.112 -0.2743  0.0520  0.2236
  988YOPC   C2B14352   5.021   1.915   7.546 -0.2021 -0.1986  0.3617
  988YOPC   D3B14353   5.376   1.695   7.708  0.0435  0.3189 -0.3108
  988YOPC   C4B14354   5.701   1.485   7.737  0.0299 -0.0136  0.4342
  989YOPC   NC314355   8.960  15.974   5.953  0.0340  0.2454 -0.2421
  989YOPC   PO414356   9.302  16.048   6.037 -0.2620  0.0230  0.1397
  989YOPC   GL114357   9.386  16.047   6.433 -0.0827 -0.2128 -0.0550
  989YOPC   GL214358   9.307  16.287   6.506  0.0496 -0.3036  0.1174
  989YOPC   C1A14359   9.316  15.874   6.783  0.0079 -0.1402 -0.0669
  989YOPC   D2A14360   9.231  15.676   7.130  0.1018 -0.0152  0.0185
  989YOPC   C3A14361   9.194  15.770   7.582  0.2453 -0.0352 -0.0418
  989YOPC   C4A14362   9.044  15.944   8.026  0.0407 -0.1801  0.1057
  989YOPC   C1B14363   9.471  16.329   6.883  0.1956  0.1996  0.0807
  989YOPC   C2B14364   9.466  16.250   7.297 -0.0761  0.2106  0.1788
  989YOPC   D3B14365   9.250  16.279   7.705 -0.3622  0.0036  0.1762
  989YOPC   C4B14366   9.316  16.362   8.023 -0.0513 -0.1538 -0.2096
  990YOPC   NC314367  14.410   7.347   6.190  0.2052 -0.1082 -0.2425
  990YOPC   PO414368  14.298   6.993   6.455  0.0291 -0.1817  0.0622
  990YOPC   GL114369  14.041   7.143   6.768  0.4126  0.2991  0.0114
  990YOPC   GL214370  13.826   6.955   6.757  0.1523 -0.1057 -0.2117
  990YOPC   C1A14371  13.957   7.387   7.147 -0.1878 -0.2557  0.2108
  990YOPC   D2A14372  13.891   7.396   7.538 -0.0571 -0.1975 -0.1174
  990YOPC   C3A14373  13.943   7.680   7.836 -0.0915 -0.1184  0.0958
  990YOPC   C4A14374  13.613   7.893   8.040 -0.0259 -0.0698  0.1298
  990YOPC   C1B14375  13.977   6.877   7.229 -0.1131 -0.0562  0.0140
  990YOPC   C2B14376  13.819   6.929   7.771  0.0555 -0.1937  0.0887
  990YOPC   D3B14377  14.140   6.888   8.106 -0.1516  0.0894 -0.0426
  990YOPC   C4B14378  14.340   6.763   8.392 -0.0461 -0.0527 -0.0685
  991YOPC   NC314379   8.572  13.638   5.813 -0.1954  0.3720 -0.2429
  991YOPC   PO414380   8.927  13.779   5.977  0.1059 -0.1105 -0.0972
  991YOPC   GL114381   8.892  13.630   6.312  0.0031  0.2646 -0.4569
  991YOPC   GL214382   8.558  13.815   6.325 -0.1032 -0.0127  0.0325
  991YOPC   C1A14383   8.929  13.583   6.760 -0.0851  0.1516 -0.0387
  991YOPC   D2A14384   9.084  13.578   7.177  0.1658 -0.1418  0.1012
  991YOPC   C3A14385   8.935  13.812   7.500  0.1496  0.1318 -0.0065
  991YOPC   C4A14386   8.875  13.801   7.943  0.0770  0.2297  0.0941
  991YOPC   C1B14387   8.596  14.029   6.747  0.0324 -0.0445  0.3473
  991YOPC   C2B14388   9.025  14.067   6.908  0.0626 -0.1135 -0.1346
  991YOPC   D3B14389   9.027  14.327   7.333  0.0826  0.0068 -0.2861
  991YOPC   C4B14390   8.951  14.460   7.776 -0.0580  0.0282 -0.0963
  992YOPC   NC314391  11.235  16.208   5.584  0.0735  0.0636  0.1000
  992YOPC   PO414392  11.453  16.571   5.694 -0.1055 -0.1701  0.1139
  992YOPC   GL114393  11.659  16.448   6.034 -0.1657  0.1141 -0.0546
  992YOPC   GL214394  11.936  16.632   6.180  0.3718 -0.1717  0.2066
  992YOPC   C1A14395  11.611  16.322   6.545  0.0320 -0.0503  0.0500
  992YOPC   D2A14396  11.576  16.205   6.929  0.1073  0.0642  0.1883
  992YOPC   C3A14397  11.912  16.256   7.249 -0.1578 -0.0957 -0.0380
  992YOPC   C4A14398  12.098  16.288   7.634 -0.1629  0.5255 -0.0648
  992YOPC   C1B14399  11.943  16.796   6.565 -0.1389  0.1143 -0.3144
  992YOPC   C2B14400  11.878  16.654   7.002 -0.4661 -0.2308 -0.1596
  992YOPC   D3B14401  12.151  16.758   7.370  0.0974  0.2605  0.0028
  992YOPC   C4B14402  12.353  16.801   7.732 -0.2603  0.2405  0.0749
  993YOPC   NC314403  14.326   2.493   6.153  0.0000  0.0614 -0.0578
  993YOPC   PO414404  14.020   2.729   6.225  0.0925  0.0229  0.1156
  993YOPC   GL114405  13.934   2.905   6.615 -0.1006  0.1512  0.1763
  993YOPC   GL214406  13.593   3.070   6.615  0.0154  0.1318 -0.0154
  993YOPC   C1A14407  13.724   2.765   6.996 -0.3464  0.0430 -0.0639
  993YOPC   D2A14408  13.723   2.921   7.355  0.2118 -0.0163  0.2151
  993YOPC   C3A14409  13.588   2.623   7.783  0.0895  0.1689 -0.2368
  993YOPC   C4A14410  13.161   2.384   7.774  0.0745  0.2604 -0.1296
  993YOPC   C1B14411  13.600   3.271   6.964  0.1184  0.0346  0.1335
  993YOPC   C2B14412  13.700   3.434   7.370 -0.0102 -0.2803  0.0227
  993YOPC   D3B14413  13.524   3.187   7.795  0.0977 -0.1523 -0.0965
  993YOPC   C4B14414  13.610   3.141   8.271  0.0395  0.0627 -0.0995
  994YOPC   NC314415  16.371   7.998   6.052  0.1339 -0.1419  0.0593
  994YOPC   PO414416  16.812   7.952   5.997 -0.0640  0.1436 -0.0236
  994YOPC   GL114417  16.653   8.336   6.270  0.2503  0.0256  0.3715
  994YOPC   GL214418  16.764   8.590   6.262 -0.1152 -0.1201  0.0851
  994YOPC   C1A14419  16.322   8.474   6.593 -0.2623  0.0562  0.1704
  994YOPC   D2A14420  15.897   8.681   6.496 -0.1375 -0.1480  0.2879
  994YOPC   C3A14421  15.713   8.977   6.676 -0.2498 -0.1872 -0.0206
  994YOPC   C4A14422  15.856   9.322   7.042 -0.1636 -0.1485  0.1737
  994YOPC   C1B14423  16.757   8.776   6.738 -0.0334 -0.0029  0.1614
  994YOPC   C2B14424  16.588   8.959   7.087 -0.1880  0.2458 -0.0016
  994YOPC   D3B14425  16.695   9.030   7.483 -0.2092 -0.0283  0.1448
  994YOPC   C4B14426  16.591   8.906   7.856  0.0887 -0.0958  0.0247
  995YOPC   NC314427   1.935  10.089   4.960  0.2957  0.2352 -0.0792
  995YOPC   PO414428   2.154  10.414   5.194 -0.0877 -0.0070 -0.2229
  995YOPC   GL114429   2.201  10.296   5.658 -0.0667 -0.0426  0.1212
  995YOPC   GL214430   1.987  10.295   5.904  0.0928  0.0309 -0.0752
  995YOPC   C1A14431   2.553  10.318   6.011 -0.0090  0.3995 -0.1226
  995YOPC   D2A14432   2.944  10.442   6.309  0.0119 -0.1237 -0.0273
  995YOPC   C3A14433   2.974  10.433   6.790  0.2793 -0.2378 -0.0925
  995YOPC   C4A14434   2.950  10.190   7.195 -0.0472 -0.0484 -0.3179
  995YOPC   C1B14435   2.097  10.307   6.269  0.2836  0.1399 -0.0789
  995YOPC   C2B14436   2.058   9.992   6.540 -0.2843  0.1614  0.4256
  995YOPC   D3B14437   2.015  10.039   6.984 -0.2986 -0.3032 -0.2505
  995YOPC   C4B14438   2.035  10.065   7.400 -0.1372 -0.3925  0.5543
  996YOPC   NC314439   2.248   3.008   6.417  0.0858  0.3594  0.0240
  996YOPC   PO414440   1.856   3.133   6.258 -0.3625 -0.0652 -0.1153
  996YOPC   GL114441   1.839   3.104   6.800  0.1326  0.0619  0.0258
  996YOPC   GL214442   2.058   2.846   6.936 -0.0419  0.0185 -0.4700
  996YOPC   C1A14443   1.794   3.366   7.166 -0.0961  0.0338 -0.0538
  996YOPC   D2A14444   1.740   3.245   7.578 -0.2037  0.1075 -0.1465
  996YOPC   C3A14445   1.578   3.495   7.945  0.0027 -0.1515  0.1563
  996YOPC   C4A14446   1.754   3.266   8.376  0.0166  0.0610  0.0815
  996YOPC   C1B14447   2.190   2.477   7.191  0.1212 -0.0652  0.0381
  996YOPC   C2B14448   2.192   2.193   7.559  0.1408 -0.2422 -0.1053
  996YOPC   D3B14449   2.484   2.150   7.905  0.0353  0.2348 -0.0977
  996YOPC   C4B14450   2.736   2.287   8.277  0.1256  0.0716  0.1756
  997YOPC   NC314451  16.710   5.060   5.584  0.1267 -0.0905 -0.2542
  997YOPC   PO414452  16.522   5.215   5.949 -0.2593 -0.1167  0.0792
  997YOPC   GL114453  16.699   5.173   6.304 -0.0741  0.1822 -0.2285
  997YOPC   GL214454  16.656   4.906   6.518  0.0528  0.1720  0.3173
  997YOPC   C1A14455  16.781   5.181   6.868  0.2187 -0.2002  0.0170
  997YOPC   D2A14456  16.830   5.255   7.223 -0.0698  0.0102  0.0631
  997YOPC   C3A14457  17.139   5.217   7.570  0.0651 -0.0664  0.0764
  997YOPC   C4A14458  17.271   5.165   7.941  0.0506  0.2108  0.1201
  997YOPC   C1B14459  16.640   4.703   6.860  0.1297  0.0310 -0.0312
  997YOPC   C2B14460  16.548   4.275   7.110 -0.0134 -0.1028 -0.0037
  997YOPC   D3B14461  16.623   4.330   7.485 -0.0104  0.1382 -0.1927
  997YOPC   C4B14462  16.793   4.204   7.831 -0.0570 -0.0915 -0.1857
  998YOPC   NC314463   0.895   6.228   5.797 -0.0748  0.0483 -0.0627
  998YOPC   PO414464   1.033   6.752   5.899  0.0421  0.3281 -0.0277
  998YOPC   GL114465   1.132   6.616   6.203  0.0396 -0.0891  0.2123
  998YOPC   GL214466   1.198   6.322   6.271  0.1110  0.2134  0.0369
  998YOPC   C1A14467   1.195   6.694   6.644  0.3669 -0.2258  0.1604
  998YOPC   D2A14468   1.411   6.917   6.962 -0.0665 -0.0539  0.1887
  998YOPC   C3A14469   1.479   7.274   6.929  0.0003 -0.0258 -0.3340
  998YOPC   C4A14470   1.387   7.618   6.757  0.3363  0.1053  0.0566
  998YOPC   C1B14471   1.319   6.213   6.620  0.1800 -0.1411  0.1752
  998YOPC   C2B14472   1.252   6.163   7.126  0.2170  0.1477 -0.1531
  998YOPC   D3B14473   1.217   6.424   7.539 -0.1070  0.0285 -0.0945
  998YOPC   C4B14474   1.311   6.521   8.034  0.1317 -0.1533 -0.3159
  999YOPC   NC314475   0.822  15.034   5.610  0.0677  0.0734 -0.0160
  999YOPC   PO414476   0.966  14.778   5.861 -0.0204 -0.0485  0.1595
  999YOPC   GL114477   1.031  14.581   6.305 -0.0598  0.1414 -0.0534
  999YOPC   GL214478   1.006  14.233   6.266  0.0540  0.0666 -0.0164
  999YOPC   C1A14479   0.991  14.757   6.667 -0.0930 -0.3474  0.4183
  999YOPC   D2A14480   0.752  14.910   6.963  0.0048  0.0325 -0.2633
  999YOPC   C3A14481   0.965  15.175   7.057 -0.0796  0.0886 -0.1327
  999YOPC   C4A14482   1.045  15.580   7.086 -0.2096 -0.1444 -0.0872
  999YOPC   C1B14483   0.843  14.290   6.640 -0.1395 -0.0590  0.0634
  999YOPC   C2B14484   0.784  14.393   7.016  0.0673  0.0222  0.2783
  999YOPC   D3B14485   0.558  14.168   7.304  0.0577 -0.1195  0.0156
  999YOPC   C4B14486   0.268  14.161   7.570  0.1070 -0.1411  0.2287
 1000YOPC   NC314487   7.816  13.736   5.793  0.2261 -0.2200 -0.0234
 1000YOPC   PO414488   7.534  13.468   6.056 -0.2230  0.0457  0.1452
 1000YOPC   GL114489   7.310  13.580   6.313 -0.2946  0.0696 -0.0513
 1000YOPC   GL214490   7.412  13.741   6.479  0.0711  0.0440  0.0108
 1000YOPC   C1A14491   6.967  13.377   6.617 -0.2274 -0.0549 -0.2867
 1000YOPC   D2A14492   6.671  13.218   6.816  0.2510 -0.1369  0.0903
 1000YOPC   C3A14493   6.349  13.272   7.205 -0.2038  0.0756  0.0063
 1000YOPC   C4A14494   6.325  12.988   7.488 -0.2013 -0.2180 -0.7284
 1000YOPC   C1B14495   7.291  13.643   6.879 -0.0646 -0.1607  0.4560
 1000YOPC   C2B14496   6.962  13.528   7.189  0.0571  0.1515 -0.0068
 1000YOPC   D3B14497   6.585  13.701   7.214 -0.1812 -0.0587  0.2752
 1000YOPC   C4B14498   6.460  13.984   7.592 -0.0558 -0.2248  0.0019
 1001YOPC   NC314499   1.035   5.217   5.933  0.0134  0.0137 -0.1819
 1001YOPC   PO414500   1.473   5.451   6.062  0.4605  0.2739 -0.0631
 1001YOPC   GL114501   1.627   5.382   6.517  0.1478 -0.1384  0.0999
 1001YOPC   GL214502   1.904   5.502   6.621 -0.1633  0.1155 -0.1028
 1001YOPC   C1A14503   1.522   5.266   7.032 -0.1257 -0.0635  0.1163
 1001YOPC   D2A14504   1.423   5.116   7.342  0.4641 -0.0083  0.1779
 1001YOPC   C3A14505   1.424   5.397   7.710 -0.1283  0.0994  0.3334
 1001YOPC   C4A14506   1.351   5.223   8.140 -0.2663 -0.0886 -0.3065
 1001YOPC   C1B14507   2.001   5.558   7.013 -0.0979 -0.1416  0.3470
 1001YOPC   C2B14508   1.946   5.351   7.389  0.1124  0.2687 -0.0511
 1001YOPC   D3B14509   1.916   5.639   7.679  0.1235 -0.3416 -0.2437
 1001YOPC   C4B14510   1.773   5.524   8.112 -0.1143 -0.1317  0.0265
 1002YOPC   NC314511   6.980   4.166   6.194  0.0748  0.1070  0.2462
 1002YOPC   PO414512   7.327   4.001   6.059 -0.0237 -0.1854  0.1173
 1002YOPC   GL114513   7.653   4.068   6.370  0.1681  0.2304 -0.1731
 1002YOPC   GL214514   7.682   4.381   6.510  0.0799  0.1598  0.0767
 1002YOPC   C1A14515   8.010   4.076   6.790 -0.0328  0.1827  0.0760
 1002YOPC   D2A14516   7.800   4.020   7.244 -0.3034 -0.1939 -0.2006
 1002YOPC   C3A14517   7.907   4.266   7.601 -0.1465 -0.0944 -0.0359
 1002YOPC   C4A14518   7.787   4.378   7.987 -0.3160 -0.4874 -0.0890
 1002YOPC   C1B14519   7.479   4.167   6.861  0.0772  0.2175  0.2523
 1002YOPC   C2B14520   7.230   4.335   7.171  0.0430  0.1552  0.1306
 1002YOPC   D3B14521   7.502   4.708   7.346 -0.0142 -0.0447 -0.4467
 1002YOPC   C4B14522   7.722   4.843   7.734 -0.2064 -0.3434 -0.1491
 1003YOPC   NC314523   6.027  10.165   5.748 -0.2286 -0.0995 -0.1944
 1003YOPC   PO414524   6.362  10.466   5.946  0.1338  0.0645  0.0658
 1003YOPC   GL114525   6.248  10.634   6.307  0.2943 -0.1577 -0.0577
 1003YOPC   GL214526   6.300  10.938   6.253 -0.3985  0.2942 -0.1353
 1003YOPC   C1A14527   6.073  10.562   6.645 -0.1537 -0.1419  0.3028
 1003YOPC   D2A14528   5.731  10.698   6.915 -0.0050  0.1197 -0.1145
 1003YOPC   C3A14529   5.876  10.758   7.413  0.0797 -0.4779 -0.0990
 1003YOPC   C4A14530   5.798  10.767   7.837 -0.1621  0.1097 -0.0442
 1003YOPC   C1B14531   6.531  11.124   6.570 -0.4247 -0.1867 -0.2326
 1003YOPC   C2B14532   6.705  11.283   6.934 -0.2530  0.0686 -0.3221
 1003YOPC   D3B14533   6.936  11.006   7.195  0.0526  0.0048 -0.0410
 1003YOPC   C4B14534   7.264  10.848   7.471 -0.0680  0.0908  0.0813
 1004YOPC   NC314535  11.568   3.907   5.731  0.1477 -0.6042 -0.0926
 1004YOPC   PO414536  11.833   3.456   5.971  0.0207  0.1106  0.2028
 1004YOPC   GL114537  11.999   3.172   6.262  0.3106  0.0879 -0.1311
 1004YOPC   GL214538  11.691   3.051   6.469 -0.2433  0.0713  0.1240
 1004YOPC   C1A14539  12.215   3.203   6.637 -0.0776 -0.0333  0.0503
 1004YOPC   D2A14540  12.579   3.486   6.864 -0.3595  0.0953 -0.1497
 1004YOPC   C3A14541  12.670   3.305   7.284 -0.2475  0.1324 -0.0831
 1004YOPC   C4A14542  12.447   3.355   7.584 -0.1801 -0.2411  0.0182
 1004YOPC   C1B14543  11.331   3.266   6.804 -0.0774  0.0211  0.2333
 1004YOPC   C2B14544  10.882   3.244   6.905 -0.0154  0.1449 -0.2630
 1004YOPC   D3B14545  10.847   3.423   7.247  0.0002  0.1936  0.2485
 1004YOPC   C4B14546  10.675   3.609   7.659 -0.0146 -0.1269 -0.2090
 1005YOPC   NC314547   6.203  16.695   6.000 -0.0372  0.1441  0.0093
 1005YOPC   PO414548   6.232  17.198   6.171  0.0188 -0.0201 -0.1451
 1005YOPC   GL114549   6.525  17.014   6.453  0.2020 -0.0309  0.2275
 1005YOPC   GL214550   6.262  16.807   6.518  0.0388  0.2863 -0.0999
 1005YOPC   C1A14551   6.953  17.053   6.589  0.1327 -0.0175 -0.2726
 1005YOPC   D2A14552   7.237  16.945   6.502  0.1133  0.0145  0.0847
 1005YOPC   C3A14553   7.491  17.263   6.712  0.0040 -0.2738  0.0535
 1005YOPC   C4A14554   7.570  17.588   6.956  0.1583 -0.1739 -0.0146
 1005YOPC   C1B14555   6.171  16.943   6.946  0.1224 -0.1479 -0.4317
 1005YOPC   C2B14556   6.081  16.801   7.363 -0.1309  0.2131  0.1915
 1005YOPC   D3B14557   6.258  16.610   7.650  0.0287 -0.2491  0.0792
 1005YOPC   C4B14558   6.313  16.389   8.075 -0.1287  0.1206  0.0815
 1006YOPC   NC314559   3.195  12.013   5.540 -0.3789 -0.0697  0.0155
 1006YOPC   PO414560   3.572  11.653   5.665 -0.1401  0.0584  0.1277
 1006YOPC   GL114561   3.587  11.702   6.056 -0.0376 -0.1039 -0.0903
 1006YOPC   GL214562   3.931  11.653   6.139 -0.2980  0.0117  0.3286
 1006YOPC   C1A14563   3.757  12.012   6.439 -0.0179 -0.1140  0.0774
 1006YOPC   D2A14564   3.785  12.373   6.762  0.0659  0.3194 -0.0955
 1006YOPC   C3A14565   3.840  12.483   7.139 -0.1500  0.3053  0.0217
 1006YOPC   C4A14566   3.622  12.432   7.562 -0.1383 -0.0228 -0.2144
 1006YOPC   C1B14567   3.828  11.492   6.504 -0.0375  0.0950  0.0309
 1006YOPC   C2B14568   3.876  11.334   6.861  0.1021  0.1906 -0.3173
 1006YOPC   D3B14569   3.727  11.364   7.209  0.2670  0.0351 -0.1081
 1006YOPC   C4B14570   3.922  11.557   7.637  0.1345  0.2022  0.1650
 1007YOPC   NC314571  16.198  11.508   5.961 -0.1048 -0.0673  0.2914
 1007YOPC   PO414572  16.358  11.067   6.078  0.2076  0.0109  0.1923
 1007YOPC   GL114573  16.561  10.681   6.324 -0.1545 -0.1943 -0.0182
 1007YOPC   GL214574  16.484  10.371   6.429 -0.1699 -0.1766  0.0162
 1007YOPC   C1A14575  16.775  10.696   6.749  0.1858  0.3429  0.0741
 1007YOPC   D2A14576  16.903  10.664   7.138  0.1200 -0.2675 -0.3786
 1007YOPC   C3A14577  16.608  10.696   7.497  0.1590 -0.0431  0.1333
 1007YOPC   C4A14578  16.334  10.480   7.722 -0.0137 -0.2508  0.3693
 1007YOPC   C1B14579  16.738  10.211   6.771 -0.0058  0.2349  0.2308
 1007YOPC   C2B14580  16.887  10.218   7.251  0.0578  0.0330 -0.0050
 1007YOPC   D3B14581  17.181  10.470   7.572 -0.1402  0.2463  0.0731
 1007YOPC   C4B14582  17.388  10.487   7.956 -0.2193 -0.0570  0.3669
 1008YOPC   NC314583   3.594   5.502   5.713 -0.0933 -0.0230 -0.0402
 1008YOPC   PO414584   3.650   5.100   5.826 -0.1391  0.1452 -0.1071
 1008YOPC   GL114585   3.766   5.104   6.201  0.0144  0.0564 -0.0213
 1008YOPC   GL214586   3.795   4.914   6.338 -0.2528  0.2109 -0.2175
 1008YOPC   C1A14587   3.433   5.076   6.569 -0.1563 -0.1215  0.2134
 1008YOPC   D2A14588   3.217   4.805   6.867 -0.0271  0.1951  0.1099
 1008YOPC   C3A14589   2.969   4.461   6.715 -0.1288 -0.4006 -0.1146
 1008YOPC   C4A14590   2.537   4.288   6.851  0.0274 -0.1048 -0.0886
 1008YOPC   C1B14591   3.909   4.914   6.740 -0.0264 -0.1717 -0.1304
 1008YOPC   C2B14592   3.949   5.142   7.191  0.1081 -0.2291 -0.0857
 1008YOPC   D3B14593   3.785   5.076   7.530 -0.1164  0.4727 -0.0669
 1008YOPC   C4B14594   3.451   5.070   7.926  0.1167  0.0774  0.1848
 1009YOPC   NC314595  12.790  17.455   5.752  0.2959 -0.1334 -0.2500
 1009YOPC   PO414596  13.271  17.217   5.853  0.0397  0.1141 -0.2742
 1009YOPC   GL114597  13.428  17.128   6.238  0.0367  0.1546  0.4350
 1009YOPC   GL214598  13.671  17.000   6.347 -0.0282 -0.0010 -0.1496
 1009YOPC   C1A14599  13.182  16.985   6.603  0.0897  0.0272 -0.2984
 1009YOPC   D2A14600  12.914  17.013   6.951 -0.1334  0.2940 -0.1202
 1009YOPC   C3A14601  12.820  16.664   7.068  0.3179 -0.2015 -0.0839
 1009YOPC   C4A14602  12.975  16.297   7.246  0.1479 -0.0426 -0.3215
 1009YOPC   C1B14603  13.665  16.964   6.731 -0.1490  0.2663  0.1550
 1009YOPC   C2B14604  13.759  16.853   7.151  0.3886  0.0487 -0.0569
 1009YOPC   D3B14605  13.765  16.410   7.168  0.0730  0.1367 -0.0779
 1009YOPC   C4B14606  13.943  16.097   6.890 -0.0309 -0.0129 -0.1128
 1010YOPC   NC314607  13.931   5.982   6.515 -0.1838 -0.1788  0.2701
 1010YOPC   PO414608  14.338   6.117   6.357  0.1443  0.2748 -0.1024
 1010YOPC   GL114609  14.546   6.155   6.723 -0.1168  0.1960 -0.0023
 1010YOPC   GL214610  14.291   6.028   6.845 -0.1663  0.0170  0.1227
 1010YOPC   C1A14611  15.014   6.309   6.854  0.0207  0.0444  0.2843
 1010YOPC   D2A14612  15.360   6.434   7.214  0.2429 -0.1320  0.2782
 1010YOPC   C3A14613  15.363   6.629   7.516  0.0563  0.0542  0.2113
 1010YOPC   C4A14614  15.204   6.716   7.897 -0.0297  0.0530 -0.0570
 1010YOPC   C1B14615  14.215   6.102   7.330  0.0213  0.0842  0.0867
 1010YOPC   C2B14616  14.220   5.971   7.688  0.0246 -0.2165 -0.0263
 1010YOPC   D3B14617  13.965   6.000   8.019  0.1616 -0.2260  0.2395
 1010YOPC   C4B14618  13.986   6.169   8.551 -0.0679  0.1544  0.2209
 1011YOPC   NC314619   3.713  11.173   5.615 -0.0871  0.0089 -0.1681
 1011YOPC   PO414620   4.096  11.212   5.827  0.1653 -0.1064  0.3768
 1011YOPC   GL114621   3.895  11.056   6.177 -0.2151 -0.2885  0.3706
 1011YOPC   GL214622   3.531  11.124   6.132  0.3529  0.2574  0.1823
 1011YOPC   C1A14623   3.829  10.999   6.571 -0.1748  0.1355  0.2278
 1011YOPC   D2A14624   3.444  11.063   6.774 -0.2086  0.0820  0.1209
 1011YOPC   C3A14625   3.232  11.210   7.163  0.0298 -0.1602 -0.1098
 1011YOPC   C4A14626   3.169  11.397   7.593  0.1431 -0.4496 -0.2921
 1011YOPC   C1B14627   3.342  11.386   6.415 -0.0756  0.0139 -0.0353
 1011YOPC   C2B14628   3.384  11.596   6.749  0.1142 -0.0713  0.0522
 1011YOPC   D3B14629   3.718  11.845   6.966  0.1591  0.0179  0.0395
 1011YOPC   C4B14630   3.824  11.988   7.305 -0.0812  0.1936  0.1306
 1012YOPC   NC314631   4.568   7.989   5.517 -0.0644  0.2111  0.1095
 1012YOPC   PO414632   4.146   8.038   5.711 -0.0448  0.0484 -0.0963
 1012YOPC   GL114633   4.101   8.005   6.243  0.0266 -0.1684  0.0362
 1012YOPC   GL214634   4.414   8.028   6.302  0.0898 -0.2426 -0.3308
 1012YOPC   C1A14635   4.007   7.868   6.645  0.2799  0.0644 -0.2283
 1012YOPC   D2A14636   4.066   7.858   7.048 -0.1908  0.1080  0.1918
 1012YOPC   C3A14637   4.163   8.176   7.111 -0.0828 -0.0462  0.0680
 1012YOPC   C4A14638   4.003   8.643   7.022 -0.0142 -0.1151  0.0145
 1012YOPC   C1B14639   4.505   7.956   6.762 -0.1535  0.1723  0.1338
 1012YOPC   C2B14640   4.691   7.997   7.200  0.1537  0.0955 -0.0417
 1012YOPC   D3B14641   4.549   7.800   7.571 -0.0744  0.2599  0.1792
 1012YOPC   C4B14642   4.566   7.902   7.975  0.0203  0.0827 -0.0270
 1013YOPC   NC314643   3.819   0.974   5.974 -0.0854 -0.2538  0.3409
 1013YOPC   PO414644   4.177   1.131   6.133 -0.0893 -0.0262 -0.0221
 1013YOPC   GL114645   4.309   1.128   6.550 -0.1537 -0.4087 -0.0694
 1013YOPC   GL214646   4.086   1.325   6.681 -0.2260  0.2009  0.0412
 1013YOPC   C1A14647   4.309   1.054   6.998  0.1758  0.0042  0.1835
 1013YOPC   D2A14648   4.430   1.161   7.365  0.0619  0.1414 -0.0319
 1013YOPC   C3A14649   4.172   1.252   7.735 -0.2880  0.1607 -0.0010
 1013YOPC   C4A14650   4.115   1.199   8.109  0.0632  0.0942 -0.2980
 1013YOPC   C1B14651   3.920   1.368   7.214  0.1011 -0.2350  0.1177
 1013YOPC   C2B14652   3.634   1.562   7.563 -0.1168  0.2375  0.1284
 1013YOPC   D3B14653   3.704   1.540   8.019  0.3409  0.2020  0.2853
 1013YOPC   C4B14654   3.496   1.661   8.392 -0.0946  0.0198 -0.0597
 1014YOPC   NC314655  10.921   0.356   5.971  0.3667 -0.2358  0.0940
 1014YOPC   PO414656  11.278   0.676   5.809  0.0922 -0.3065 -0.0035
 1014YOPC   GL114657  11.375   0.474   6.196 -0.1116 -0.0087 -0.0386
 1014YOPC   GL214658  11.267   0.172   6.245  0.2037  0.2395 -0.1234
 1014YOPC   C1A14659  11.558   0.600   6.625 -0.1527  0.0822 -0.0649
 1014YOPC   D2A14660  11.984   0.428   6.649 -0.1139  0.0584  0.0127
 1014YOPC   C3A14661  12.188   0.442   6.995 -0.1902  0.0190  0.1930
 1014YOPC   C4A14662  12.327   0.174   7.224  0.0630  0.1071 -0.0288
 1014YOPC   C1B14663  11.423   0.063   6.654 -0.0928 -0.1728 -0.0420
 1014YOPC   C2B14664  11.603   0.237   7.040 -0.0269 -0.2289 -0.0776
 1014YOPC   D3B14665  11.902  -0.030   7.258  0.0774 -0.0108  0.1708
 1014YOPC   C4B14666  12.220  -0.280   7.405 -0.1892 -0.1365 -0.0028
 1015YOPC   NC314667  10.242  10.767   5.581  0.0197  0.3552  0.4449
 1015YOPC   PO414668  10.763  10.720   5.674 -0.0048  0.0337  0.0490
 1015YOPC   GL114669  10.839  10.691   6.097 -0.3038  0.0246 -0.0885
 1015YOPC   GL214670  11.066  10.511   6.308 -0.0549 -0.0038 -0.0925
 1015YOPC   C1A14671  10.917  10.920   6.603 -0.2461  0.0272  0.2960
 1015YOPC   D2A14672  10.914  11.332   6.798  0.0182 -0.2561  0.1041
 1015YOPC   C3A14673  11.067  11.498   7.206  0.1024 -0.0127 -0.3104
 1015YOPC   C4A14674  11.101  11.491   7.688  0.1479 -0.2056  0.0791
 1015YOPC   C1B14675  11.080  10.351   6.653 -0.0219 -0.0436 -0.1791
 1015YOPC   C2B14676  11.068   9.904   6.708 -0.2111 -0.1614 -0.0992
 1015YOPC   D3B14677  11.435   9.803   6.493 -0.0259  0.1790 -0.1725
 1015YOPC   C4B14678  11.379   9.484   6.838  0.3297  0.0952  0.0303
 1016YOPC   NC314679  13.967  13.686   5.969 -0.0854  0.0398 -0.2458
 1016YOPC   PO414680  14.410  13.711   5.896 -0.1499  0.1444  0.0213
 1016YOPC   GL114681  14.311  13.953   6.255  0.1699  0.1887 -0.1964
 1016YOPC   GL214682  14.547  14.124   6.458 -0.0479 -0.0513  0.1148
 1016YOPC   C1A14683  14.206  13.928   6.739  0.3727 -0.2778 -0.0178
 1016YOPC   D2A14684  14.282  14.117   7.190  0.0152  0.3603  0.2901
 1016YOPC   C3A14685  14.314  13.851   7.491 -0.0459 -0.1989  0.0776
 1016YOPC   C4A14686  14.137  13.808   7.872  0.1690 -0.0299 -0.1906
 1016YOPC   C1B14687  14.490  14.334   6.805  0.1159  0.1352 -0.1380
 1016YOPC   C2B14688  14.632  14.457   7.227 -0.1709  0.1314 -0.2390
 1016YOPC   D3B14689  14.506  14.357   7.626  0.2622 -0.3213  0.2226
 1016YOPC   C4B14690  14.488  14.168   7.939  0.4814 -0.0216 -0.0434
 1017YOPC   NC314691  15.800   6.430   6.191 -0.1113 -0.3928 -0.2646
 1017YOPC   PO414692  16.063   6.704   6.318  0.2140  0.1891  0.2264
 1017YOPC   GL114693  16.399   6.631   6.627 -0.2996  0.2123  0.0695
 1017YOPC   GL214694  16.767   6.711   6.538  0.3651  0.0019 -0.0545
 1017YOPC   C1A14695  16.305   6.528   7.055  0.0454  0.0627 -0.2406
 1017YOPC   D2A14696  16.028   6.730   7.406  0.0242  0.4107  0.2675
 1017YOPC   C3A14697  15.812   6.709   7.689  0.0958  0.1124  0.3302
 1017YOPC   C4A14698  15.813   6.652   8.144 -0.0913  0.2324 -0.2044
 1017YOPC   C1B14699  16.850   6.747   6.992  0.2572 -0.2636 -0.2555
 1017YOPC   C2B14700  16.954   6.802   7.411 -0.0304  0.2229 -0.0883
 1017YOPC   D3B14701  16.847   6.499   7.776  0.0121  0.0275 -0.0827
 1017YOPC   C4B14702  16.589   6.368   8.176 -0.1609  0.3733  0.1582
 1018YOPC   NC314703  11.716  14.678   5.933 -0.1071  0.2662 -0.0674
 1018YOPC   PO414704  12.068  14.673   6.174  0.2198  0.2397  0.2219
 1018YOPC   GL114705  12.157  14.575   6.639 -0.0693  0.0206 -0.2851
 1018YOPC   GL214706  12.239  14.273   6.766  0.1417  0.1720 -0.2428
 1018YOPC   C1A14707  12.245  14.755   7.085  0.2227  0.3375  0.0037
 1018YOPC   D2A14708  12.214  14.786   7.482 -0.0083 -0.0121  0.0360
 1018YOPC   C3A14709  12.524  14.700   7.707  0.1047  0.1161  0.0136
 1018YOPC   C4A14710  12.848  14.334   7.699  0.2573 -0.0144  0.1450
 1018YOPC   C1B14711  11.955  14.375   7.084  0.0802  0.0590 -0.0796
 1018YOPC   C2B14712  11.923  14.237   7.519  0.1222 -0.1244 -0.3535
 1018YOPC   D3B14713  12.209  14.284   7.799  0.0432 -0.2302  0.2188
 1018YOPC   C4B14714  12.512  14.352   8.102 -0.0835 -0.1194  0.4781
 1019YOPC   NC314715  13.776  17.063   5.803  0.1111 -0.0247 -0.2439
 1019YOPC   PO414716  14.077  17.112   6.086 -0.2571 -0.1086 -0.0568
 1019YOPC   GL114717  14.093  17.288   6.395 -0.0599 -0.0036  0.1539
 1019YOPC   GL214718  13.970  17.448   6.577  0.1118 -0.0449 -0.1150
 1019YOPC   C1A14719  14.184  17.083   6.783 -0.0480 -0.0681 -0.3169
 1019YOPC   D2A14720  14.240  16.807   7.009 -0.1905 -0.0046 -0.0417
 1019YOPC   C3A14721  14.504  16.877   7.311 -0.3027 -0.1742 -0.1055
 1019YOPC   C4A14722  14.661  16.769   7.693  0.1165 -0.0729 -0.2060
 1019YOPC   C1B14723  13.816  17.355   6.986  0.0561  0.1685  0.0391
 1019YOPC   C2B14724  13.912  17.249   7.381  0.0688  0.2375 -0.1332
 1019YOPC   D3B14725  14.074  16.917   7.496 -0.1543 -0.0776  0.0061
 1019YOPC   C4B14726  14.153  16.501   7.552 -0.1306 -0.0499  0.0334
 1020YOPC   NC314727   8.671   1.179   6.149 -0.1556  0.0305  0.0386
 1020YOPC   PO414728   8.665   1.522   6.185  0.2042 -0.3751 -0.2084
 1020YOPC   GL114729   8.955   1.527   6.577  0.0167  0.1529  0.3069
 1020YOPC   GL214730   8.862   1.237   6.572 -0.1811 -0.1216 -0.2329
 1020YOPC   C1A14731   9.108   1.602   6.957  0.3347  0.2718  0.1111
 1020YOPC   D2A14732   9.328   1.462   7.245 -0.1089 -0.1323 -0.0880
 1020YOPC   C3A14733   9.574   1.087   7.325 -0.2898  0.0722  0.1961
 1020YOPC   C4A14734   9.680   0.685   7.638 -0.2332  0.1308  0.0345
 1020YOPC   C1B14735   8.479   1.357   6.871  0.0574 -0.1571 -0.0315
 1020YOPC   C2B14736   8.110   1.757   6.974 -0.4576 -0.2497  0.1041
 1020YOPC   D3B14737   8.260   2.187   7.029 -0.2421  0.0477  0.0639
 1020YOPC   C4B14738   8.215   2.550   6.773  0.4209  0.0965  0.2069
 1021YOPC   NC314739   2.025   2.194   6.292  0.1829  0.0418 -0.0547
 1021YOPC   PO414740   2.284   2.486   6.560  0.0001  0.1034  0.0854
 1021YOPC   GL114741   2.494   2.788   6.809  0.1323  0.3331  0.0457
 1021YOPC   GL214742   2.611   3.083   6.807 -0.2250  0.2119 -0.0808
 1021YOPC   C1A14743   2.569   2.861   7.232 -0.1791 -0.2728 -0.1724
 1021YOPC   D2A14744   2.788   3.034   7.607 -0.0548 -0.1213 -0.1312
 1021YOPC   C3A14745   2.535   3.185   7.964  0.0529 -0.0563 -0.2995
 1021YOPC   C4A14746   2.762   3.321   8.308  0.1808 -0.2528 -0.0814
 1021YOPC   C1B14747   2.300   3.284   7.129  0.3562  0.1316  0.1510
 1021YOPC   C2B14748   2.203   3.135   7.497 -0.0342 -0.0128  0.0621
 1021YOPC   D3B14749   2.193   2.699   7.676 -0.0962  0.1639  0.2328
 1021YOPC   C4B14750   1.891   2.288   7.948  0.2084 -0.2118  0.0556
 1022YOPC   NC314751   2.889   9.682   5.447 -0.0391 -0.0837  0.0964
 1022YOPC   PO414752   3.006   9.827   5.878  0.0124  0.1815  0.1631
 1022YOPC   GL114753   2.657   9.838   6.251 -0.1698  0.0191  0.1554
 1022YOPC   GL214754   2.943   9.942   6.343 -0.3277 -0.1509  0.0200
 1022YOPC   C1A14755   2.538  10.140   6.526  0.0525 -0.0814 -0.3197
 1022YOPC   D2A14756   2.507  10.215   6.891  0.2941 -0.0650  0.1593
 1022YOPC   C3A14757   2.515  10.293   7.364 -0.4044  0.1138 -0.0320
 1022YOPC   C4A14758   2.392  10.422   7.840 -0.1161  0.0092  0.0756
 1022YOPC   C1B14759   2.860   9.896   6.750 -0.0478 -0.0820  0.4702
 1022YOPC   C2B14760   2.990   9.611   7.047  0.0811  0.1003 -0.1187
 1022YOPC   D3B14761   3.045   9.787   7.457 -0.1328  0.0423  0.1455
 1022YOPC   C4B14762   2.792   9.989   7.788 -0.0153 -0.3110  0.0541
 1023YOPC   NC314763  14.613   8.114   6.038  0.1916 -0.1313 -0.0283
 1023YOPC   PO414764  14.340   8.420   6.094  0.2239  0.2420 -0.1461
 1023YOPC   GL114765  14.349   8.664   6.515 -0.2245  0.2202  0.0785
 1023YOPC   GL214766  14.507   8.992   6.346  0.0586 -0.1923 -0.0141
 1023YOPC   C1A14767  14.335   8.552   6.974 -0.0905 -0.0310  0.1478
 1023YOPC   D2A14768  14.298   8.428   7.437 -0.2440 -0.0965 -0.1704
 1023YOPC   C3A14769  14.449   8.622   7.809 -0.0952 -0.0092  0.0596
 1023YOPC   C4A14770  14.478   8.433   8.281 -0.0824  0.2702 -0.0849
 1023YOPC   C1B14771  14.452   9.012   6.781  0.1092 -0.2896  0.1459
 1023YOPC   C2B14772  14.201   9.032   7.175  0.2294  0.2844  0.0315
 1023YOPC   D3B14773  13.847   8.814   7.324  0.0101 -0.1468  0.0754
 1023YOPC   C4B14774  13.632   8.848   7.678 -0.0042  0.1153  0.3438
 1024YOPC   NC314775   2.033  15.196   5.712  0.0044  0.0970  0.2759
 1024YOPC   PO414776   1.892  15.047   6.096  0.5042 -0.0513 -0.0017
 1024YOPC   GL114777   2.089  15.095   6.528 -0.0091  0.0193 -0.0136
 1024YOPC   GL214778   2.393  14.980   6.526  0.2098  0.1402  0.1591
 1024YOPC   C1A14779   2.081  15.183   6.937  0.4078 -0.2236 -0.0649
 1024YOPC   D2A14780   2.117  14.957   7.347 -0.1565  0.1336 -0.2713
 1024YOPC   C3A14781   2.518  14.771   7.556  0.0847 -0.1249  0.1175
 1024YOPC   C4A14782   2.896  14.646   7.778  0.0494  0.0035  0.1885
 1024YOPC   C1B14783   2.799  15.025   6.594 -0.3606  0.1263  0.0231
 1024YOPC   C2B14784   3.062  14.859   6.840  0.1373  0.0314 -0.3658
 1024YOPC   D3B14785   2.981  14.817   7.240 -0.0392 -0.0092  0.0682
 1024YOPC   C4B14786   3.234  14.946   7.593 -0.1693 -0.1681 -0.0651
 1025YOPC   NC314787   3.005  15.677   5.516  0.0620 -0.2468  0.0988
 1025YOPC   PO414788   2.703  15.506   5.880  0.1065  0.0051 -0.0919
 1025YOPC   GL114789   2.822  15.868   6.102 -0.3112 -0.1688  0.0988
 1025YOPC   GL214790   3.010  16.158   6.243 -0.0998 -0.1784  0.0455
 1025YOPC   C1A14791   2.653  15.888   6.515 -0.1400  0.2180  0.1911
 1025YOPC   D2A14792   2.224  16.008   6.605  0.0256 -0.2212 -0.2017
 1025YOPC   C3A14793   2.149  16.196   6.936 -0.0976 -0.1825  0.1614
 1025YOPC   C4A14794   2.354  16.332   7.312  0.4336  0.0975  0.1394
 1025YOPC   C1B14795   3.099  16.010   6.722  0.0963  0.2923 -0.1599
 1025YOPC   C2B14796   3.152  16.269   7.047  0.2070 -0.0776  0.1043
 1025YOPC   D3B14797   3.232  16.082   7.419 -0.5294 -0.0278 -0.1095
 1025YOPC   C4B14798   3.032  16.106   7.867  0.1455 -0.1535 -0.2301
 1026YOPC   NC314799   5.114   0.669   6.337  0.0058 -0.2103  0.1463
 1026YOPC   PO414800   5.580   0.758   6.285 -0.1671 -0.0995 -0.0318
 1026YOPC   GL114801   5.391   0.736   6.754 -0.0189 -0.2073 -0.4061
 1026YOPC   GL214802   5.193   0.913   6.927  0.1207  0.3274 -0.2696
 1026YOPC   C1A14803   5.504   0.349   7.093  0.1696  0.0259  0.1341
 1026YOPC   D2A14804   5.715   0.202   7.500 -0.1069 -0.1022 -0.2394
 1026YOPC   C3A14805   6.040   0.324   7.800 -0.1331 -0.1158  0.1898
 1026YOPC   C4A14806   6.300   0.218   8.079  0.0516  0.0940 -0.1363
 1026YOPC   C1B14807   5.388   0.765   7.275  0.3411 -0.0108  0.0277
 1026YOPC   C2B14808   5.502   0.734   7.653 -0.1296  0.1822 -0.2670
 1026YOPC   D3B14809   5.598   0.993   8.109 -0.0484  0.0092 -0.2186
 1026YOPC   C4B14810   5.914   1.336   8.270 -0.0129  0.0976 -0.1028
 1027YOPC   NC314811   2.040   1.600   6.127 -0.0473 -0.2461  0.0368
 1027YOPC   PO414812   2.410   1.897   6.200  0.0122  0.3132 -0.0634
 1027YOPC   GL114813   2.433   1.609   6.501 -0.0849 -0.1685  0.0935
 1027YOPC   GL214814   2.658   1.433   6.547  0.0903  0.1418 -0.0042
 1027YOPC   C1A14815   2.316   1.436   6.947 -0.0748 -0.2838 -0.0742
 1027YOPC   D2A14816   2.085   1.299   7.116  0.2658  0.0646 -0.3714
 1027YOPC   C3A14817   2.100   1.358   7.491  0.1902  0.0358 -0.0467
 1027YOPC   C4A14818   2.310   1.385   7.871 -0.0103  0.1357 -0.0895
 1027YOPC   C1B14819   2.789   1.726   6.820 -0.4196  0.1439 -0.0505
 1027YOPC   C2B14820   2.988   1.928   7.172 -0.0473 -0.0928 -0.2126
 1027YOPC   D3B14821   3.156   2.308   7.229  0.2440 -0.0345 -0.0914
 1027YOPC   C4B14822   3.102   2.760   7.267  0.0661  0.0271 -0.2584
 1028YOPC   NC314823   6.685   1.987   6.025 -0.0814 -0.3631  0.0829
 1028YOPC   PO414824   6.759   2.462   5.956  0.1777 -0.2724  0.0757
 1028YOPC   GL114825   6.597   2.414   6.403  0.1261  0.2555  0.2286
 1028YOPC   GL214826   6.735   2.208   6.608  0.1017 -0.0005 -0.1873
 1028YOPC   C1A14827   6.444   2.626   6.830  0.2470 -0.2676 -0.0150
 1028YOPC   D2A14828   6.247   2.524   7.099  0.1610 -0.0695  0.0881
 1028YOPC   C3A14829   6.419   2.588   7.461 -0.0552  0.1200  0.2681
 1028YOPC   C4A14830   6.734   2.859   7.613 -0.1812  0.4310 -0.1883
 1028YOPC   C1B14831   6.700   2.191   7.037  0.2197  0.0597 -0.1517
 1028YOPC   C2B14832   6.464   2.105   7.313  0.5664 -0.1456  0.1413
 1028YOPC   D3B14833   6.649   1.921   7.697  0.0310 -0.0706 -0.0764
 1028YOPC   C4B14834   6.813   2.020   8.138  0.1136  0.1546  0.2078
 1029YOPC   NC314835   3.320  17.170   6.054  0.2338  0.0600 -0.3176
 1029YOPC   PO414836   3.600  17.491   6.301  0.2733  0.0637 -0.0172
 1029YOPC   GL114837   3.635  17.557   6.663  0.1081 -0.1150 -0.1764
 1029YOPC   GL214838   3.493  17.331   6.842  0.1434  0.0570  0.0746
 1029YOPC   C1A14839   3.626  17.840   6.984  0.2223  0.0514  0.1311
 1029YOPC   D2A14840   3.543  17.814   7.468 -0.2122  0.1039  0.1408
 1029YOPC   C3A14841   3.845  17.717   7.760  0.0890  0.2102  0.1660
 1029YOPC   C4A14842   4.060  17.519   8.077  0.3276 -0.1274 -0.3497
 1029YOPC   C1B14843   3.783  17.036   6.814 -0.2758 -0.0115 -0.2950
 1029YOPC   C2B14844   4.295  16.971   6.747  0.0477 -0.0978  0.0859
 1029YOPC   D3B14845   4.370  16.865   7.211  0.1083 -0.1756  0.2057
 1029YOPC   C4B14846   4.511  16.836   7.638 -0.0672 -0.0107  0.0703
 1030YOPC   NC314847  14.940   8.903   5.782  0.0319 -0.0712  0.2612
 1030YOPC   PO414848  15.248   8.810   5.995 -0.0004  0.0283 -0.1999
 1030YOPC   GL114849  15.177   9.134   6.262  0.1955  0.1525 -0.3500
 1030YOPC   GL214850  15.371   9.347   6.367  0.0391 -0.0941  0.0246
 1030YOPC   C1A14851  14.854   9.321   6.573  0.2113 -0.2367  0.0067
 1030YOPC   D2A14852  14.709   9.344   6.940  0.2037 -0.3231 -0.2033
 1030YOPC   C3A14853  14.941   9.292   7.356 -0.1984  0.2174  0.1018
 1030YOPC   C4A14854  15.165   9.325   7.783 -0.3484 -0.0733 -0.0668
 1030YOPC   C1B14855  15.349   9.305   6.799 -0.3193  0.0965 -0.0724
 1030YOPC   C2B14856  15.412   9.147   7.206  0.0219  0.1780  0.1870
 1030YOPC   D3B14857  15.761   9.196   7.506  0.0325 -0.1429 -0.3123
 1030YOPC   C4B14858  15.935   9.188   7.942  0.1581  0.1440  0.3889
 1031YOPC   NC314859   2.090   4.115   5.961  0.0190  0.0882 -0.3830
 1031YOPC   PO414860   2.328   4.511   5.910 -0.0606  0.0259  0.1297
 1031YOPC   GL114861   2.038   4.498   6.311 -0.1970 -0.3058 -0.1034
 1031YOPC   GL214862   2.185   4.674   6.613 -0.0932  0.0770 -0.1090
 1031YOPC   C1A14863   2.000   4.207   6.782 -0.0235  0.1092  0.1007
 1031YOPC   D2A14864   2.035   4.176   7.224 -0.1204  0.0533 -0.0506
 1031YOPC   C3A14865   2.498   4.143   7.316 -0.2201  0.0902 -0.3841
 1031YOPC   C4A14866   2.903   4.012   7.081  0.1442 -0.4077  0.1467
 1031YOPC   C1B14867   2.213   4.603   7.075  0.1662 -0.1353 -0.2350
 1031YOPC   C2B14868   2.334   4.566   7.515  0.3287 -0.2275 -0.0154
 1031YOPC   D3B14869   2.080   4.566   7.894  0.0924 -0.0888 -0.0349
 1031YOPC   C4B14870   2.071   4.268   8.268 -0.0070  0.0516 -0.1989
 1032YOPC   NC314871   8.892  17.214   5.854 -0.0145  0.0437  0.2455
 1032YOPC   PO414872   8.603  16.904   6.077 -0.0087 -0.2598 -0.0778
 1032YOPC   GL114873   8.612  16.694   6.456  0.2019  0.0302 -0.0137
 1032YOPC   GL214874   8.912  16.661   6.605 -0.0146 -0.1377  0.1976
 1032YOPC   C1A14875   8.453  16.363   6.741 -0.3533 -0.0224 -0.2216
 1032YOPC   D2A14876   8.191  16.268   7.018  0.1589 -0.2618  0.3775
 1032YOPC   C3A14877   8.299  16.289   7.459 -0.0064 -0.0956  0.0047
 1032YOPC   C4A14878   8.414  16.516   7.856 -0.4037  0.1473  0.5017
 1032YOPC   C1B14879   8.766  16.706   7.008 -0.0430  0.1392 -0.0549
 1032YOPC   C2B14880   8.744  16.540   7.462 -0.0516  0.0861 -0.0270
 1032YOPC   D3B14881   8.930  16.607   7.787 -0.2208 -0.2046 -0.1631
 1032YOPC   C4B14882   8.834  16.469   8.222  0.0806  0.0947  0.1173
 1033YOPC   NC314883   2.950   1.407   6.094  0.2393 -0.0764 -0.1340
 1033YOPC   PO414884   3.306   1.170   6.101 -0.2255 -0.0515  0.0257
 1033YOPC   GL114885   2.982   1.049   6.494 -0.0272  0.2429  0.4095
 1033YOPC   GL214886   3.232   0.923   6.618  0.1878 -0.0578  0.2557
 1033YOPC   C1A14887   3.062   1.234   6.938  0.0257 -0.2929  0.1921
 1033YOPC   D2A14888   3.370   1.055   7.238  0.0282 -0.2488 -0.0543
 1033YOPC   C3A14889   3.507   0.924   7.574 -0.1684 -0.0392 -0.0248
 1033YOPC   C4A14890   3.720   1.049   7.869 -0.2465 -0.0256 -0.1415
 1033YOPC   C1B14891   3.469   0.588   6.910  0.1539  0.1442 -0.1691
 1033YOPC   C2B14892   3.755   0.443   7.213  0.0720 -0.1068 -0.3205
 1033YOPC   D3B14893   3.711   0.449   7.705 -0.2268 -0.2018 -0.3451
 1033YOPC   C4B14894   3.390   0.648   7.956 -0.0448  0.0378 -0.2883
 1034YOPC   NC314895  13.824   9.673   5.880 -0.0978 -0.1112 -0.2183
 1034YOPC   PO414896  13.582  10.092   5.965 -0.0551 -0.0595  0.2355
 1034YOPC   GL114897  13.448  10.170   6.432  0.3546 -0.0970  0.3729
 1034YOPC   GL214898  13.645  10.446   6.383 -0.2148  0.0709 -0.1474
 1034YOPC   C1A14899  13.534  10.069   6.868  0.2345 -0.2665  0.1722
 1034YOPC   D2A14900  13.695   9.722   7.176 -0.0079  0.0316  0.0170
 1034YOPC   C3A14901  13.935   9.413   7.494  0.1048  0.2183  0.4411
 1034YOPC   C4A14902  14.138   9.096   7.735 -0.3631  0.2838 -0.0065
 1034YOPC   C1B14903  13.682  10.541   6.846 -0.1252  0.0346  0.0009
 1034YOPC   C2B14904  13.740  10.552   7.194  0.2486  0.2974  0.0682
 1034YOPC   D3B14905  13.614  10.145   7.448  0.0053 -0.0464  0.1595
 1034YOPC   C4B14906  13.833   9.870   7.680 -0.4740  0.2188 -0.0061
 1035YOPC   NC314907  11.207  13.161   6.114  0.0980  0.0505 -0.0002
 1035YOPC   PO414908  11.082  12.767   5.918 -0.2126 -0.0767 -0.0215
 1035YOPC   GL114909  11.145  12.639   6.431  0.0549  0.0248 -0.0902
 1035YOPC   GL214910  11.288  12.306   6.494 -0.1384  0.2273  0.0184
 1035YOPC   C1A14911  11.192  12.752   6.887  0.2816 -0.0711 -0.0204
 1035YOPC   D2A14912  11.054  12.600   7.255  0.2035 -0.2010 -0.2344
 1035YOPC   C3A14913  11.002  12.667   7.669 -0.3454  0.3202 -0.0852
 1035YOPC   C4A14914  10.772  12.665   8.085  0.2590 -0.2974  0.0996
 1035YOPC   C1B14915  11.170  12.245   6.889  0.0055 -0.0393 -0.1802
 1035YOPC   C2B14916  11.072  12.024   7.317  0.0042  0.2396 -0.1710
 1035YOPC   D3B14917  10.722  11.841   7.375 -0.0934  0.0614  0.0911
 1035YOPC   C4B14918  10.560  11.826   7.846 -0.0747  0.2590 -0.0039
 1036YOPC   NC314919  16.268  16.354   5.390 -0.2981  0.2604  0.0086
 1036YOPC   PO414920  16.331  16.534   5.772 -0.0757  0.2468 -0.2527
 1036YOPC   GL114921  16.318  16.591   6.235  0.0390  0.3334  0.0530
 1036YOPC   GL214922  16.501  16.755   6.396 -0.2103  0.0642  0.0588
 1036YOPC   C1A14923  16.167  16.285   6.496 -0.0759  0.1184 -0.0626
 1036YOPC   D2A14924  15.995  15.995   6.840 -0.0081  0.0500 -0.0493
 1036YOPC   C3A14925  16.124  15.847   7.253  0.0092 -0.1247  0.1100
 1036YOPC   C4A14926  16.040  15.743   7.666  0.3106  0.3514 -0.4802
 1036YOPC   C1B14927  16.365  16.720   6.771 -0.0906  0.1133  0.0915
 1036YOPC   C2B14928  16.447  16.262   6.993  0.0368 -0.1365 -0.3227
 1036YOPC   D3B14929  16.789  16.272   7.389 -0.1756  0.1414 -0.0926
 1036YOPC   C4B14930  16.900  16.107   7.766  0.0760  0.1003 -0.0762
 1037YOPC   NC314931   1.413   0.273   6.186 -0.0663 -0.0437 -0.0279
 1037YOPC   PO414932   1.349  -0.214   6.306  0.3287 -0.2261  0.0127
 1037YOPC   GL114933   1.582  -0.122   6.655  0.0708 -0.0236  0.1275
 1037YOPC   GL214934   1.746  -0.431   6.533  0.1649  0.0692 -0.4643
 1037YOPC   C1A14935   1.691   0.215   6.932  0.0607  0.1259  0.2593
 1037YOPC   D2A14936   1.727   0.416   7.334 -0.1986  0.1150  0.1419
 1037YOPC   C3A14937   1.490   0.318   7.663  0.0949 -0.0060 -0.1191
 1037YOPC   C4A14938   1.298   0.009   7.706 -0.1417  0.2241 -0.1920
 1037YOPC   C1B14939   1.775  -0.425   6.957 -0.1653 -0.2109 -0.1313
 1037YOPC   C2B14940   1.723  -0.645   7.325 -0.1519  0.0986  0.3159
 1037YOPC   D3B14941   2.037  -0.586   7.599  0.0419  0.0838 -0.0585
 1037YOPC   C4B14942   2.311  -0.697   7.925  0.1595 -0.1911 -0.1709
 1038YOPC   NC314943   2.817   3.839   6.323 -0.2709  0.1631 -0.3706
 1038YOPC   PO414944   3.159   3.649   6.182 -0.3131 -0.0793 -0.0191
 1038YOPC   GL114945   3.317   3.657   6.566  0.0057  0.0414 -0.2098
 1038YOPC   GL214946   3.263   3.960   6.637 -0.0896 -0.3621 -0.2890
 1038YOPC   C1A14947   3.305   3.638   7.032 -0.2524  0.3345 -0.0124
 1038YOPC   D2A14948   3.218   3.827   7.445  0.2598  0.0677 -0.3124
 1038YOPC   C3A14949   2.956   4.103   7.660  0.1487  0.1777  0.1630
 1038YOPC   C4A14950   2.518   4.190   7.833 -0.0717 -0.1397 -0.0077
 1038YOPC   C1B14951   3.402   4.279   6.933 -0.0525 -0.2951  0.1926
 1038YOPC   C2B14952   3.303   4.441   7.331 -0.1020 -0.1667 -0.2823
 1038YOPC   D3B14953   3.416   4.178   7.740  0.1354 -0.2773  0.0083
 1038YOPC   C4B14954   3.286   3.841   7.981 -0.1611 -0.0480  0.0105
 1039YOPC   NC314955  10.258  10.011   5.306  0.0798  0.2484 -0.1951
 1039YOPC   PO414956  10.483  10.267   5.523 -0.0076  0.2504 -0.1283
 1039YOPC   GL114957  10.464  10.386   5.931 -0.2274 -0.1200 -0.1240
 1039YOPC   GL214958  10.322  10.632   6.093  0.3248 -0.0663 -0.2901
 1039YOPC   C1A14959  10.659  10.258   6.307  0.3032 -0.2818  0.3357
 1039YOPC   D2A14960  10.627  10.234   6.804 -0.0183  0.5978 -0.0467
 1039YOPC   C3A14961  10.926  10.467   7.199 -0.1337 -0.1151  0.3698
 1039YOPC   C4A14962  11.021  10.519   7.643  0.3185 -0.1950  0.0825
 1039YOPC   C1B14963  10.478  10.694   6.507 -0.0463 -0.1177 -0.0480
 1039YOPC   C2B14964  10.566  10.689   6.941  0.2295 -0.0901 -0.2997
 1039YOPC   D3B14965  10.862  10.970   7.146 -0.2393  0.2447 -0.3344
 1039YOPC   C4B14966  11.203  11.048   7.508 -0.2753  0.0820  0.3406
 1040YOPC   NC314967   5.358   3.771   6.202  0.1248 -0.1685 -0.2559
 1040YOPC   PO414968   5.774   3.481   6.171  0.4450 -0.1972  0.3080
 1040YOPC   GL114969   5.586   3.496   6.575  0.0132  0.3284  0.1479
 1040YOPC   GL214970   5.580   3.789   6.664  0.0394  0.3370 -0.0670
 1040YOPC   C1A14971   5.731   3.392   6.985  0.0197  0.0261 -0.0977
 1040YOPC   D2A14972   5.741   3.471   7.449  0.0118 -0.1207  0.0222
 1040YOPC   C3A14973   5.893   3.230   7.737  0.1454  0.2516 -0.1794
 1040YOPC   C4A14974   6.235   3.099   7.934  0.0464 -0.2827 -0.1673
 1040YOPC   C1B14975   5.646   3.844   7.115 -0.0417 -0.3366  0.1032
 1040YOPC   C2B14976   5.510   3.916   7.546 -0.2205 -0.1394 -0.1441
 1040YOPC   D3B14977   5.580   3.615   7.925 -0.0022  0.0983  0.2989
 1040YOPC   C4B14978   5.635   3.519   8.355 -0.1686  0.1010 -0.0852
 1041YOPC   NC314979  14.123  14.423   6.278 -0.0930 -0.0075 -0.0489
 1041YOPC   PO414980  14.471  14.445   5.975  0.1536 -0.0190  0.0389
 1041YOPC   GL114981  14.545  14.652   6.395  0.4321  0.0346 -0.1299
 1041YOPC   GL214982  14.866  14.643   6.516  0.0112  0.0766  0.1593
 1041YOPC   C1A14983  14.401  14.865   6.724 -0.2081  0.2300  0.1641
 1041YOPC   D2A14984  14.576  14.913   7.093  0.2889  0.0093  0.2148
 1041YOPC   C3A14985  14.448  15.155   7.436  0.1136 -0.0667 -0.0187
 1041YOPC   C4A14986  14.481  15.495   7.575  0.1597  0.1095  0.0897
 1041YOPC   C1B14987  14.972  14.460   6.833 -0.2041  0.2734  0.1028
 1041YOPC   C2B14988  15.083  14.658   7.240 -0.3441  0.1905  0.2323
 1041YOPC   D3B14989  14.823  14.783   7.606  0.1608 -0.0043  0.1280
 1041YOPC   C4B14990  14.542  14.887   7.888 -0.0876  0.0019  0.4790
 1042YOPC   NC314991  12.158   0.065   5.152  0.4144 -0.3511 -0.1904
 1042YOPC   PO414992  11.866   0.086   5.509  0.0733  0.2309  0.0577
 1042YOPC   GL114993  11.790  -0.077   5.927  0.1311 -0.2303 -0.1529
 1042YOPC   GL214994  11.526  -0.263   6.013  0.1317 -0.1269 -0.0689
 1042YOPC   C1A14995  11.909   0.001   6.353  0.0602 -0.0410  0.0466
 1042YOPC   D2A14996  12.055  -0.000   6.785 -0.1983  0.0928  0.1276
 1042YOPC   C3A14997  12.441  -0.173   6.883 -0.2184  0.0305  0.1607
 1042YOPC   C4A14998  12.768  -0.276   6.985  0.2425  0.2226  0.1840
 1042YOPC   C1B14999  11.564  -0.382   6.455 -0.2265  0.6547 -0.4471
 1042YOPC   C2B15000  11.646  -0.342   6.891 -0.1307  0.0980 -0.0630
 1042YOPC   D3B15001  11.406  -0.155   7.184  0.0264  0.0871 -0.0714
 1042YOPC   C4B15002  11.493   0.109   7.545  0.2524 -0.2743  0.0060
 1043YOPC   NC315003   8.733   8.499   5.490  0.0823 -0.0383 -0.2555
 1043YOPC   PO415004   9.080   8.338   5.708  0.1350 -0.0696  0.2604
 1043YOPC   GL115005   9.247   8.264   6.104 -0.3701 -0.0042 -0.1377
 1043YOPC   GL215006   8.939   8.032   6.172 -0.0603  0.1363  0.3377
 1043YOPC   C1A15007   9.304   8.228   6.594  0.0912 -0.1754  0.0497
 1043YOPC   D2A15008   9.594   8.222   6.955 -0.1011 -0.0733  0.1472
 1043YOPC   C3A15009   9.547   8.015   7.311  0.1495 -0.0940  0.4366
 1043YOPC   C4A15010   9.463   7.618   7.636 -0.0189  0.4337  0.3595
 1043YOPC   C1B15011   8.888   7.740   6.487 -0.1640  0.3184  0.0863
 1043YOPC   C2B15012   8.750   7.693   6.876  0.0390 -0.0692 -0.0397
 1043YOPC   D3B15013   8.922   7.622   7.311  0.0660  0.1488 -0.0075
 1043YOPC   C4B15014   8.896   7.479   7.735 -0.5342 -0.0322 -0.1191
 1044YOPC   NC315015   6.215   4.174   6.196  0.3415 -0.1565  0.2018
 1044YOPC   PO415016   6.530   4.383   6.206 -0.0439 -0.0146 -0.0566
 1044YOPC   GL115017   6.558   4.436   6.610 -0.1874  0.0841  0.1243
 1044YOPC   GL215018   6.440   4.815   6.630  0.0533 -0.2126  0.0960
 1044YOPC   C1A15019   6.686   4.312   7.045 -0.0431  0.0472 -0.0164
 1044YOPC   D2A15020   6.619   4.159   7.403  0.1418  0.1245  0.0279
 1044YOPC   C3A15021   6.401   4.312   7.694 -0.0998 -0.2010  0.1032
 1044YOPC   C4A15022   6.259   4.155   8.087 -0.0752 -0.2372  0.0770
 1044YOPC   C1B15023   6.643   4.824   6.987 -0.2388 -0.1078 -0.1554
 1044YOPC   C2B15024   6.880   4.647   7.400  0.0057  0.2024  0.0735
 1044YOPC   D3B15025   6.886   4.336   7.834  0.3034  0.1482 -0.1106
 1044YOPC   C4B15026   6.799   4.130   8.196 -0.0174 -0.0360 -0.1045
 1045YOPC   NC315027  17.559   5.649   6.242  0.3371 -0.2365 -0.0532
 1045YOPC   PO415028  17.924   5.500   6.100  0.1268 -0.0046 -0.1339
 1045YOPC   GL115029  17.987   5.564   6.474  0.0051 -0.0703 -0.0745
 1045YOPC   GL215030  18.313   5.786   6.419  0.1144 -0.3773 -0.0292
 1045YOPC   C1A15031  17.862   5.548   6.937  0.0501  0.2941  0.3001
 1045YOPC   D2A15032  17.901   5.842   7.264 -0.1106  0.2631  0.0674
 1045YOPC   C3A15033  18.139   6.135   7.275 -0.2130 -0.1244  0.1682
 1045YOPC   C4A15034  18.233   6.546   7.191 -0.1782 -0.1045  0.0195
 1045YOPC   C1B15035  18.165   6.018   6.793  0.2998  0.0565 -0.1339
 1045YOPC   C2B15036  18.610   6.072   7.059 -0.0486 -0.0290  0.1891
 1045YOPC   D3B15037  18.673   6.168   7.407  0.0690  0.1298  0.1633
 1045YOPC   C4B15038  18.410   6.371   7.683 -0.3511 -0.2705 -0.1283
 1046YOPC   NC315039   6.113  11.701   5.788 -0.1332  0.4215 -0.1598
 1046YOPC   PO415040   5.840  11.392   5.774 -0.0469  0.2050  0.4903
 1046YOPC   GL115041   5.657  11.247   6.123 -0.0137 -0.1478  0.0740
 1046YOPC   GL215042   5.797  10.924   6.297 -0.0784  0.1603  0.2039
 1046YOPC   C1A15043   5.560  11.350   6.551  0.0066 -0.1584  0.0843
 1046YOPC   D2A15044   5.656  11.255   6.961 -0.2685  0.4010 -0.2550
 1046YOPC   C3A15045   5.616  11.636   7.307 -0.1035 -0.3940  0.1585
 1046YOPC   C4A15046   5.248  11.865   7.418 -0.2413  0.2692  0.1052
 1046YOPC   C1B15047   5.981  11.075   6.615 -0.0869 -0.1182  0.0847
 1046YOPC   C2B15048   6.095  11.077   7.035  0.0704 -0.1804 -0.1508
 1046YOPC   D3B15049   5.977  11.303   7.400 -0.1715  0.0272  0.0891
 1046YOPC   C4B15050   5.670  11.321   7.650 -0.1876 -0.1198 -0.2266
 1047YOPC   NC315051   4.741  10.070   5.744  0.0769  0.1653 -0.1369
 1047YOPC   PO415052   5.144   9.850   5.764 -0.3685  0.1626  0.1051
 1047YOPC   GL115053   4.919   9.603   5.991  0.0684 -0.0073  0.0958
 1047YOPC   GL215054   4.815   9.598   6.362 -0.0487 -0.3770 -0.2307
 1047YOPC   C1A15055   4.465   9.411   6.044 -0.1498  0.1380 -0.1231
 1047YOPC   D2A15056   4.185   9.427   6.235 -0.1544 -0.0408  0.0858
 1047YOPC   C3A15057   4.225   9.573   6.579  0.1689  0.2089 -0.1411
 1047YOPC   C4A15058   4.454   9.556   6.757 -0.0281 -0.0462 -0.2732
 1047YOPC   C1B15059   4.914   9.871   6.679  0.0757  0.1197 -0.0294
 1047YOPC   C2B15060   5.103   9.950   7.033  0.0568  0.1957  0.0272
 1047YOPC   D3B15061   5.032   9.998   7.458 -0.0730  0.0380 -0.0847
 1047YOPC   C4B15062   5.170  10.150   7.913 -0.1283  0.3894  0.2595
 1048YOPC   NC315063  15.117   4.996   5.935  0.0738 -0.0375 -0.2313
 1048YOPC   PO415064  15.400   4.883   6.425  0.2898 -0.0080 -0.0485
 1048YOPC   GL115065  15.174   4.979   6.751 -0.0798 -0.1064  0.0093
 1048YOPC   GL215066  15.266   5.115   6.957 -0.1563  0.0141 -0.4961
 1048YOPC   C1A15067  14.864   4.919   7.112 -0.1219 -0.2553 -0.1059
 1048YOPC   D2A15068  14.713   5.051   7.515 -0.0148 -0.1084 -0.1406
 1048YOPC   C3A15069  14.940   4.988   7.899  0.1692  0.0062  0.0075
 1048YOPC   C4A15070  14.843   5.096   8.379 -0.0962 -0.2841  0.0633
 1048YOPC   C1B15071  15.231   5.073   7.412 -0.1982 -0.1103 -0.1872
 1048YOPC   C2B15072  15.438   5.161   7.762 -0.1747  0.0439 -0.1521
 1048YOPC   D3B15073  15.670   4.870   8.114 -0.2918 -0.3680  0.0673
 1048YOPC   C4B15074  15.958   4.444   8.194  0.0591 -0.1143  0.2530
 1049YOPC   NC315075   5.753  15.919   6.007 -0.0211  0.3778  0.0097
 1049YOPC   PO415076   6.250  15.756   6.181  0.0781  0.3491 -0.2539
 1049YOPC   GL115077   6.520  15.844   6.503  0.1643 -0.2703  0.1179
 1049YOPC   GL215078   6.103  15.832   6.669  0.1929 -0.0059 -0.0748
 1049YOPC   C1A15079   6.504  15.931   6.998 -0.0785 -0.1350  0.0742
 1049YOPC   D2A15080   6.450  15.703   7.320 -0.0377  0.1690 -0.0309
 1049YOPC   C3A15081   6.672  15.559   7.642 -0.0582 -0.2399  0.2895
 1049YOPC   C4A15082   6.729  15.662   8.047 -0.0348  0.2099  0.1322
 1049YOPC   C1B15083   6.045  15.928   7.174 -0.1007  0.0846  0.0222
 1049YOPC   C2B15084   5.973  15.706   7.535 -0.0968 -0.1171 -0.1068
 1049YOPC   D3B15085   6.249  15.675   7.870 -0.1787 -0.1538 -0.3496
 1049YOPC   C4B15086   6.334  15.869   8.239  0.0930 -0.2093  0.2842
 1050YOPC   NC315087  12.204   9.409   5.698 -0.0708  0.0028 -0.1650
 1050YOPC   PO415088  12.538   9.161   5.911  0.1137  0.0542  0.0616
 1050YOPC   GL115089  12.526   9.084   6.351  0.2737 -0.1856 -0.0578
 1050YOPC   GL215090  12.557   9.340   6.607  0.2975 -0.1625  0.0308
 1050YOPC   C1A15091  12.600   8.931   6.781  0.3836 -0.0726  0.1165
 1050YOPC   D2A15092  12.304   8.789   7.149 -0.0862 -0.1513 -0.2562
 1050YOPC   C3A15093  11.979   8.965   7.415 -0.1402 -0.0192  0.3092
 1050YOPC   C4A15094  11.823   9.191   7.735  0.2054 -0.0003 -0.1663
 1050YOPC   C1B15095  12.357   9.625   6.838  0.2680  0.2476 -0.3440
 1050YOPC   C2B15096  12.291   9.907   7.232 -0.0889  0.1916  0.1093
 1050YOPC   D3B15097  12.311   9.711   7.544  0.2531 -0.2029  0.0372
 1050YOPC   C4B15098  12.221   9.655   7.936 -0.0639 -0.1699  0.0312
 1051YOPC   NC315099  14.006  10.404   5.959  0.0547 -0.0957  0.1537
 1051YOPC   PO415100  14.216  10.676   6.261  0.2458 -0.1980 -0.0014
 1051YOPC   GL115101  14.340  10.584   6.646  0.2645 -0.0310 -0.3327
 1051YOPC   GL215102  14.449  10.317   6.616 -0.0473 -0.2135 -0.3976
 1051YOPC   C1A15103  14.218  10.715   6.992 -0.0944  0.1694  0.4908
 1051YOPC   D2A15104  14.061  11.047   7.305 -0.0325  0.0205 -0.2579
 1051YOPC   C3A15105  13.935  10.824   7.722  0.1221 -0.2038  0.0431
 1051YOPC   C4A15106  13.886  10.430   7.753 -0.0846 -0.0683 -0.1352
 1051YOPC   C1B15107  14.567  10.410   7.110  0.1385  0.1925 -0.1371
 1051YOPC   C2B15108  14.658  10.213   7.569  0.0731 -0.0497 -0.0578
 1051YOPC   D3B15109  14.884  10.347   7.927 -0.0356  0.0381  0.3715
 1051YOPC   C4B15110  15.213  10.271   8.230 -0.2401 -0.2280  0.2818
 1052YOPC   NC315111  17.119  10.984   5.730  0.0627  0.2158 -0.1006
 1052YOPC   PO415112  17.246  11.375   5.735  0.1041  0.0307 -0.1371
 1052YOPC   GL115113  17.401  11.276   6.106 -0.0469 -0.1853 -0.0056
 1052YOPC   GL215114  17.611  11.017   6.108 -0.1671  0.1958  0.3595
 1052YOPC   C1A15115  17.452  11.396   6.520  0.3829  0.2559  0.0263
 1052YOPC   D2A15116  17.310  11.583   6.935  0.0052  0.0099  0.2567
 1052YOPC   C3A15117  17.406  11.362   7.333 -0.1957 -0.0890  0.1289
 1052YOPC   C4A15118  17.309  11.378   7.722  0.0731  0.1505  0.1018
 1052YOPC   C1B15119  17.732  10.917   6.478 -0.1801 -0.0353 -0.1104
 1052YOPC   C2B15120  18.158  10.972   6.638  0.1095 -0.0681 -0.2097
 1052YOPC   D3B15121  18.178  10.874   7.071 -0.2421  0.0631 -0.1683
 1052YOPC   C4B15122  18.317  10.812   7.482  0.2149 -0.2312  0.1724
 1053YOPC   NC315123  11.331  10.941   6.122  0.1413  0.1109  0.0790
 1053YOPC   PO415124  11.600  10.722   6.354 -0.0101 -0.0103  0.0603
 1053YOPC   GL115125  11.442  10.891   6.646  0.0528 -0.5586  0.0941
 1053YOPC   GL215126  11.372  10.687   6.816 -0.0383  0.1261 -0.0750
 1053YOPC   C1A15127  11.396  11.176   6.949 -0.2001 -0.2601 -0.1435
 1053YOPC   D2A15128  11.760  11.241   7.345  0.2266  0.1193  0.0476
 1053YOPC   C3A15129  11.575  11.282   7.768  0.1341  0.3006 -0.0564
 1053YOPC   C4A15130  11.862  11.122   8.079  0.4914 -0.0449  0.1930
 1053YOPC   C1B15131  11.389  10.493   7.223 -0.3475  0.2551  0.1482
 1053YOPC   C2B15132  11.301  10.146   7.541  0.0025  0.1650 -0.1620
 1053YOPC   D3B15133  11.282  10.212   7.955 -0.2982 -0.1197 -0.1052
 1053YOPC   C4B15134  11.034  10.497   8.215 -0.0118  0.1027  0.2961
 1054YOPC   NC315135   8.908  14.500   5.720 -0.0336 -0.0486  0.5331
 1054YOPC   PO415136   8.962  14.548   6.202 -0.1128 -0.3024 -0.1186
 1054YOPC   GL115137   8.688  14.536   6.523 -0.1754 -0.1608 -0.3286
 1054YOPC   GL215138   8.380  14.693   6.510  0.0698 -0.0092  0.1247
 1054YOPC   C1A15139   8.695  14.573   6.951 -0.0775 -0.0549 -0.2927
 1054YOPC   D2A15140   8.758  14.776   7.244  0.0401 -0.1843 -0.1973
 1054YOPC   C3A15141   8.493  15.106   7.282 -0.0741 -0.0546  0.1803
 1054YOPC   C4A15142   8.214  15.405   7.162 -0.1018  0.2753  0.2578
 1054YOPC   C1B15143   8.249  14.417   6.837  0.0337 -0.0497  0.0083
 1054YOPC   C2B15144   8.518  14.153   7.231  0.0633 -0.1736 -0.2051
 1054YOPC   D3B15145   8.319  14.209   7.560  0.1168  0.1409  0.0855
 1054YOPC   C4B15146   8.516  14.122   7.904  0.1866 -0.1125  0.0276
 1055YOPC   NC315147  14.684   9.864   5.841 -0.3168 -0.1559 -0.0490
 1055YOPC   PO415148  14.224   9.918   5.742 -0.0925  0.0067  0.2356
 1055YOPC   GL115149  14.229   9.645   6.174  0.0730  0.3219  0.1910
 1055YOPC   GL215150  14.523   9.785   6.366 -0.3331  0.3123  0.1456
 1055YOPC   C1A15151  14.213   9.389   6.558  0.0084 -0.1053 -0.0536
 1055YOPC   D2A15152  14.223   9.531   7.051  0.1023 -0.0054  0.0127
 1055YOPC   C3A15153  14.408   9.373   7.389  0.0285  0.0241 -0.0372
 1055YOPC   C4A15154  14.630   9.350   7.722 -0.2154  0.1881 -0.0579
 1055YOPC   C1B15155  14.599   9.859   6.765 -0.0221 -0.2271 -0.2298
 1055YOPC   C2B15156  14.612   9.827   7.234  0.2841 -0.0679 -0.0128
 1055YOPC   D3B15157  14.323   9.845   7.554  0.1212  0.0650  0.4287
 1055YOPC   C4B15158  14.216  10.100   7.845 -0.1210  0.0146  0.1269
 1056YOPC   NC315159  17.810  12.252   5.749  0.0563  0.2240 -0.2292
 1056YOPC   PO415160  17.397  12.080   5.884  0.0030  0.2237  0.1478
 1056YOPC   GL115161  17.483  12.314   6.270 -0.2646  0.0916 -0.0290
 1056YOPC   GL215162  17.748  12.360   6.235 -0.0210 -0.0990  0.1034
 1056YOPC   C1A15163  17.509  12.399   6.723  0.2191  0.0802  0.0038
 1056YOPC   D2A15164  17.582  12.435   7.040  0.2978 -0.0084 -0.0273
 1056YOPC   C3A15165  17.286  12.754   7.243 -0.1165 -0.3407  0.1868
 1056YOPC   C4A15166  16.808  12.750   7.322  0.1783  0.1619  0.0475
 1056YOPC   C1B15167  17.955  12.335   6.591 -0.1522  0.0083 -0.1705
 1056YOPC   C2B15168  18.110  12.324   7.081  0.1647  0.1715  0.2379
 1056YOPC   D3B15169  18.476  12.387   7.134 -0.0415 -0.0726  0.0221
 1056YOPC   C4B15170  18.787  12.093   7.284  0.0335  0.1845 -0.1243
 1057YOPC   NC315171   0.141   4.716   6.098  0.3104  0.1208 -0.1523
 1057YOPC   PO415172   0.286   4.991   6.281 -0.3899  0.1338 -0.0040
 1057YOPC   GL115173   0.353   5.071   6.653  0.0288 -0.3129 -0.2262
 1057YOPC   GL215174   0.596   5.380   6.680  0.0032 -0.1689 -0.0303
 1057YOPC   C1A15175   0.379   5.166   7.145 -0.0394  0.1110  0.0078
 1057YOPC   D2A15176   0.194   5.351   7.538 -0.1272  0.2276 -0.2110
 1057YOPC   C3A15177   0.384   5.613   7.944  0.1833 -0.1006  0.3047
 1057YOPC   C4A15178   0.627   5.896   8.153  0.1144 -0.0470 -0.1056
 1057YOPC   C1B15179   0.524   5.631   7.020 -0.0847  0.1655 -0.1478
 1057YOPC   C2B15180   0.514   5.729   7.461 -0.0359 -0.0711 -0.2281
 1057YOPC   D3B15181   0.978   5.731   7.666  0.0506  0.1094  0.2035
 1057YOPC   C4B15182   1.249   5.744   8.072 -0.1791  0.0983  0.1716
 1058YOPC   NC315183  11.245   9.150   5.557  0.1600 -0.0200 -0.3619
 1058YOPC   PO415184  10.758   9.408   5.766  0.1443  0.1175  0.0731
 1058YOPC   GL115185  10.652   9.307   6.176  0.0951 -0.0766 -0.0183
 1058YOPC   GL215186  10.597   9.661   6.280 -0.1313  0.0464 -0.0694
 1058YOPC   C1A15187  10.662   8.974   6.501  0.1185  0.1985 -0.3447
 1058YOPC   D2A15188  10.500   8.695   6.708 -0.2258 -0.1505  0.2009
 1058YOPC   C3A15189  10.408   8.583   7.112  0.3590 -0.2445  0.3809
 1058YOPC   C4A15190  10.281   8.523   7.560 -0.0894 -0.2460  0.0456
 1058YOPC   C1B15191  10.873   9.443   6.605 -0.1614  0.1714 -0.0389
 1058YOPC   C2B15192  10.894   9.511   6.999  0.1582 -0.0277  0.1185
 1058YOPC   D3B15193  11.212   9.604   7.282 -0.1179  0.2447  0.2081
 1058YOPC   C4B15194  11.338   9.302   7.646  0.2538 -0.1611  0.1798
 1059YOPC   NC315195   4.737   1.250   6.269  0.1088 -0.0483 -0.1188
 1059YOPC   PO415196   4.568   1.538   6.411  0.1768 -0.0192 -0.2255
 1059YOPC   GL115197   4.640   1.494   6.788  0.0484 -0.2485 -0.0872
 1059YOPC   GL215198   4.681   1.761   6.867 -0.1539 -0.0992 -0.2800
 1059YOPC   C1A15199   4.824   1.160   7.071 -0.0837  0.0342 -0.3187
 1059YOPC   D2A15200   4.909   0.991   7.450 -0.2627 -0.2216  0.3669
 1059YOPC   C3A15201   4.599   0.983   7.812  0.3522 -0.1999 -0.1353
 1059YOPC   C4A15202   4.498   0.858   8.193 -0.2588 -0.1733 -0.0694
 1059YOPC   C1B15203   4.774   1.561   7.312  0.0506  0.1939 -0.0990
 1059YOPC   C2B15204   4.910   1.414   7.678  0.0009  0.1942  0.1202
 1059YOPC   D3B15205   4.621   1.423   7.970 -0.0169 -0.1252  0.1926
 1059YOPC   C4B15206   4.547   1.563   8.384 -0.1750  0.1192  0.0300
 1060YOPC   NC315207   7.817   8.936   6.163  0.0195 -0.0271  0.2820
 1060YOPC   PO415208   8.181   8.714   6.028 -0.1235  0.0536  0.0319
 1060YOPC   GL115209   8.147   8.565   6.437 -0.0882 -0.0780  0.4127
 1060YOPC   GL215210   7.997   8.196   6.612  0.2592  0.1794 -0.1201
 1060YOPC   C1A15211   8.363   8.441   6.783  0.0972  0.0449 -0.1257
 1060YOPC   D2A15212   8.394   8.391   7.188 -0.0217 -0.0740 -0.0441
 1060YOPC   C3A15213   8.762   8.252   7.551  0.0970  0.4522 -0.1319
 1060YOPC   C4A15214   9.039   7.945   7.779 -0.0711 -0.1546  0.2858
 1060YOPC   C1B15215   7.895   8.313   6.971 -0.0823  0.0044 -0.1646
 1060YOPC   C2B15216   7.932   8.304   7.390 -0.1686 -0.0114  0.0867
 1060YOPC   D3B15217   8.272   8.506   7.662  0.2557 -0.1185  0.0260
 1060YOPC   C4B15218   8.598   8.672   7.921 -0.0860 -0.1125 -0.2080
 1061YOPC   NC315219   1.287   7.837   5.846 -0.0021  0.1790  0.0544
 1061YOPC   PO415220   1.487   8.138   5.996 -0.0587  0.0574 -0.0248
 1061YOPC   GL115221   1.586   8.077   6.349 -0.0169  0.0742 -0.3880
 1061YOPC   GL215222   1.787   8.262   6.415 -0.3140  0.0246 -0.1883
 1061YOPC   C1A15223   1.607   8.117   6.868 -0.3707  0.3165  0.1377
 1061YOPC   D2A15224   1.518   7.859   7.215 -0.3441  0.0781 -0.0163
 1061YOPC   C3A15225   1.751   8.064   7.580 -0.2920 -0.1845 -0.1020
 1061YOPC   C4A15226   1.913   8.146   7.973  0.1032  0.0517 -0.0450
 1061YOPC   C1B15227   1.838   8.565   6.762  0.1575 -0.1697 -0.2280
 1061YOPC   C2B15228   1.932   8.558   7.169 -0.0132  0.2223  0.0896
 1061YOPC   D3B15229   1.729   8.692   7.498 -0.1947  0.0363 -0.0777
 1061YOPC   C4B15230   1.883   8.826   7.896  0.1751 -0.1424 -0.1092
 1062YOPC   NC315231   4.361  10.834   5.702 -0.2035  0.0418  0.1129
 1062YOPC   PO415232   4.764  11.104   5.809 -0.2109 -0.0913 -0.0467
 1062YOPC   GL115233   4.482  11.104   6.151  0.0173  0.2304  0.1259
 1062YOPC   GL215234   4.309  10.770   6.209  0.0126  0.1334 -0.1370
 1062YOPC   C1A15235   4.339  11.226   6.439 -0.0450 -0.2355 -0.2428
 1062YOPC   D2A15236   4.359  11.493   6.741 -0.0561 -0.3369  0.2817
 1062YOPC   C3A15237   4.230  11.351   7.205 -0.2953  0.0519 -0.0565
 1062YOPC   C4A15238   4.141  11.137   7.551  0.1415 -0.4445  0.2882
 1062YOPC   C1B15239   4.499  10.447   6.320  0.1039  0.0815 -0.3384
 1062YOPC   C2B15240   4.510  10.302   6.673 -0.1557 -0.0539  0.3037
 1062YOPC   D3B15241   4.580   9.965   7.031 -0.2825  0.0834 -0.2050
 1062YOPC   C4B15242   4.835   9.571   7.213 -0.2772 -0.0369 -0.2657
 1063YOPC   NC315243  17.272  13.309   5.405  0.0062 -0.2389  0.0327
 1063YOPC   PO415244  16.987  13.591   5.607 -0.1269 -0.2821 -0.2327
 1063YOPC   GL115245  17.196  13.236   5.928  0.1035  0.1491 -0.1077
 1063YOPC   GL215246  17.481  13.084   5.773  0.1584 -0.0420  0.2720
 1063YOPC   C1A15247  17.219  13.393   6.326  0.1408 -0.2186 -0.1455
 1063YOPC   D2A15248  17.244  13.561   6.757 -0.5469 -0.1036  0.2351
 1063YOPC   C3A15249  17.636  13.677   6.987  0.4164  0.0306  0.1914
 1063YOPC   C4A15250  17.828  14.022   7.091  0.0635 -0.1318 -0.2391
 1063YOPC   C1B15251  17.674  13.183   6.129 -0.2952 -0.0322 -0.0419
 1063YOPC   C2B15252  17.702  13.384   6.465 -0.0342 -0.0126 -0.1074
 1063YOPC   D3B15253  17.709  13.784   6.456  0.2078 -0.3792 -0.2267
 1063YOPC   C4B15254  17.861  14.165   6.385  0.0098 -0.2533 -0.2248
 1064YOPC   NC315255  11.100  14.961   5.920 -0.0330  0.3262 -0.1229
 1064YOPC   PO415256  11.151  15.348   6.024 -0.3299 -0.0985 -0.1000
 1064YOPC   GL115257  11.026  15.348   6.498 -0.0239 -0.0297  0.3800
 1064YOPC   GL215258  10.750  15.570   6.601 -0.0250  0.2286  0.2896
 1064YOPC   C1A15259  11.129  15.421   6.906  0.0348 -0.0291  0.1877
 1064YOPC   D2A15260  11.186  15.708   7.208  0.0575 -0.4006 -0.0395
 1064YOPC   C3A15261  11.060  15.927   7.629 -0.1485 -0.1632 -0.1062
 1064YOPC   C4A15262  11.233  15.982   8.051 -0.0265  0.2698 -0.2130
 1064YOPC   C1B15263  10.673  15.799   6.932 -0.2513 -0.1784 -0.1642
 1064YOPC   C2B15264  10.625  15.851   7.380  0.2458 -0.0983 -0.1029
 1064YOPC   D3B15265  10.485  15.741   7.793 -0.1043 -0.1457  0.1401
 1064YOPC   C4B15266  10.863  15.651   8.005  0.2303  0.2437 -0.0942
 1065YOPC   NC315267   7.119   5.351   5.839  0.1757 -0.3003 -0.1379
 1065YOPC   PO415268   7.097   5.178   6.275  0.2423  0.1248 -0.1563
 1065YOPC   GL115269   6.972   5.071   6.748 -0.0806 -0.1765  0.1635
 1065YOPC   GL215270   6.702   5.308   6.789  0.2422 -0.2323  0.0648
 1065YOPC   C1A15271   7.120   5.040   7.168 -0.1018  0.0733 -0.0705
 1065YOPC   D2A15272   7.141   5.039   7.537 -0.2524 -0.0926  0.1775
 1065YOPC   C3A15273   7.239   4.726   7.781 -0.1157 -0.2784 -0.3526
 1065YOPC   C4A15274   7.408   4.272   7.651  0.3190  0.0523 -0.1572
 1065YOPC   C1B15275   6.654   5.259   7.177 -0.0237  0.0468  0.0961
 1065YOPC   C2B15276   6.623   5.267   7.633  0.1719 -0.0726 -0.1948
 1065YOPC   D3B15277   6.884   5.061   7.963 -0.1732  0.1159  0.3735
 1065YOPC   C4B15278   6.974   4.752   8.221 -0.2678 -0.0335 -0.3074
 1066YOPC   NC315279   2.647   7.482   6.086 -0.0061  0.1394  0.0156
 1066YOPC   PO415280   2.165   7.484   5.838 -0.2598 -0.2433  0.3867
 1066YOPC   GL115281   2.122   7.508   6.257  0.0086  0.1554  0.1813
 1066YOPC   GL215282   2.253   7.241   6.372 -0.0283  0.0551  0.0044
 1066YOPC   C1A15283   2.058   7.638   6.681 -0.1136  0.2953  0.4081
 1066YOPC   D2A15284   1.851   7.517   7.102  0.1744 -0.1153  0.0630
 1066YOPC   C3A15285   2.184   7.275   7.413  0.1879  0.0973 -0.0577
 1066YOPC   C4A15286   2.447   7.332   7.745  0.1363  0.0810 -0.1966
 1066YOPC   C1B15287   2.396   7.262   6.780 -0.1564 -0.2155 -0.2417
 1066YOPC   C2B15288   2.404   6.989   7.088 -0.0639 -0.1475  0.0068
 1066YOPC   D3B15289   2.624   6.767   7.450 -0.1134  0.1011 -0.1213
 1066YOPC   C4B15290   2.704   6.671   7.938 -0.0511  0.0392  0.3988
 1067YOPC   NC315291  17.026  10.433   5.679 -0.0914 -0.0950  0.2587
 1067YOPC   PO415292  17.474  10.597   5.794 -0.0688 -0.0604 -0.1987
 1067YOPC   GL115293  17.367  10.226   6.140 -0.0993 -0.0163 -0.4022
 1067YOPC   GL215294  17.623  10.123   6.269  0.0706 -0.1530 -0.0013
 1067YOPC   C1A15295  17.220  10.187   6.505  0.2356  0.1543 -0.0357
 1067YOPC   D2A15296  17.318  10.298   6.919 -0.0833  0.0030  0.0997
 1067YOPC   C3A15297  17.454  10.020   7.228 -0.1819 -0.0215 -0.0878
 1067YOPC   C4A15298  17.591   9.592   7.243 -0.0181  0.0029  0.0544
 1067YOPC   C1B15299  17.638  10.418   6.580  0.4121 -0.1742 -0.0164
 1067YOPC   C2B15300  17.796  10.581   6.976  0.0094 -0.2985 -0.2035
 1067YOPC   D3B15301  17.751  10.462   7.331  0.3271 -0.0135  0.2661
 1067YOPC   C4B15302  17.968  10.471   7.709 -0.2741  0.3954  0.1926
 1068YOPC   NC315303   1.246  13.158   5.680 -0.0237  0.2587  0.1467
 1068YOPC   PO415304   0.971  13.552   5.666  0.0713 -0.0444 -0.1058
 1068YOPC   GL115305   1.306  13.507   6.048  0.2776 -0.0418  0.2090
 1068YOPC   GL215306   1.567  13.282   6.090 -0.2671  0.1380 -0.2010
 1068YOPC   C1A15307   1.266  13.488   6.533  0.1114  0.0522 -0.0658
 1068YOPC   D2A15308   1.267  13.391   6.947 -0.2215 -0.2690  0.2459
 1068YOPC   C3A15309   1.191  13.380   7.359 -0.1978 -0.0417  0.2781
 1068YOPC   C4A15310   1.337  13.571   7.754 -0.1707 -0.2890 -0.0162
 1068YOPC   C1B15311   1.772  13.431   6.437  0.1145 -0.0195 -0.0066
 1068YOPC   C2B15312   1.750  13.589   6.885  0.1159  0.1185 -0.1639
 1068YOPC   D3B15313   1.596  13.213   7.254 -0.1362 -0.2836  0.0151
 1068YOPC   C4B15314   1.454  12.998   7.492 -0.0550 -0.0751 -0.0989
 1069YOPC   NC315315   6.296   1.255   5.638 -0.0485 -0.1109  0.1338
 1069YOPC   PO415316   6.320   1.714   5.756  0.4508 -0.0401  0.2405
 1069YOPC   GL115317   6.304   1.712   6.210 -0.0250 -0.2605 -0.5388
 1069YOPC   GL215318   6.316   1.933   6.352  0.1113  0.0693  0.1575
 1069YOPC   C1A15319   6.367   1.473   6.581  0.2003  0.1029 -0.2557
 1069YOPC   D2A15320   6.501   1.211   6.917  0.0419 -0.3025  0.0864
 1069YOPC   C3A15321   6.202   1.001   7.176 -0.2121  0.0588 -0.2475
 1069YOPC   C4A15322   5.936   0.609   7.309 -0.2380  0.0038  0.2789
 1069YOPC   C1B15323   6.313   1.931   6.755  0.0251 -0.1540  0.2883
 1069YOPC   C2B15324   6.676   1.730   6.899  0.0399 -0.3051  0.0371
 1069YOPC   D3B15325   6.597   1.509   7.277  0.0962 -0.1100  0.0358
 1069YOPC   C4B15326   6.689   1.399   7.664  0.0554  0.1154  0.3158
 1070YOPC   NC315327  16.729  13.206   5.568  0.0576 -0.0458  0.0398
 1070YOPC   PO415328  17.019  12.896   5.568  0.2065 -0.1231  0.1127
 1070YOPC   GL115329  16.828  12.758   5.956  0.1522 -0.1005  0.2542
 1070YOPC   GL215330  16.606  12.492   6.154 -0.0998  0.3095  0.1351
 1070YOPC   C1A15331  16.820  12.930   6.387  0.4340 -0.2436  0.1475
 1070YOPC   D2A15332  16.909  13.163   6.652  0.1698  0.1450  0.2641
 1070YOPC   C3A15333  17.032  13.142   7.089 -0.2411 -0.1894 -0.3207
 1070YOPC   C4A15334  17.263  13.496   7.289 -0.0742  0.2365  0.0324
 1070YOPC   C1B15335  16.807  12.486   6.608  0.0020  0.1856 -0.0183
 1070YOPC   C2B15336  17.004  12.407   6.986  0.1919  0.1888 -0.1566
 1070YOPC   D3B15337  17.200  12.143   7.200 -0.0656  0.2318 -0.0885
 1070YOPC   C4B15338  17.309  11.855   7.487  0.0678 -0.1008 -0.0807
 1071YOPC   NC315339   1.238   9.907   5.496 -0.1807  0.1879  0.0466
 1071YOPC   PO415340   1.685   9.633   5.744  0.1668  0.3482 -0.0576
 1071YOPC   GL115341   1.260   9.660   6.038 -0.4743 -0.2182 -0.1375
 1071YOPC   GL215342   1.355   9.506   6.251  0.2007  0.0679 -0.0935
 1071YOPC   C1A15343   1.016   9.880   6.234 -0.4023  0.0696 -0.0804
 1071YOPC   D2A15344   0.687   9.781   6.505 -0.0326 -0.1887 -0.1312
 1071YOPC   C3A15345   0.729   9.539   6.928  0.1622  0.1809  0.0422
 1071YOPC   C4A15346   0.742   9.319   7.323 -0.2409 -0.2406 -0.0052
 1071YOPC   C1B15347   1.127   9.454   6.584  0.2032 -0.0958  0.1684
 1071YOPC   C2B15348   1.192   9.515   7.080  0.0215  0.2637 -0.2833
 1071YOPC   D3B15349   1.148   9.601   7.483  0.0436  0.3165  0.2225
 1071YOPC   C4B15350   1.332   9.542   7.909  0.1941 -0.1897 -0.2148
 1072YOPC   NC315351  12.049   7.837   6.130  0.1839  0.1792  0.2622
 1072YOPC   PO415352  11.751   8.183   6.026  0.0536  0.3281 -0.1943
 1072YOPC   GL115353  12.008   8.347   6.343  0.1057 -0.2330  0.0872
 1072YOPC   GL215354  12.137   8.147   6.582  0.2487  0.2471  0.0918
 1072YOPC   C1A15355  12.134   8.833   6.530  0.1972  0.0232  0.1910
 1072YOPC   D2A15356  12.141   9.153   6.810  0.1223  0.2246 -0.0578
 1072YOPC   C3A15357  12.325   9.281   7.179 -0.2370  0.0532  0.0854
 1072YOPC   C4A15358  12.316   9.219   7.658 -0.0614  0.1646  0.1672
 1072YOPC   C1B15359  11.999   8.481   6.815  0.0014 -0.2059 -0.1529
 1072YOPC   C2B15360  11.767   8.877   6.939 -0.1142 -0.0934 -0.0926
 1072YOPC   D3B15361  11.394   8.859   6.824 -0.0878  0.0535 -0.1391
 1072YOPC   C4B15362  11.169   8.938   6.405 -0.1799 -0.2805  0.1442
 1073YOPC   NC315363   5.700   7.757   5.915  0.2088  0.1470 -0.2866
 1073YOPC   PO415364   5.769   8.106   6.175 -0.2707 -0.1384  0.1998
 1073YOPC   GL115365   5.492   7.951   6.498 -0.0206 -0.0064  0.1993
 1073YOPC   GL215366   5.689   7.885   6.756 -0.0213 -0.0719  0.0638
 1073YOPC   C1A15367   5.036   7.889   6.816  0.1000  0.1569 -0.1302
 1073YOPC   D2A15368   5.153   7.858   7.375  0.1960  0.3206  0.0916
 1073YOPC   C3A15369   4.997   8.141   7.706 -0.1699 -0.1427  0.0373
 1073YOPC   C4A15370   4.786   8.504   7.941  0.0771  0.1224 -0.0292
 1073YOPC   C1B15371   5.520   8.098   7.134  0.2507 -0.0877 -0.1322
 1073YOPC   C2B15372   5.534   8.187   7.630 -0.1035 -0.2760  0.4038
 1073YOPC   D3B15373   5.429   7.788   7.821  0.1998  0.1186  0.2274
 1073YOPC   C4B15374   5.067   7.599   7.785 -0.1082 -0.4046  0.0098
 1074YOPC   NC315375  12.912  11.164   6.236  0.0107  0.1419 -0.1128
 1074YOPC   PO415376  12.534  11.105   5.994  0.2248  0.1693  0.0800
 1074YOPC   GL115377  12.618  10.779   6.292  0.2154  0.0458 -0.1599
 1074YOPC   GL215378  12.445  10.813   6.557 -0.0067  0.0780  0.1605
 1074YOPC   C1A15379  12.813  10.568   6.693 -0.0337 -0.0294 -0.0122
 1074YOPC   D2A15380  13.103  10.306   6.860 -0.2152  0.1353 -0.2125
 1074YOPC   C3A15381  13.222   9.940   7.198  0.3148 -0.0981 -0.0135
 1074YOPC   C4A15382  13.051   9.922   7.617  0.0952  0.2173 -0.1547
 1074YOPC   C1B15383  12.325  10.499   6.875 -0.0528 -0.2246 -0.0422
 1074YOPC   C2B15384  12.296  10.424   7.226 -0.1177  0.1757 -0.1967
 1074YOPC   D3B15385  12.067  10.573   7.593  0.1261 -0.2305  0.1249
 1074YOPC   C4B15386  11.989  10.654   8.091 -0.2015 -0.0518  0.2126
 1075YOPC   NC315387   8.291   6.950   5.740 -0.1223  0.0426 -0.1904
 1075YOPC   PO415388   7.921   6.985   5.945 -0.0714  0.0560  0.0976
 1075YOPC   GL115389   8.073   6.853   6.321  0.0981  0.2312 -0.1013
 1075YOPC   GL215390   8.415   6.797   6.358  0.0248 -0.1516 -0.2044
 1075YOPC   C1A15391   8.044   7.037   6.630 -0.2456 -0.1102 -0.3170
 1075YOPC   D2A15392   8.224   6.912   7.067  0.0350  0.1777  0.2775
 1075YOPC   C3A15393   8.102   6.969   7.556 -0.0239 -0.0857  0.1325
 1075YOPC   C4A15394   8.353   7.096   7.950 -0.1365  0.0070 -0.0244
 1075YOPC   C1B15395   8.533   6.633   6.701 -0.0479 -0.1666  0.0614
 1075YOPC   C2B15396   8.871   6.559   6.941  0.1105 -0.2983 -0.2802
 1075YOPC   D3B15397   9.056   6.619   7.415  0.1822 -0.1048 -0.1739
 1075YOPC   C4B15398   9.072   6.514   7.812  0.0219 -0.4038  0.2972
 1076YOPC   NC315399  13.112  15.062   6.434  0.1349  0.1949  0.3269
 1076YOPC   PO415400  12.871  14.978   6.070 -0.0568 -0.1170 -0.0707
 1076YOPC   GL115401  12.579  15.080   6.480  0.2864 -0.4850  0.1236
 1076YOPC   GL215402  12.463  15.369   6.430 -0.0657  0.0399  0.1034
 1076YOPC   C1A15403  12.582  15.141   6.884 -0.2006  0.1870  0.1143
 1076YOPC   D2A15404  12.564  15.275   7.325  0.2599 -0.3383 -0.0861
 1076YOPC   C3A15405  12.336  15.220   7.638 -0.3000 -0.4201  0.0999
 1076YOPC   C4A15406  12.256  15.119   7.968  0.1975 -0.0144 -0.0137
 1076YOPC   C1B15407  12.126  15.652   6.534 -0.2022 -0.0919 -0.2543
 1076YOPC   C2B15408  12.033  15.886   6.885 -0.0168  0.0999 -0.3912
 1076YOPC   D3B15409  12.136  16.300   6.811 -0.3088 -0.2326  0.0130
 1076YOPC   C4B15410  12.387  16.681   6.889  0.1211 -0.1823 -0.1291
 1077YOPC   NC315411   9.657  17.039   5.876  0.0282 -0.2809  0.1249
 1077YOPC   PO415412   9.290  16.901   5.835  0.2664  0.0952  0.2021
 1077YOPC   GL115413   9.301  16.912   6.282  0.0066  0.0871 -0.2049
 1077YOPC   GL215414   9.014  17.024   6.312  0.0481 -0.1085  0.1083
 1077YOPC   C1A15415   9.321  16.862   6.738 -0.0652  0.1646 -0.0954
 1077YOPC   D2A15416   9.250  16.695   7.153 -0.1547  0.0283  0.0583
 1077YOPC   C3A15417   9.293  16.790   7.533  0.1660  0.1587  0.0080
 1077YOPC   C4A15418   9.525  16.738   7.849 -0.1215 -0.2463 -0.1441
 1077YOPC   C1B15419   8.795  17.100   6.700 -0.0047  0.0106  0.2296
 1077YOPC   C2B15420   8.598  17.334   6.981 -0.0654  0.1205 -0.1842
 1077YOPC   D3B15421   8.687  17.101   7.382  0.2588 -0.0031 -0.0215
 1077YOPC   C4B15422   8.507  17.024   7.787 -0.0910 -0.2818  0.1273
 1078YOPC   NC315423  16.895  14.052   5.899 -0.1268 -0.1141  0.0390
 1078YOPC   PO415424  17.295  14.308   5.987  0.1400 -0.2496  0.0402
 1078YOPC   GL115425  17.119  14.536   6.375 -0.2431  0.2647  0.1370
 1078YOPC   GL215426  17.065  14.851   6.304  0.0979 -0.0567  0.0812
 1078YOPC   C1A15427  17.091  14.463   6.872 -0.0081 -0.0214  0.0254
 1078YOPC   D2A15428  16.780  14.391   7.184  0.0531 -0.1592 -0.0282
 1078YOPC   C3A15429  16.845  14.212   7.480 -0.0630  0.0082 -0.0751
 1078YOPC   C4A15430  17.219  14.101   7.777  0.0817 -0.2862 -0.0018
 1078YOPC   C1B15431  17.284  14.902   6.706 -0.2732  0.1711  0.1991
 1078YOPC   C2B15432  17.517  14.798   7.105  0.2321  0.0545  0.0117
 1078YOPC   D3B15433  17.379  14.345   7.234 -0.2098  0.0854  0.0260
 1078YOPC   C4B15434  17.242  13.947   7.138 -0.2947 -0.0795 -0.0040
 1079YOPC   NC315435  10.246   9.453   5.939 -0.1266 -0.1794 -0.0457
 1079YOPC   PO415436   9.914   9.093   5.900  0.1835 -0.1099 -0.0098
 1079YOPC   GL115437   9.936   9.140   6.333 -0.1177  0.0426  0.2844
 1079YOPC   GL215438  10.180   9.397   6.393 -0.2496  0.0781  0.0234
 1079YOPC   C1A15439  10.051   8.967   6.828  0.1450 -0.0456  0.0098
 1079YOPC   D2A15440  10.135   8.997   7.306  0.2381 -0.1224 -0.0113
 1079YOPC   C3A15441  10.459   9.111   7.604 -0.0395 -0.0692  0.2500
 1079YOPC   C4A15442  10.915   9.058   7.609 -0.0327  0.1160  0.0822
 1079YOPC   C1B15443  10.406   9.277   6.861  0.2737 -0.1027  0.5275
 1079YOPC   C2B15444  10.629   9.033   7.097 -0.2715  0.0769  0.1824
 1079YOPC   D3B15445  11.085   9.051   7.129  0.3736 -0.0187 -0.1329
 1079YOPC   C4B15446  11.562   9.202   7.224  0.1199 -0.2466 -0.0992
 1080YOPC   NC315447   5.268  16.616   5.936 -0.4410 -0.2436  0.0198
 1080YOPC   PO415448   4.917  16.670   6.186 -0.4300  0.2670  0.2667
 1080YOPC   GL115449   5.215  16.623   6.469 -0.3044 -0.0452  0.0291
 1080YOPC   GL215450   5.286  16.829   6.658  0.0998 -0.1295 -0.3992
 1080YOPC   C1A15451   5.278  16.340   6.809 -0.1232 -0.3540  0.0616
 1080YOPC   D2A15452   5.439  16.186   7.212 -0.1574  0.0039  0.0906
 1080YOPC   C3A15453   5.517  15.992   7.709 -0.1188  0.0791  0.2207
 1080YOPC   C4A15454   5.358  16.284   7.974 -0.0684  0.0245  0.2305
 1080YOPC   C1B15455   5.455  16.733   7.097 -0.0770  0.4194  0.1317
 1080YOPC   C2B15456   5.525  16.652   7.571 -0.2677 -0.1436  0.1805
 1080YOPC   D3B15457   5.819  16.631   7.967  0.0280 -0.5521  0.2011
 1080YOPC   C4B15458   5.832  16.215   8.247  0.0390  0.1174 -0.0241
 1081YOPC   NC315459   0.847   3.524   6.137 -0.2583 -0.2737  0.2416
 1081YOPC   PO415460   0.448   3.636   6.331 -0.2345  0.2897 -0.2367
 1081YOPC   GL115461   0.811   3.855   6.535  0.0919  0.0384 -0.0084
 1081YOPC   GL215462   0.746   4.181   6.705 -0.1776 -0.1918 -0.2625
 1081YOPC   C1A15463   1.198   3.783   6.715 -0.3452 -0.1331 -0.0015
 1081YOPC   D2A15464   1.419   3.353   6.750 -0.3456  0.0267 -0.0707
 1081YOPC   C3A15465   1.312   3.122   7.085  0.0235  0.0011 -0.0611
 1081YOPC   C4A15466   1.265   3.049   7.554 -0.0156 -0.4607 -0.3052
 1081YOPC   C1B15467   0.666   4.083   7.072 -0.0501 -0.2962  0.0039
 1081YOPC   C2B15468   0.473   4.141   7.375  0.1675  0.1850 -0.3924
 1081YOPC   D3B15469   0.792   4.145   7.731  0.1450  0.3299 -0.0884
 1081YOPC   C4B15470   1.222   4.356   7.797 -0.0985  0.0667  0.1667
 1082YOPC   NC315471  17.475   6.817   6.014 -0.1066 -0.0013 -0.0493
 1082YOPC   PO415472  17.723   7.283   6.062  0.0416 -0.0299 -0.1400
 1082YOPC   GL115473  17.844   7.147   6.488 -0.1552  0.0549  0.1387
 1082YOPC   GL215474  17.995   6.906   6.530 -0.0606  0.0379  0.2315
 1082YOPC   C1A15475  17.966   7.162   6.982 -0.0531 -0.2893 -0.1208
 1082YOPC   D2A15476  17.977   6.904   7.311 -0.2726 -0.0728 -0.0756
 1082YOPC   C3A15477  17.894   7.086   7.708 -0.4197 -0.1065 -0.1072
 1082YOPC   C4A15478  18.056   6.970   8.143  0.1566 -0.0088  0.2348
 1082YOPC   C1B15479  17.891   6.579   6.806 -0.0227 -0.1217 -0.2271
 1082YOPC   C2B15480  17.720   6.442   7.196  0.0942 -0.0080  0.1180
 1082YOPC   D3B15481  17.805   6.558   7.538 -0.1331  0.1917 -0.0684
 1082YOPC   C4B15482  17.985   6.531   7.939 -0.2690 -0.0198 -0.0831
 1083YOPC   NC315483  13.244  13.161   5.845 -0.1535  0.0309 -0.0185
 1083YOPC   PO415484  13.491  12.720   5.877 -0.1569 -0.1096  0.2151
 1083YOPC   GL115485  13.466  12.862   6.289  0.0059  0.1371 -0.0001
 1083YOPC   GL215486  13.323  12.835   6.575  0.0432 -0.2144 -0.1680
 1083YOPC   C1A15487  13.773  13.115   6.577 -0.1226 -0.1852  0.3143
 1083YOPC   D2A15488  14.004  13.046   6.840 -0.0176 -0.3362 -0.0228
 1083YOPC   C3A15489  13.930  13.251   7.225 -0.0886  0.1016 -0.0157
 1083YOPC   C4A15490  14.139  13.424   7.547  0.1400 -0.2081 -0.2341
 1083YOPC   C1B15491  13.431  13.215   6.944  0.0053 -0.0399  0.0151
 1083YOPC   C2B15492  13.497  13.350   7.403 -0.0478 -0.0607  0.2780
 1083YOPC   D3B15493  13.697  13.205   7.702  0.2302 -0.0690 -0.0834
 1083YOPC   C4B15494  13.663  13.213   8.107  0.0874  0.3038 -0.2090
 1084YOPC   NC315495   6.810  13.702   5.921 -0.0977 -0.1951  0.2770
 1084YOPC   PO415496   6.569  13.260   5.960  0.1816 -0.5421 -0.2659
 1084YOPC   GL115497   6.489  13.229   6.369  0.0622 -0.1276  0.2170
 1084YOPC   GL215498   6.551  12.876   6.392  0.2379  0.1613  0.0002
 1084YOPC   C1A15499   6.213  13.116   6.706  0.4569 -0.3032 -0.3260
 1084YOPC   D2A15500   5.957  13.422   6.875  0.1764 -0.2170  0.0838
 1084YOPC   C3A15501   6.149  13.806   6.965 -0.1173 -0.1432 -0.2188
 1084YOPC   C4A15502   6.365  14.232   7.084 -0.0434  0.2011 -0.1077
 1084YOPC   C1B15503   6.857  12.723   6.681  0.1636  0.2197  0.0396
 1084YOPC   C2B15504   6.890  12.797   7.206  0.1065 -0.0002 -0.0326
 1084YOPC   D3B15505   6.795  13.143   7.429 -0.2752  0.0302 -0.0397
 1084YOPC   C4B15506   6.601  13.440   7.731 -0.0125 -0.1023 -0.0965
 1085YOPC   NC315507   3.617   6.008   5.959  0.0421  0.1364 -0.0844
 1085YOPC   PO415508   3.547   6.446   5.956  0.1582 -0.2774  0.0686
 1085YOPC   GL115509   3.774   6.383   6.239  0.0656  0.1590  0.3895
 1085YOPC   GL215510   3.709   6.053   6.421  0.1171 -0.1436 -0.0743
 1085YOPC   C1A15511   3.980   6.459   6.623 -0.0780 -0.4037 -0.1842
 1085YOPC   D2A15512   4.073   6.300   7.033  0.2735  0.1268 -0.0818
 1085YOPC   C3A15513   3.865   6.062   7.327 -0.1556 -0.0153  0.0014
 1085YOPC   C4A15514   3.949   5.885   7.764  0.0865 -0.0260 -0.0487
 1085YOPC   C1B15515   3.669   6.058   6.802 -0.0011 -0.0800 -0.0663
 1085YOPC   C2B15516   3.436   5.986   7.111  0.4579  0.2327  0.0728
 1085YOPC   D3B15517   3.450   5.952   7.539 -0.1470 -0.2152 -0.0992
 1085YOPC   C4B15518   3.446   6.036   7.960  0.0303 -0.3515 -0.0068
 1086YOPC   NC315519  15.674  12.155   5.970 -0.0596  0.3639  0.1096
 1086YOPC   PO415520  15.320  12.451   6.032  0.0471 -0.2692  0.2383
 1086YOPC   GL115521  15.529  12.424   6.418 -0.1420 -0.0464 -0.2337
 1086YOPC   GL215522  15.287  12.324   6.571  0.2336 -0.0680 -0.1598
 1086YOPC   C1A15523  15.776  12.399   6.726 -0.2919  0.1349 -0.1895
 1086YOPC   D2A15524  15.971  12.344   7.013  0.0642  0.5456  0.0954
 1086YOPC   C3A15525  16.129  12.522   7.409 -0.4391 -0.2011 -0.3246
 1086YOPC   C4A15526  16.068  12.634   7.867 -0.0637  0.2921 -0.0726
 1086YOPC   C1B15527  15.364  12.253   6.921 -0.3014  0.1170 -0.1352
 1086YOPC   C2B15528  15.588  12.204   7.355  0.3557  0.0374 -0.0041
 1086YOPC   D3B15529  15.924  12.126   7.482  0.0839  0.1518  0.0900
 1086YOPC   C4B15530  16.282  12.137   7.806  0.3149 -0.1203  0.1794
 1087YOPC   NC315531   2.353  17.020   5.613 -0.0278  0.0058  0.0671
 1087YOPC   PO415532   2.538  16.630   5.741  0.1366 -0.1190 -0.1442
 1087YOPC   GL115533   2.514  16.511   6.137  0.0417  0.2621  0.3197
 1087YOPC   GL215534   2.422  16.777   6.371 -0.0036 -0.1340  0.2685
 1087YOPC   C1A15535   2.563  16.335   6.505  0.0563 -0.0835 -0.0695
 1087YOPC   D2A15536   2.653  16.246   6.912 -0.1814 -0.1073  0.3743
 1087YOPC   C3A15537   2.816  15.905   7.138  0.0789 -0.0129 -0.2493
 1087YOPC   C4A15538   2.796  15.697   7.463  0.3646  0.3183 -0.2456
 1087YOPC   C1B15539   2.390  16.681   6.822 -0.1561 -0.2750  0.0921
 1087YOPC   C2B15540   2.790  16.655   7.144  0.1087  0.0431  0.2308
 1087YOPC   D3B15541   2.825  16.319   7.399 -0.3060  0.1183 -0.1258
 1087YOPC   C4B15542   2.541  16.146   7.722 -0.0239  0.0733 -0.1441
 1088YOPC   NC315543   5.753  17.288   5.977  0.1711 -0.1951 -0.1442
 1088YOPC   PO415544   5.677  16.864   5.807  0.1566  0.1152 -0.3078
 1088YOPC   GL115545   5.795  16.884   6.247 -0.2264  0.0769 -0.2924
 1088YOPC   GL215546   5.712  17.111   6.503 -0.0477 -0.0126 -0.0783
 1088YOPC   C1A15547   5.746  16.632   6.626 -0.0422  0.3494  0.2125
 1088YOPC   D2A15548   5.845  16.377   6.986 -0.3007  0.2942  0.0774
 1088YOPC   C3A15549   5.886  16.286   7.498 -0.1226  0.2098 -0.1124
 1088YOPC   C4A15550   5.976  16.133   7.766  0.1865 -0.2809 -0.2013
 1088YOPC   C1B15551   5.637  17.154   6.929  0.0262 -0.0919 -0.1241
 1088YOPC   C2B15552   5.562  17.257   7.445  0.0569  0.0943 -0.0815
 1088YOPC   D3B15553   5.615  17.539   7.762 -0.1041 -0.1944 -0.0819
 1088YOPC   C4B15554   5.666  17.912   7.992 -0.2664  0.2387  0.1499
 1089YOPC   NC315555   6.232  11.459   5.417  0.3062  0.1693  0.2417
 1089YOPC   PO415556   6.385  11.259   5.820  0.0819 -0.0295 -0.2924
 1089YOPC   GL115557   6.637  11.341   6.148 -0.4112  0.2002 -0.2205
 1089YOPC   GL215558   7.029  11.293   6.163 -0.0612 -0.0958  0.0709
 1089YOPC   C1A15559   6.709  11.686   6.541  0.1170  0.1032 -0.2178
 1089YOPC   D2A15560   6.769  11.811   7.012  0.0918  0.1017 -0.0206
 1089YOPC   C3A15561   6.844  11.445   7.368  0.0864 -0.2041 -0.2998
 1089YOPC   C4A15562   6.802  11.149   7.709 -0.0810 -0.2990 -0.0486
 1089YOPC   C1B15563   7.100  11.297   6.603  0.0966 -0.0330  0.0978
 1089YOPC   C2B15564   7.176  11.523   6.975 -0.0659  0.0830  0.0312
 1089YOPC   D3B15565   7.343  11.316   7.375  0.2897  0.3052 -0.0213
 1089YOPC   C4B15566   7.719  11.107   7.578  0.0415 -0.2128 -0.2679
 1090YOPC   NC315567   5.750   0.324   6.073  0.1509  0.1432  0.0950
 1090YOPC   PO415568   5.773  -0.066   5.844 -0.2207  0.0908 -0.3246
 1090YOPC   GL115569   6.060  -0.152   6.162 -0.1644 -0.0962  0.1274
 1090YOPC   GL215570   5.886  -0.215   6.402 -0.0595  0.0985  0.1782
 1090YOPC   C1A15571   6.348  -0.070   6.530  0.1623 -0.4015 -0.2080
 1090YOPC   D2A15572   6.496  -0.405   6.777  0.0392  0.0594 -0.0528
 1090YOPC   C3A15573   6.791  -0.540   6.979  0.3443  0.1788  0.3317
 1090YOPC   C4A15574   7.112  -0.847   7.024  0.1697  0.0248 -0.0754
 1090YOPC   C1B15575   6.054  -0.271   6.908  0.0567  0.1228 -0.1170
 1090YOPC   C2B15576   6.361  -0.528   7.214  0.3926  0.1347  0.0343
 1090YOPC   D3B15577   6.363  -0.686   7.690  0.1199  0.2580 -0.0096
 1090YOPC   C4B15578   6.568  -0.729   8.167 -0.0561 -0.1899 -0.0435
 1091YOPC   NC315579  12.173  12.415   6.397  0.0161  0.4903  0.0073
 1091YOPC   PO415580  12.027  12.827   6.407 -0.2920  0.0402  0.2509
 1091YOPC   GL115581  12.348  12.861   6.620  0.1210  0.3073  0.0624
 1091YOPC   GL215582  12.305  12.606   6.838  0.2557 -0.1633 -0.1219
 1091YOPC   C1A15583  12.533  13.016   7.021 -0.1306 -0.2594  0.0019
 1091YOPC   D2A15584  12.650  13.218   7.407 -0.0271  0.1021  0.0011
 1091YOPC   C3A15585  12.513  13.543   7.595  0.1969  0.0976  0.1571
 1091YOPC   C4A15586  12.397  13.845   7.846  0.0263  0.2870 -0.3200
 1091YOPC   C1B15587  12.314  12.421   7.148 -0.0002 -0.0692  0.2296
 1091YOPC   C2B15588  12.487  12.420   7.504  0.1560  0.1368  0.1084
 1091YOPC   D3B15589  12.544  12.300   7.924  0.0049  0.1303  0.0664
 1091YOPC   C4B15590  12.658  12.275   8.353 -0.2513 -0.2187  0.1055
 1092YOPC   NC315591  14.771  17.808   6.390  0.2810  0.0188 -0.2294
 1092YOPC   PO415592  14.975  17.426   6.275 -0.1140  0.1089 -0.1729
 1092YOPC   GL115593  15.187  17.455   6.721  0.1271 -0.0199  0.0284
 1092YOPC   GL215594  14.920  17.599   6.888  0.1276 -0.0863 -0.0068
 1092YOPC   C1A15595  15.231  17.325   7.144 -0.1622  0.0554 -0.2404
 1092YOPC   D2A15596  15.338  17.351   7.577  0.1301  0.2972  0.2240
 1092YOPC   C3A15597  15.224  16.938   7.869 -0.1544 -0.1435  0.1823
 1092YOPC   C4A15598  15.021  16.714   8.188 -0.0396  0.3189 -0.1443
 1092YOPC   C1B15599  14.921  17.599   7.350  0.1392  0.0036 -0.2043
 1092YOPC   C2B15600  14.610  17.554   7.611  0.1719 -0.0494  0.0998
 1092YOPC   D3B15601  14.394  17.202   7.660 -0.1142 -0.1447 -0.0501
 1092YOPC   C4B15602  14.367  16.893   8.082  0.0610  0.0082  0.2505
 1093YOPC   NC315603   7.008   0.384   5.798  0.3493  0.0749  0.2239
 1093YOPC   PO415604   7.021  -0.108   5.927  0.1820  0.1686  0.2615
 1093YOPC   GL115605   6.635   0.112   6.154 -0.0137  0.0004 -0.1295
 1093YOPC   GL215606   6.827   0.171   6.439  0.2585 -0.0190  0.0010
 1093YOPC   C1A15607   6.308   0.411   6.278 -0.0376 -0.0617 -0.0951
 1093YOPC   D2A15608   5.995   0.465   6.450 -0.1635  0.0014 -0.0396
 1093YOPC   C3A15609   5.985   0.186   6.901  0.3383 -0.2700  0.0244
 1093YOPC   C4A15610   6.346   0.010   7.165  0.0031 -0.0105 -0.0513
 1093YOPC   C1B15611   6.792   0.036   6.880 -0.0649 -0.3854  0.0936
 1093YOPC   C2B15612   6.758   0.197   7.306  0.1405 -0.0484 -0.0787
 1093YOPC   D3B15613   7.075   0.063   7.617 -0.2412 -0.0957 -0.2313
 1093YOPC   C4B15614   7.134  -0.212   7.988  0.0522  0.0760  0.1314
 1094YOPC   NC315615  13.666   1.123   6.386 -0.0598 -0.2966  0.4314
 1094YOPC   PO415616  13.276   1.036   6.271  0.3795 -0.2368  0.0256
 1094YOPC   GL115617  13.373   0.707   6.629  0.0059 -0.2707 -0.1373
 1094YOPC   GL215618  13.647   0.571   6.762 -0.0783  0.0034  0.0520
 1094YOPC   C1A15619  13.108   0.521   6.973  0.0827 -0.0030 -0.1441
 1094YOPC   D2A15620  13.041   0.488   7.395  0.2277  0.1902  0.0694
 1094YOPC   C3A15621  12.635   0.440   7.553 -0.0779 -0.4303  0.2844
 1094YOPC   C4A15622  12.429   0.526   7.950  0.0096 -0.1241  0.2228
 1094YOPC   C1B15623  13.531   0.529   7.232 -0.1394  0.0085 -0.0381
 1094YOPC   C2B15624  13.439   0.312   7.645  0.0349 -0.1148 -0.1351
 1094YOPC   D3B15625  13.073   0.493   7.911 -0.0916  0.0563 -0.0896
 1094YOPC   C4B15626  12.727   0.844   8.139  0.0240 -0.2143 -0.0692
 1095YOPC   NC315627  11.264  10.682   5.698 -0.0628 -0.1811 -0.1819
 1095YOPC   PO415628  11.499  10.344   6.026 -0.2029 -0.2858 -0.0263
 1095YOPC   GL115629  11.550  10.279   6.508  0.2318  0.0749  0.2004
 1095YOPC   GL215630  12.000  10.433   6.538  0.1747  0.2182  0.4531
 1095YOPC   C1A15631  11.552  10.181   6.826 -0.0167 -0.2284 -0.0497
 1095YOPC   D2A15632  11.468   9.970   7.084  0.0479 -0.0863 -0.0307
 1095YOPC   C3A15633  10.940   9.978   7.152 -0.2152 -0.0490 -0.2860
 1095YOPC   C4A15634  10.590  10.110   7.459  0.1670 -0.3131  0.0499
 1095YOPC   C1B15635  11.818  10.670   6.948 -0.2825 -0.1246  0.0689
 1095YOPC   C2B15636  11.686  10.805   7.432  0.2650  0.3633  0.1474
 1095YOPC   D3B15637  11.630  10.442   7.718  0.0057 -0.1673  0.0579
 1095YOPC   C4B15638  11.733  10.225   8.097 -0.0403  0.0709  0.0112
 1096YOPC   NC315639  12.362  14.997   6.025  0.1894 -0.1540 -0.1896
 1096YOPC   PO415640  11.888  15.108   5.911  0.1378 -0.2213  0.1250
 1096YOPC   GL115641  11.527  15.047   6.218 -0.3238 -0.0894 -0.0583
 1096YOPC   GL215642  11.603  14.793   6.480 -0.2248  0.2879  0.1620
 1096YOPC   C1A15643  11.572  15.212   6.710 -0.1008 -0.0773 -0.3357
 1096YOPC   D2A15644  11.440  15.231   7.194  0.0003  0.0226 -0.0019
 1096YOPC   C3A15645  11.020  15.257   7.348 -0.2830 -0.0241  0.0721
 1096YOPC   C4A15646  10.667  15.327   7.576 -0.3713 -0.2795  0.1348
 1096YOPC   C1B15647  11.701  14.755   6.806  0.1997  0.3055  0.0891
 1096YOPC   C2B15648  11.739  14.783   7.288  0.0555  0.1243 -0.1656
 1096YOPC   D3B15649  11.807  14.724   7.766 -0.0553 -0.5151 -0.1057
 1096YOPC   C4B15650  12.066  14.652   8.108  0.0398  0.1418  0.0494
 1097YOPC   NC315651  16.074   1.018   6.274 -0.0327 -0.1699  0.0426
 1097YOPC   PO415652  15.738   0.798   6.357  0.3431 -0.2893 -0.0210
 1097YOPC   GL115653  15.850   0.538   6.660 -0.1820  0.1300 -0.1330
 1097YOPC   GL215654  15.816   0.236   6.599  0.0027 -0.0773 -0.0307
 1097YOPC   C1A15655  15.874   0.659   7.076  0.0794 -0.1383  0.0850
 1097YOPC   D2A15656  15.999   0.821   7.469  0.0686 -0.4535  0.1988
 1097YOPC   C3A15657  15.866   0.549   7.829 -0.0674 -0.2691 -0.0689
 1097YOPC   C4A15658  15.820   0.381   8.230  0.3716  0.0225  0.2331
 1097YOPC   C1B15659  15.912   0.127   7.050  0.3555 -0.0354  0.0412
 1097YOPC   C2B15660  15.874   0.241   7.440  0.1850 -0.2337  0.1401
 1097YOPC   D3B15661  15.496   0.237   7.760  0.0948 -0.0624  0.2664
 1097YOPC   C4B15662  15.329   0.185   8.163  0.0105 -0.0220  0.2669
 1098YOPC   NC315663   8.464  11.273   5.309  0.2396 -0.2347  0.0885
 1098YOPC   PO415664   8.193  11.406   5.612  0.4079 -0.0850  0.1478
 1098YOPC   GL115665   8.204  11.414   6.049 -0.1937  0.0680  0.0639
 1098YOPC   GL215666   8.311  11.148   6.236  0.1446  0.1217 -0.0406
 1098YOPC   C1A15667   8.119  11.508   6.480 -0.0645  0.1307  0.0771
 1098YOPC   D2A15668   8.039  11.610   6.883 -0.2695  0.1853  0.1435
 1098YOPC   C3A15669   8.152  12.000   7.011  0.2622 -0.2640  0.0232
 1098YOPC   C4A15670   8.170  12.075   7.460 -0.0811 -0.4157  0.2885
 1098YOPC   C1B15671   7.945  10.966   6.449 -0.0399  0.4770  0.1200
 1098YOPC   C2B15672   7.808  10.613   6.736 -0.1981  0.1251  0.0923
 1098YOPC   D3B15673   8.013  10.460   7.104 -0.1136  0.0949 -0.1575
 1098YOPC   C4B15674   7.789  10.218   7.403  0.1715 -0.0458 -0.0174
 1099YOPC   NC315675  16.381   0.175   5.914  0.2322  0.3907 -0.0555
 1099YOPC   PO415676  16.101   0.489   6.175 -0.0031  0.0559  0.4229
 1099YOPC   GL115677  16.398   0.670   6.510  0.3278 -0.0995  0.4414
 1099YOPC   GL215678  16.307   0.444   6.765 -0.0414 -0.1844  0.1074
 1099YOPC   C1A15679  16.440   0.948   6.908  0.0224 -0.0859 -0.0963
 1099YOPC   D2A15680  16.512   0.926   7.318 -0.1397 -0.1773 -0.1449
 1099YOPC   C3A15681  16.455   1.013   7.681  0.3650  0.0547 -0.0848
 1099YOPC   C4A15682  16.754   0.903   8.096 -0.1176  0.1395 -0.1287
 1099YOPC   C1B15683  16.268   0.474   7.241  0.0504  0.1969 -0.0104
 1099YOPC   C2B15684  16.425   0.525   7.634  0.0589 -0.0003 -0.1161
 1099YOPC   D3B15685  16.242   0.275   7.934 -0.4607 -0.1021 -0.0881
 1099YOPC   C4B15686  16.291  -0.027   8.275 -0.0231  0.0832 -0.0149
 1100YOPC   NC315687   7.341   1.342   5.860 -0.2648 -0.0230 -0.0043
 1100YOPC   PO415688   7.591   1.005   6.119  0.1708  0.2141 -0.0240
 1100YOPC   GL115689   7.866   1.085   6.430  0.0381  0.2127 -0.2795
 1100YOPC   GL215690   8.086   0.919   6.690  0.1173  0.4381  0.3740
 1100YOPC   C1A15691   7.955   1.374   6.708 -0.0603 -0.1443  0.1354
 1100YOPC   D2A15692   8.143   1.224   7.151  0.1423 -0.1338  0.2225
 1100YOPC   C3A15693   8.141   1.440   7.427 -0.0581 -0.0038 -0.1091
 1100YOPC   C4A15694   8.106   1.912   7.411 -0.2939 -0.0088  0.4469
 1100YOPC   C1B15695   7.755   0.899   7.003 -0.1045 -0.1574  0.0167
 1100YOPC   C2B15696   7.808   1.029   7.463  0.1597  0.0910  0.0407
 1100YOPC   D3B15697   7.564   0.689   7.664  0.1094  0.1030 -0.0638
 1100YOPC   C4B15698   7.585   0.258   7.750  0.1945 -0.2524 -0.3671
 1101YOPC   NC315699   4.735  14.269   5.637 -0.3002 -0.0030  0.2322
 1101YOPC   PO415700   4.427  13.943   5.792 -0.0873 -0.1070  0.0247
 1101YOPC   GL115701   4.586  13.843   6.193 -0.3517 -0.1691  0.0519
 1101YOPC   GL215702   4.785  13.614   6.254  0.3223  0.3746 -0.0512
 1101YOPC   C1A15703   4.440  14.108   6.506 -0.0191  0.1544 -0.0428
 1101YOPC   D2A15704   4.363  14.275   6.878  0.1733 -0.0401  0.0874
 1101YOPC   C3A15705   4.373  14.261   7.301 -0.0747  0.0389 -0.0831
 1101YOPC   C4A15706   4.446  14.363   7.769 -0.1755 -0.0814 -0.1113
 1101YOPC   C1B15707   4.744  13.674   6.694 -0.0738 -0.0687 -0.4650
 1101YOPC   C2B15708   4.592  13.877   7.018 -0.1094  0.1069  0.0353
 1101YOPC   D3B15709   4.619  13.822   7.492 -0.1339 -0.1534  0.0963
 1101YOPC   C4B15710   4.726  13.915   7.856 -0.2314 -0.2281  0.1712
 1102YOPC   NC315711  14.648  15.797   5.824 -0.1723  0.3049 -0.2736
 1102YOPC   PO415712  14.511  15.319   5.859 -0.0438 -0.2303  0.0544
 1102YOPC   GL115713  14.618  15.162   6.342 -0.1474 -0.1132  0.2501
 1102YOPC   GL215714  14.263  15.310   6.320 -0.2453 -0.1929 -0.0641
 1102YOPC   C1A15715  14.879  15.041   6.759 -0.1166  0.0317 -0.1040
 1102YOPC   D2A15716  14.994  15.150   7.026 -0.3150 -0.0714  0.0434
 1102YOPC   C3A15717  14.939  15.349   7.377 -0.0023 -0.2488 -0.0014
 1102YOPC   C4A15718  14.868  15.281   7.736 -0.1774 -0.0117 -0.2596
 1102YOPC   C1B15719  14.418  15.363   6.815 -0.4324 -0.0011  0.3808
 1102YOPC   C2B15720  14.585  15.463   7.064 -0.2980  0.0616 -0.1163
 1102YOPC   D3B15721  14.726  15.851   7.282  0.1840  0.1076  0.1903
 1102YOPC   C4B15722  14.849  15.766   7.687  0.2192  0.0438 -0.0436
 1103YOPC   NC315723   8.046   2.281   5.894  0.1230 -0.1242  0.1822
 1103YOPC   PO415724   7.678   1.937   5.924  0.2345 -0.0489 -0.1957
 1103YOPC   GL115725   7.516   1.990   6.344  0.0793  0.0564  0.1070
 1103YOPC   GL215726   7.695   1.824   6.635  0.0761  0.0599 -0.0492
 1103YOPC   C1A15727   7.300   2.233   6.711 -0.2266  0.1769 -0.3303
 1103YOPC   D2A15728   7.232   2.184   7.078  0.2391  0.0869  0.2629
 1103YOPC   C3A15729   7.392   2.102   7.389  0.0787 -0.1115 -0.1623
 1103YOPC   C4A15730   7.699   2.235   7.634 -0.1571 -0.1294 -0.1782
 1103YOPC   C1B15731   7.739   2.083   7.060  0.0249  0.1476 -0.0377
 1103YOPC   C2B15732   8.006   2.450   7.317 -0.1858 -0.0267 -0.1649
 1103YOPC   D3B15733   8.360   2.345   7.560 -0.1161  0.0601 -0.3562
 1103YOPC   C4B15734   8.373   2.215   7.869 -0.0577 -0.0669  0.1534
 1104YOPC   NC315735  13.432   0.082   5.499  0.0891  0.1729 -0.0538
 1104YOPC   PO415736  13.208  -0.114   5.868 -0.0417  0.1695  0.2006
 1104YOPC   GL115737  13.143  -0.086   6.275  0.1717 -0.2817 -0.1954
 1104YOPC   GL215738  13.052  -0.446   6.318 -0.0420  0.0381 -0.0033
 1104YOPC   C1A15739  12.934   0.190   6.609 -0.1050  0.0373 -0.1858
 1104YOPC   D2A15740  12.711   0.297   7.027 -0.1668  0.3299  0.2369
 1104YOPC   C3A15741  12.648   0.732   7.083 -0.0107 -0.0160 -0.2010
 1104YOPC   C4A15742  12.283   0.962   7.021 -0.0157  0.0380  0.1570
 1104YOPC   C1B15743  12.685  -0.631   6.466 -0.1772  0.1190  0.2991
 1104YOPC   C2B15744  12.449  -0.727   6.756  0.2290 -0.0516  0.3221
 1104YOPC   D3B15745  12.482  -0.695   7.194 -0.0641 -0.0001 -0.0910
 1104YOPC   C4B15746  12.654  -0.451   7.529 -0.2151  0.0841  0.0626
 1105YOPC   NC315747  15.932   2.838   6.137 -0.3157 -0.0356 -0.0504
 1105YOPC   PO415748  15.961   2.399   6.274  0.1295  0.0057  0.0247
 1105YOPC   GL115749  16.012   2.299   6.737  0.0295 -0.1138 -0.0616
 1105YOPC   GL215750  16.245   2.458   6.984 -0.0072  0.1317 -0.0836
 1105YOPC   C1A15751  15.894   2.068   7.099  0.0773 -0.0364 -0.1705
 1105YOPC   D2A15752  15.925   2.002   7.546  0.1704  0.0659 -0.0231
 1105YOPC   C3A15753  15.798   2.106   7.921 -0.0137  0.0269 -0.1557
 1105YOPC   C4A15754  15.651   2.145   8.333 -0.0248 -0.1808  0.3085
 1105YOPC   C1B15755  16.195   2.447   7.343 -0.3075 -0.0918  0.0028
 1105YOPC   C2B15756  16.278   2.361   7.811  0.2568  0.1884 -0.6845
 1105YOPC   D3B15757  16.123   2.412   8.208 -0.1010 -0.0236 -0.2739
 1105YOPC   C4B15758  15.873   2.640   8.486  0.1537 -0.0633 -0.0408
 1106YOPC   NC315759  10.401   0.479   5.683  0.0581 -0.0583 -0.0503
 1106YOPC   PO415760  10.541   0.054   5.987  0.1381 -0.0257  0.2079
 1106YOPC   GL115761  10.609   0.002   6.363 -0.1037 -0.2370  0.4268
 1106YOPC   GL215762  10.381   0.174   6.549  0.1301  0.0526 -0.0048
 1106YOPC   C1A15763  10.906  -0.022   6.598  0.2805 -0.1787 -0.2384
 1106YOPC   D2A15764  11.087  -0.312   6.792 -0.1606  0.0483 -0.1576
 1106YOPC   C3A15765  11.089  -0.534   7.135  0.1604 -0.3889 -0.0636
 1106YOPC   C4A15766  11.153  -0.917   7.391  0.0743 -0.0037 -0.1609
 1106YOPC   C1B15767  10.563  -0.011   6.970  0.1244  0.0013 -0.3278
 1106YOPC   C2B15768  10.884  -0.104   7.275  0.1570  0.1674 -0.1706
 1106YOPC   D3B15769  10.932   0.098   7.630 -0.0926  0.0750 -0.0265
 1106YOPC   C4B15770  10.879   0.500   7.724 -0.0435  0.0429 -0.1529
 1107YOPC   NC315771  13.068  11.834   5.677 -0.1431  0.1713 -0.1438
 1107YOPC   PO415772  13.017  12.012   6.074  0.0735 -0.0156 -0.4608
 1107YOPC   GL115773  12.967  11.928   6.453  0.1803 -0.1199 -0.1682
 1107YOPC   GL215774  12.715  11.633   6.477  0.2165 -0.2774  0.2710
 1107YOPC   C1A15775  13.080  11.963   6.845 -0.0433  0.0812 -0.0580
 1107YOPC   D2A15776  13.176  12.101   7.222 -0.2399 -0.3219  0.0876
 1107YOPC   C3A15777  13.139  11.873   7.665 -0.0100 -0.1176  0.1097
 1107YOPC   C4A15778  12.988  12.114   8.022 -0.2499  0.1947  0.0380
 1107YOPC   C1B15779  12.779  11.514   6.948 -0.0584 -0.1077  0.0415
 1107YOPC   C2B15780  13.011  11.625   7.243  0.1537 -0.2373  0.0941
 1107YOPC   D3B15781  13.277  11.384   7.609  0.5389  0.3368  0.1761
 1107YOPC   C4B15782  13.500  11.113   7.831  0.0035 -0.1814  0.0295
 1108YOPC   NC315783  10.155   3.784   6.477 -0.1268 -0.0739 -0.1747
 1108YOPC   PO415784   9.748   3.996   6.335 -0.0136 -0.1094 -0.0123
 1108YOPC   GL115785   9.420   3.992   6.609  0.2424  0.2839  0.3137
 1108YOPC   GL215786   9.583   3.835   6.896 -0.0152 -0.1011  0.1313
 1108YOPC   C1A15787   9.120   4.081   6.982  0.2029 -0.1209  0.0216
 1108YOPC   D2A15788   8.888   4.296   7.325  0.0892  0.0098 -0.0827
 1108YOPC   C3A15789   8.501   4.228   7.596 -0.0641 -0.3157 -0.0623
 1108YOPC   C4A15790   8.211   3.823   7.531 -0.2028  0.2455 -0.0432
 1108YOPC   C1B15791   9.789   3.692   7.340  0.0123 -0.0008  0.1810
 1108YOPC   C2B15792   9.777   3.676   7.781 -0.0274  0.2079 -0.0494
 1108YOPC   D3B15793   9.775   3.993   8.121  0.0054 -0.0155 -0.1273
 1108YOPC   C4B15794  10.011   4.208   8.329  0.0909 -0.0155 -0.0993
 1109YOPC   NC315795  13.641   7.169   5.855  0.1498 -0.0054 -0.3614
 1109YOPC   PO415796  13.410   7.232   6.216 -0.0519 -0.3872 -0.1029
 1109YOPC   GL115797  13.243   7.268   6.640  0.1534 -0.0606 -0.0192
 1109YOPC   GL215798  13.596   7.442   6.706 -0.4653 -0.0618  0.1630
 1109YOPC   C1A15799  13.065   7.340   6.992  0.2770  0.0362 -0.0065
 1109YOPC   D2A15800  12.986   7.553   7.379 -0.1552  0.1797 -0.0844
 1109YOPC   C3A15801  12.609   7.790   7.340  0.3536  0.1357 -0.0729
 1109YOPC   C4A15802  12.244   7.755   7.440  0.4371 -0.1754  0.0675
 1109YOPC   C1B15803  13.457   7.620   7.082  0.2924  0.2131  0.1113
 1109YOPC   C2B15804  13.460   7.699   7.557  0.1102  0.2565  0.0493
 1109YOPC   D3B15805  13.129   7.607   7.909  0.0661 -0.0151 -0.0356
 1109YOPC   C4B15806  12.747   7.703   7.945  0.2547 -0.2107  0.0544
 1110YOPC   NC315807   2.271  13.531   5.458  0.1388  0.1095  0.2465
 1110YOPC   PO415808   2.082  13.391   5.731 -0.1786 -0.0298  0.0927
 1110YOPC   GL115809   2.187  13.229   6.120 -0.0321 -0.0002  0.1604
 1110YOPC   GL215810   2.030  12.940   6.076  0.1093  0.0107  0.0060
 1110YOPC   C1A15811   2.278  13.126   6.564 -0.0456 -0.0360 -0.2926
 1110YOPC   D2A15812   2.312  13.249   6.962  0.3721  0.0938 -0.1474
 1110YOPC   C3A15813   2.045  13.529   7.347 -0.1076 -0.1990  0.1416
 1110YOPC   C4A15814   1.899  13.550   7.739  0.0084  0.0883  0.2142
 1110YOPC   C1B15815   1.865  12.871   6.471  0.2868 -0.0406 -0.1738
 1110YOPC   C2B15816   1.816  13.112   6.818  0.2026 -0.2531 -0.0452
 1110YOPC   D3B15817   1.902  12.833   7.140  0.2454  0.2011  0.2257
 1110YOPC   C4B15818   1.798  12.586   7.416 -0.1360  0.0994  0.1040
 1111YOPC   NC315819  14.051  15.104   5.679 -0.1626 -0.1203  0.1732
 1111YOPC   PO415820  14.225  14.900   6.043  0.1913 -0.1602  0.0927
 1111YOPC   GL115821  13.937  14.893   6.459 -0.0158  0.1067  0.3340
 1111YOPC   GL215822  13.625  14.834   6.582  0.1078 -0.1903 -0.1259
 1111YOPC   C1A15823  13.956  15.029   6.879 -0.1610 -0.0105  0.0369
 1111YOPC   D2A15824  14.058  15.302   7.219 -0.0874 -0.0617 -0.0240
 1111YOPC   C3A15825  14.012  15.468   7.654 -0.2414 -0.1322 -0.0152
 1111YOPC   C4A15826  13.765  15.582   8.066 -0.3242 -0.1496  0.1129
 1111YOPC   C1B15827  13.436  14.643   6.942 -0.1112 -0.3182  0.0513
 1111YOPC   C2B15828  13.484  14.697   7.433  0.1603 -0.2353  0.3282
 1111YOPC   D3B15829  13.330  14.483   7.650 -0.1337 -0.0781  0.1871
 1111YOPC   C4B15830  13.401  14.118   7.745 -0.1765 -0.1677  0.0080
 1112YOPC   NC315831   0.078   3.278   6.306  0.1841  0.1012 -0.0961
 1112YOPC   PO415832   0.455   3.139   6.251 -0.1018 -0.0185  0.0406
 1112YOPC   GL115833   0.499   3.052   6.642 -0.2015 -0.1101  0.1203
 1112YOPC   GL215834   0.393   3.389   6.734  0.2004 -0.0663 -0.0362
 1112YOPC   C1A15835   0.632   2.771   6.992 -0.0584  0.1786  0.0447
 1112YOPC   D2A15836   0.887   2.901   7.274  0.1111  0.1136  0.1658
 1112YOPC   C3A15837   0.740   3.242   7.549 -0.1684  0.1186  0.0635
 1112YOPC   C4A15838   0.632   3.677   7.505 -0.0657 -0.1194 -0.1313
 1112YOPC   C1B15839   0.694   3.407   7.015  0.1002 -0.1887 -0.3810
 1112YOPC   C2B15840   1.024   3.586   7.190  0.2271  0.1438  0.2403
 1112YOPC   D3B15841   1.136   3.491   7.561  0.0322  0.1532 -0.1149
 1112YOPC   C4B15842   0.875   3.581   7.954  0.0723  0.0300 -0.0792
 1113YOPC   NC315843  16.427   0.094   6.402  0.1273  0.0895  0.2334
 1113YOPC   PO415844  16.401  -0.292   6.285 -0.1781  0.1934 -0.1443
 1113YOPC   GL115845  16.302  -0.339   6.745  0.1220  0.1388  0.2564
 1113YOPC   GL215846  16.066  -0.170   6.719  0.0438  0.0091 -0.1519
 1113YOPC   C1A15847  16.338  -0.429   7.211 -0.0437 -0.0608  0.0314
 1113YOPC   D2A15848  16.406  -0.593   7.696 -0.0524  0.0114  0.2980
 1113YOPC   C3A15849  16.771  -0.781   8.016 -0.2106  0.0021  0.2408
 1113YOPC   C4A15850  16.750  -0.989   8.420  0.0536 -0.1541 -0.3035
 1113YOPC   C1B15851  16.447  -0.004   7.005 -0.0128 -0.0068 -0.0314
 1113YOPC   C2B15852  16.322   0.035   7.452 -0.4084 -0.0538 -0.1211
 1113YOPC   D3B15853  16.559  -0.092   7.812 -0.3332  0.1010 -0.1325
 1113YOPC   C4B15854  16.578  -0.401   8.190  0.1136  0.1300  0.1308
 1114YOPC   NC315855  12.965   2.282   5.922  0.0366  0.2406  0.0755
 1114YOPC   PO415856  12.781   2.568   6.075 -0.5149  0.2346 -0.0967
 1114YOPC   GL115857  12.691   2.671   6.448  0.1414  0.0021  0.0927
 1114YOPC   GL215858  12.376   2.753   6.486 -0.4544  0.1930  0.1611
 1114YOPC   C1A15859  12.707   2.431   6.790 -0.1363  0.2292 -0.2217
 1114YOPC   D2A15860  12.911   2.425   7.164  0.0657  0.0019  0.0100
 1114YOPC   C3A15861  12.671   2.386   7.482 -0.0102  0.0099  0.1681
 1114YOPC   C4A15862  12.506   2.134   7.738  0.2609  0.1175 -0.0954
 1114YOPC   C1B15863  12.527   2.902   6.914  0.0546 -0.0638 -0.1613
 1114YOPC   C2B15864  12.483   2.882   7.316  0.0398 -0.1135  0.0744
 1114YOPC   D3B15865  12.583   2.898   7.696 -0.2174  0.0474  0.1369
 1114YOPC   C4B15866  12.676   2.591   7.938  0.2208 -0.0844 -0.0027
 1115YOPC   NC315867  11.692   6.151   5.999 -0.0284  0.1971  0.0549
 1115YOPC   PO415868  11.956   6.367   6.214  0.1449  0.0163 -0.0972
 1115YOPC   GL115869  12.070   6.392   6.629  0.0186 -0.0300  0.4324
 1115YOPC   GL215870  12.407   6.487   6.741  0.1351 -0.1668  0.3032
 1115YOPC   C1A15871  11.994   6.207   6.995 -0.3422 -0.1294  0.1092
 1115YOPC   D2A15872  12.224   6.047   7.374  0.0672 -0.1676 -0.0164
 1115YOPC   C3A15873  12.085   6.040   7.837  0.1345 -0.2364  0.0562
 1115YOPC   C4A15874  11.976   6.017   8.282  0.0135 -0.0419 -0.1216
 1115YOPC   C1B15875  12.495   6.492   7.218 -0.0729  0.0599 -0.0903
 1115YOPC   C2B15876  12.402   6.431   7.640 -0.0611 -0.2772 -0.0009
 1115YOPC   D3B15877  12.515   6.589   7.902 -0.2023  0.0990 -0.3827
 1115YOPC   C4B15878  12.628   6.907   8.193  0.2215  0.2911  0.0232
 1116YOPC   NC315879   6.842  14.411   5.433  0.1471 -0.3307  0.1992
 1116YOPC   PO415880   6.752  14.216   5.806 -0.3999 -0.1078 -0.2403
 1116YOPC   GL115881   6.955  14.547   6.156  0.2411 -0.0204 -0.0736
 1116YOPC   GL215882   6.670  14.745   6.246 -0.1605  0.0336  0.0404
 1116YOPC   C1A15883   7.027  14.671   6.565  0.0793 -0.0863 -0.0209
 1116YOPC   D2A15884   6.757  14.727   6.841 -0.0744  0.2525  0.1465
 1116YOPC   C3A15885   6.890  14.607   7.296  0.1427 -0.0233  0.0653
 1116YOPC   C4A15886   7.076  14.711   7.788 -0.1958 -0.1328 -0.1223
 1116YOPC   C1B15887   6.607  15.123   6.513  0.2597  0.0139 -0.2037
 1116YOPC   C2B15888   6.336  15.392   6.571  0.0374  0.4984  0.3395
 1116YOPC   D3B15889   6.417  15.453   6.907 -0.0082 -0.2038  0.0086
 1116YOPC   C4B15890   6.599  15.148   7.120  0.2637  0.3322 -0.0920
 1117YOPC   NC315891  16.339  10.448   5.937  0.0828  0.3286  0.0941
 1117YOPC   PO415892  16.627  10.121   5.665  0.1765  0.1630 -0.1898
 1117YOPC   GL115893  16.659   9.806   6.053  0.2173  0.0351 -0.1199
 1117YOPC   GL215894  16.411   9.622   6.277 -0.0726  0.2211  0.0399
 1117YOPC   C1A15895  16.783   9.782   6.564  0.1879  0.2997 -0.2685
 1117YOPC   D2A15896  17.091   9.839   6.902  0.3168 -0.0875 -0.1440
 1117YOPC   C3A15897  17.082   9.667   7.361 -0.1748 -0.0233  0.4642
 1117YOPC   C4A15898  16.963   9.511   7.669  0.3839 -0.1984 -0.0634
 1117YOPC   C1B15899  16.168   9.865   6.463  0.0868  0.2113 -0.2408
 1117YOPC   C2B15900  16.043  10.184   6.581 -0.0194  0.0215 -0.2642
 1117YOPC   D3B15901  15.891  10.303   6.921  0.1735 -0.1145 -0.5457
 1117YOPC   C4B15902  15.835  10.225   7.377 -0.1317  0.0476 -0.1149
 1118YOPC   NC315903  10.677   2.009   6.198  0.0271 -0.0624  0.1310
 1118YOPC   PO415904  11.153   1.838   6.123 -0.3749 -0.1161  0.2625
 1118YOPC   GL115905  10.967   1.844   6.577  0.1524  0.2646 -0.1836
 1118YOPC   GL215906  10.724   2.130   6.697  0.0585 -0.1132 -0.0160
 1118YOPC   C1A15907  10.947   1.849   7.068 -0.0980 -0.1146 -0.0551
 1118YOPC   D2A15908  10.856   1.927   7.543  0.0391  0.3795  0.1552
 1118YOPC   C3A15909  10.924   1.561   7.631  0.2204  0.1193 -0.0318
 1118YOPC   C4A15910  10.848   1.173   7.987 -0.1239 -0.0658 -0.0411
 1118YOPC   C1B15911  10.746   2.343   7.035  0.0007 -0.0230 -0.0971
 1118YOPC   C2B15912  10.671   2.403   7.457  0.2676  0.0634  0.1871
 1118YOPC   D3B15913  10.934   2.718   7.656 -0.2461  0.2626  0.0466
 1118YOPC   C4B15914  11.375   2.805   7.740  0.3476 -0.1219 -0.1631
 1119YOPC   NC315915   7.800   5.725   6.481  0.3333  0.0896  0.1325
 1119YOPC   PO415916   7.527   6.017   6.238  0.0249  0.0093 -0.1936
 1119YOPC   GL115917   7.371   6.051   6.654 -0.2623  0.0846  0.1364
 1119YOPC   GL215918   7.113   6.263   6.656  0.2483  0.1709  0.1089
 1119YOPC   C1A15919   7.526   5.846   7.148  0.2159  0.1369 -0.3001
 1119YOPC   D2A15920   7.880   5.760   7.530 -0.0805 -0.0558 -0.2849
 1119YOPC   C3A15921   7.781   6.048   7.938  0.0522  0.1816  0.1509
 1119YOPC   C4A15922   7.920   5.899   8.222 -0.0277 -0.0027 -0.3148
 1119YOPC   C1B15923   7.173   6.167   7.098  0.1344  0.0942 -0.0285
 1119YOPC   C2B15924   7.151   6.232   7.531  0.1698  0.3848  0.1235
 1119YOPC   D3B15925   7.350   5.900   7.729  0.3919 -0.2206 -0.0715
 1119YOPC   C4B15926   7.543   5.592   7.854 -0.2839  0.0575 -0.0795
 1120YOPC   NC315927   9.015  12.342   5.667 -0.0663 -0.1141 -0.4043
 1120YOPC   PO415928   8.909  12.224   6.089  0.2439 -0.0439 -0.1129
 1120YOPC   GL115929   8.924  12.347   6.456 -0.1242 -0.3468 -0.0927
 1120YOPC   GL215930   8.696  12.532   6.478 -0.1109 -0.2294  0.1039
 1120YOPC   C1A15931   8.701  12.153   6.834 -0.1439  0.1014  0.0928
 1120YOPC   D2A15932   8.648  12.046   7.223  0.0736 -0.2840  0.0750
 1120YOPC   C3A15933   8.452  11.712   7.600 -0.0561  0.0855  0.2461
 1120YOPC   C4A15934   8.639  11.381   7.854 -0.1983 -0.3761 -0.0176
 1120YOPC   C1B15935   8.673  12.605   6.970 -0.1562  0.1222  0.2083
 1120YOPC   C2B15936   8.886  12.498   7.388 -0.2951  0.1139 -0.3863
 1120YOPC   D3B15937   8.660  12.207   7.687 -0.2404  0.1537 -0.0440
 1120YOPC   C4B15938   8.610  11.883   8.019 -0.2103  0.1635  0.2160
 1121YOPC   NC315939   4.387   6.043   5.322 -0.1067  0.2426 -0.0826
 1121YOPC   PO415940   4.353   5.908   5.794  0.2363  0.3393  0.2655
 1121YOPC   GL115941   4.150   6.055   6.099 -0.0292 -0.1312  0.1143
 1121YOPC   GL215942   4.364   6.259   6.289  0.0581  0.1961  0.0718
 1121YOPC   C1A15943   4.186   5.917   6.615 -0.1284  0.0830 -0.0482
 1121YOPC   D2A15944   4.108   5.789   6.988 -0.0008 -0.1977  0.3075
 1121YOPC   C3A15945   3.784   5.603   7.237  0.1707 -0.2260 -0.6340
 1121YOPC   C4A15946   3.603   5.520   7.643 -0.2503  0.0292 -0.1774
 1121YOPC   C1B15947   4.521   6.359   6.666 -0.1046  0.0785 -0.0394
 1121YOPC   C2B15948   4.574   6.476   7.120  0.0958 -0.2959  0.2277
 1121YOPC   D3B15949   4.729   6.330   7.471 -0.0434 -0.1642 -0.1474
 1121YOPC   C4B15950   4.899   6.110   7.753  0.0780 -0.0516 -0.3513
 1122YOPC   NC315951   3.545  13.468   5.570  0.2754  0.0154  0.1491
 1122YOPC   PO415952   3.753  13.173   5.780  0.0934  0.0236  0.0947
 1122YOPC   GL115953   3.744  13.161   6.211  0.2392 -0.5012  0.2502
 1122YOPC   GL215954   3.946  12.942   6.256 -0.3468 -0.0621  0.0699
 1122YOPC   C1A15955   3.787  13.202   6.735  0.2862  0.0302 -0.0372
 1122YOPC   D2A15956   3.759  13.549   6.907  0.1969  0.0858  0.0239
 1122YOPC   C3A15957   3.786  13.489   7.240  0.1960 -0.0473  0.2239
 1122YOPC   C4A15958   3.827  13.323   7.665 -0.1894  0.1349 -0.1830
 1122YOPC   C1B15959   4.027  12.819   6.691 -0.1665  0.2145 -0.1066
 1122YOPC   C2B15960   3.952  12.977   7.165 -0.5020 -0.2605  0.2646
 1122YOPC   D3B15961   3.721  12.869   7.574  0.1488 -0.1009 -0.0914
 1122YOPC   C4B15962   3.364  12.769   7.804  0.0105 -0.1937 -0.3519
 1123YOPC   NC315963  14.454  17.557   6.125 -0.1669  0.1711  0.1175
 1123YOPC   PO415964  14.143  17.791   6.169  0.4286  0.1747 -0.1517
 1123YOPC   GL115965  14.260  17.885   6.573 -0.1179  0.2099 -0.0534
 1123YOPC   GL215966  14.478  17.929   6.853 -0.0692 -0.0582  0.0121
 1123YOPC   C1A15967  14.129  17.694   7.038  0.0410  0.2263 -0.3821
 1123YOPC   D2A15968  14.136  17.640   7.545  0.1948  0.2789  0.0836
 1123YOPC   C3A15969  13.804  17.609   7.864 -0.1438  0.2058 -0.0495
 1123YOPC   C4A15970  13.855  17.644   8.271 -0.0218 -0.0967  0.0087
 1123YOPC   C1B15971  14.490  17.928   7.277  0.1668  0.0068 -0.0350
 1123YOPC   C2B15972  14.405  18.023   7.782 -0.1046 -0.0169 -0.1398
 1123YOPC   D3B15973  14.581  17.804   8.161 -0.0119 -0.0004 -0.1168
 1123YOPC   C4B15974  14.509  17.807   8.586 -0.1735  0.2513  0.1619
 1124YOPC   NC315975  15.045   2.776   6.246  0.3498 -0.2096 -0.1313
 1124YOPC   PO415976  14.731   2.619   6.470  0.1145 -0.1450 -0.0579
 1124YOPC   GL115977  14.369   2.668   6.651 -0.0962 -0.1025 -0.0217
 1124YOPC   GL215978  14.387   2.950   6.800  0.1947  0.0550 -0.1551
 1124YOPC   C1A15979  14.147   2.485   6.948 -0.1965  0.0280 -0.1024
 1124YOPC   D2A15980  13.953   2.473   7.429 -0.2010  0.0223 -0.1568
 1124YOPC   C3A15981  13.487   2.451   7.358 -0.0800 -0.0566 -0.0118
 1124YOPC   C4A15982  13.320   2.468   6.851 -0.1228 -0.0010 -0.1482
 1124YOPC   C1B15983  14.234   2.933   7.236  0.0571  0.0237  0.0682
 1124YOPC   C2B15984  14.049   3.015   7.731 -0.0688 -0.1118  0.0003
 1124YOPC   D3B15985  14.025   2.830   8.104 -0.1665 -0.1868  0.0630
 1124YOPC   C4B15986  14.025   2.680   8.431  0.1180  0.1716 -0.1612
 1125YOPC   NC315987  14.290  11.084   6.039 -0.0521  0.0954  0.4325
 1125YOPC   PO415988  14.195  11.451   6.216  0.2035 -0.4309  0.1780
 1125YOPC   GL115989  14.333  11.749   6.539 -0.1495  0.2228  0.1370
 1125YOPC   GL215990  14.616  11.694   6.690 -0.1290  0.0755  0.0921
 1125YOPC   C1A15991  14.126  11.903   6.897 -0.1859 -0.0550 -0.0561
 1125YOPC   D2A15992  14.009  12.025   7.366 -0.0159  0.2185  0.2216
 1125YOPC   C3A15993  14.229  12.102   7.639 -0.2069  0.0210  0.1802
 1125YOPC   C4A15994  14.406  12.087   8.031  0.4200 -0.1916 -0.0198
 1125YOPC   C1B15995  14.545  11.618   7.118  0.1996  0.3163 -0.0620
 1125YOPC   C2B15996  14.531  11.691   7.564  0.2654  0.2017  0.3453
 1125YOPC   D3B15997  14.730  12.087   7.638 -0.1204  0.1528  0.0782
 1125YOPC   C4B15998  15.278  12.120   7.706 -0.1852  0.0804  0.0786
 1126YOPC   NC315999   1.778  11.763   5.305  0.0456 -0.0560  0.2019
 1126YOPC   PO416000   1.365  11.874   5.311 -0.1468  0.2904  0.1252
 1126YOPC   GL116001   1.272  11.790   5.714 -0.0181 -0.0485  0.0738
 1126YOPC   GL216002   0.885  11.614   5.719 -0.0110 -0.0360 -0.0571
 1126YOPC   C1A16003   1.354  11.725   6.058  0.1456 -0.0084 -0.0006
 1126YOPC   D2A16004   1.494  11.727   6.492 -0.0715 -0.0450 -0.0114
 1126YOPC   C3A16005   1.912  11.821   6.714 -0.0598  0.1241 -0.2340
 1126YOPC   C4A16006   2.259  11.629   6.681  0.1189 -0.0765 -0.2092
 1126YOPC   C1B16007   1.045  11.355   6.101  0.0843  0.1735  0.1228
 1126YOPC   C2B16008   1.263  11.291   6.392 -0.1167  0.0281 -0.1137
 1126YOPC   D3B16009   1.296  11.339   6.805  0.0420 -0.0519  0.0530
 1126YOPC   C4B16010   1.425  11.327   7.139 -0.0719  0.1613  0.0462
 1127YOPC   NC316011  11.321  12.261   6.006  0.0118  0.1028  0.3176
 1127YOPC   PO416012  10.945  12.240   6.171 -0.0420  0.1813  0.1988
 1127YOPC   GL116013  10.734  12.283   6.653  0.0349  0.0618  0.3485
 1127YOPC   GL216014  10.487  12.484   6.631 -0.0909  0.0669 -0.0428
 1127YOPC   C1A16015  10.656  12.321   7.126 -0.1078  0.1278 -0.0829
 1127YOPC   D2A16016  10.631  12.266   7.522  0.0094 -0.1172 -0.2511
 1127YOPC   C3A16017  10.292  12.272   7.834  0.0269 -0.1277  0.1136
 1127YOPC   C4A16018   9.871  12.415   7.987 -0.0182  0.3319  0.0611
 1127YOPC   C1B16019  10.240  12.558   6.980  0.1146  0.2396 -0.2649
 1127YOPC   C2B16020  10.193  12.536   7.392  0.0065 -0.1883  0.1566
 1127YOPC   D3B16021   9.792  12.289   7.496 -0.2670  0.0273  0.2411
 1127YOPC   C4B16022   9.570  11.956   7.617  0.0433  0.0592 -0.2465
 1128YOPC   NC316023   1.130  16.282   5.944  0.0637  0.0268  0.0031
 1128YOPC   PO416024   0.698  16.281   5.913  0.1248  0.2122 -0.0600
 1128YOPC   GL116025   0.481  16.225   6.254  0.0282 -0.1764 -0.2852
 1128YOPC   GL216026   0.279  16.514   6.292 -0.0911  0.2443  0.4824
 1128YOPC   C1A16027   0.687  16.289   6.709 -0.0879 -0.2107  0.1047
 1128YOPC   D2A16028   0.908  16.377   7.155 -0.2148 -0.0090  0.0446
 1128YOPC   C3A16029   1.046  16.119   7.480  0.2057 -0.1287  0.1733
 1128YOPC   C4A16030   0.843  15.904   7.781 -0.3514  0.0017  0.3322
 1128YOPC   C1B16031   0.172  16.401   6.657  0.2705  0.1574  0.0547
 1128YOPC   C2B16032   0.258  16.137   6.937 -0.0275 -0.1089  0.0319
 1128YOPC   D3B16033   0.081  15.940   7.260  0.1553  0.0013 -0.1482
 1128YOPC   C4B16034   0.064  15.781   7.661 -0.2781  0.2292 -0.2560
 1129YOPC   NC316035   7.834   0.606   6.008  0.4200  0.0275 -0.2984
 1129YOPC   PO416036   8.139   0.352   6.193  0.1813  0.2164 -0.2847
 1129YOPC   GL116037   7.787   0.278   6.502 -0.0118  0.0045 -0.2442
 1129YOPC   GL216038   7.743   0.615   6.522  0.4495  0.1740 -0.1014
 1129YOPC   C1A16039   7.715   0.398   6.968  0.1356  0.0475 -0.1719
 1129YOPC   D2A16040   7.949   0.323   7.321 -0.1855 -0.0450  0.2418
 1129YOPC   C3A16041   8.318   0.198   7.426 -0.0623 -0.1680  0.1363
 1129YOPC   C4A16042   8.644   0.021   7.232 -0.2145  0.1075  0.0447
 1129YOPC   C1B16043   7.354   0.727   6.624  0.2062 -0.1494 -0.1272
 1129YOPC   C2B16044   7.313   0.748   7.155  0.0449  0.2712 -0.0065
 1129YOPC   D3B16045   7.124   0.548   7.416 -0.2176 -0.5090  0.0014
 1129YOPC   C4B16046   6.766   0.548   7.705 -0.0678 -0.0442 -0.1567
 1130YOPC   NC316047  12.968  15.889   5.877  0.0731  0.0110  0.1634
 1130YOPC   PO416048  13.265  16.247   5.843 -0.0857 -0.2343 -0.0455
 1130YOPC   GL116049  13.353  16.200   6.260  0.0639  0.0805  0.0894
 1130YOPC   GL216050  13.174  15.901   6.336  0.0169  0.2569  0.2395
 1130YOPC   C1A16051  13.573  16.475   6.600 -0.0971  0.1520  0.0580
 1130YOPC   D2A16052  13.348  16.599   7.009 -0.2139  0.2030 -0.1064
 1130YOPC   C3A16053  13.315  16.621   7.377  0.0189  0.0267  0.3416
 1130YOPC   C4A16054  13.098  16.456   7.755  0.1373  0.0776 -0.0131
 1130YOPC   C1B16055  12.872  15.873   6.613 -0.3125  0.1579  0.0298
 1130YOPC   C2B16056  12.517  15.656   6.822  0.2282 -0.2584 -0.1195
 1130YOPC   D3B16057  12.381  15.732   7.191 -0.0279  0.3166  0.2414
 1130YOPC   C4B16058  12.196  15.726   7.543  0.2260  0.0450  0.1086
 1131YOPC   NC316059   2.640  10.476   5.206 -0.1422  0.0644  0.1445
 1131YOPC   PO416060   2.841  10.921   5.171 -0.0995 -0.1110  0.1845
 1131YOPC   GL116061   2.708  10.817   5.593 -0.1353  0.0871  0.0307
 1131YOPC   GL216062   2.485  10.727   5.631  0.1426  0.0345  0.0066
 1131YOPC   C1A16063   2.835  10.810   5.976 -0.1063  0.2342 -0.3370
 1131YOPC   D2A16064   3.132  10.931   6.363  0.0305  0.2833 -0.2529
 1131YOPC   C3A16065   2.926  11.141   6.763  0.0419 -0.3746 -0.1745
 1131YOPC   C4A16066   2.841  11.592   7.013 -0.2079  0.2004 -0.1923
 1131YOPC   C1B16067   2.285  10.763   6.076  0.2813 -0.1218  0.1514
 1131YOPC   C2B16068   1.979  10.903   6.302 -0.0547 -0.0798 -0.1833
 1131YOPC   D3B16069   2.124  10.945   6.832  0.2176 -0.0820 -0.0038
 1131YOPC   C4B16070   2.418  11.205   6.940  0.1977  0.0474  0.0101
 1132YOPC   NC316071   0.203  17.645   5.621  0.0206 -0.1813 -0.0855
 1132YOPC   PO416072   0.533  17.277   5.760 -0.0966  0.0190  0.0198
 1132YOPC   GL116073   0.531  17.098   6.261 -0.1133 -0.0618  0.1461
 1132YOPC   GL216074   0.877  17.102   6.356  0.3767 -0.2151 -0.1042
 1132YOPC   C1A16075   0.512  16.799   6.646  0.0944  0.0942 -0.0816
 1132YOPC   D2A16076   0.497  16.658   7.099  0.0371 -0.1066  0.0154
 1132YOPC   C3A16077   0.157  16.502   7.251  0.0279  0.0101  0.1427
 1132YOPC   C4A16078   0.046  16.288   7.611 -0.0271 -0.3238  0.4413
 1132YOPC   C1B16079   0.775  17.450   6.517  0.2337  0.1626  0.1594
 1132YOPC   C2B16080   0.714  17.561   6.905  0.0919  0.1125 -0.1818
 1132YOPC   D3B16081   0.725  17.859   7.171  0.3964 -0.0207 -0.1176
 1132YOPC   C4B16082   0.783  17.661   7.695  0.1261  0.0971 -0.0817
 1133YOPC   NC316083   4.146  15.693   5.744 -0.2534 -0.1489  0.3503
 1133YOPC   PO416084   4.096  15.269   5.901 -0.1432 -0.0334  0.2317
 1133YOPC   GL116085   4.217  15.077   6.352  0.1584 -0.1219 -0.4254
 1133YOPC   GL216086   4.458  14.944   6.250  0.1931  0.2482 -0.2938
 1133YOPC   C1A16087   4.207  14.816   6.724 -0.3639  0.0042 -0.1082
 1133YOPC   D2A16088   3.976  14.577   7.057  0.0855 -0.0104  0.2753
 1133YOPC   C3A16089   3.869  14.288   7.462 -0.2634  0.0755  0.0122
 1133YOPC   C4A16090   3.619  13.885   7.640  0.1762 -0.2510  0.1082
 1133YOPC   C1B16091   4.679  14.563   6.500 -0.0221  0.5824 -0.2361
 1133YOPC   C2B16092   4.894  14.400   6.887 -0.0808 -0.2696  0.0674
 1133YOPC   D3B16093   4.870  14.512   7.283  0.0027  0.1152 -0.1466
 1133YOPC   C4B16094   5.319  14.680   7.428  0.1446 -0.4135  0.0995
 1134YOPC   NC316095   5.619   6.635   6.254  0.0683 -0.0804  0.3167
 1134YOPC   PO416096   6.014   6.867   6.120 -0.0488 -0.2577  0.2124
 1134YOPC   GL116097   6.035   6.746   6.527  0.1840  0.2757 -0.2799
 1134YOPC   GL216098   5.831   6.902   6.654  0.0269  0.1791  0.1389
 1134YOPC   C1A16099   6.330   6.574   6.732  0.0174 -0.2791 -0.0177
 1134YOPC   D2A16100   6.713   6.474   6.964 -0.0444 -0.0065 -0.2079
 1134YOPC   C3A16101   6.747   6.529   7.404  0.0671  0.1394 -0.1092
 1134YOPC   C4A16102   6.960   6.668   7.785 -0.1291  0.1091 -0.1000
 1134YOPC   C1B16103   6.020   6.726   7.077 -0.1868  0.2650  0.0559
 1134YOPC   C2B16104   6.172   6.773   7.534  0.0924  0.0152 -0.2052
 1134YOPC   D3B16105   6.010   6.706   7.991  0.1628 -0.2105 -0.0713
 1134YOPC   C4B16106   5.796   6.488   8.301 -0.2115  0.2746  0.1347
 1135YOPC   NC316107  10.690   3.116   5.870  0.1220  0.0139 -0.0925
 1135YOPC   PO416108  10.844   2.953   6.260 -0.2245 -0.3106 -0.6041
 1135YOPC   GL116109  10.673   2.812   6.681 -0.0020 -0.0016 -0.1808
 1135YOPC   GL216110  10.331   2.850   6.752 -0.3041  0.1490  0.0744
 1135YOPC   C1A16111  10.671   2.832   7.124 -0.0390 -0.0436  0.1877
 1135YOPC   D2A16112  10.599   3.071   7.483  0.1818 -0.2316  0.1673
 1135YOPC   C3A16113  10.586   3.105   7.853  0.1398  0.3165  0.1750
 1135YOPC   C4A16114  10.576   2.983   8.285  0.0161  0.0314  0.2220
 1135YOPC   C1B16115  10.400   3.232   7.024  0.1139  0.3205  0.0598
 1135YOPC   C2B16116  10.327   3.566   7.262  0.1806  0.3908  0.0105
 1135YOPC   D3B16117  10.219   3.426   7.666  0.0245  0.1200 -0.0195
 1135YOPC   C4B16118  10.344   3.477   7.993 -0.0310 -0.1538 -0.3761
 1136YOPC   NC316119   3.158   3.190   6.468  0.1439 -0.0288  0.0115
 1136YOPC   PO416120   3.596   3.130   6.490 -0.2195  0.1596  0.1221
 1136YOPC   GL116121   3.628   3.234   6.834  0.1132 -0.0888  0.0771
 1136YOPC   GL216122   3.818   3.473   6.807 -0.2102 -0.1298  0.3699
 1136YOPC   C1A16123   3.538   3.077   7.165  0.0047  0.1611  0.0879
 1136YOPC   D2A16124   3.454   2.956   7.593 -0.2444  0.1470  0.0958
 1136YOPC   C3A16125   3.689   3.059   7.968 -0.0279 -0.0401  0.0696
 1136YOPC   C4A16126   3.968   3.306   8.334 -0.2640  0.4295 -0.0081
 1136YOPC   C1B16127   3.750   3.507   7.309 -0.0977  0.1140  0.2177
 1136YOPC   C2B16128   3.668   3.716   7.630 -0.0014  0.1783 -0.4061
 1136YOPC   D3B16129   3.701   3.618   8.034 -0.1077  0.0193 -0.0195
 1136YOPC   C4B16130   3.660   3.717   8.438 -0.0914  0.0622  0.2904
 1137YOPC   NC316131   0.641  10.665   5.484  0.0998 -0.1469  0.4298
 1137YOPC   PO416132   0.678  11.092   5.583 -0.0443  0.3002 -0.1765
 1137YOPC   GL116133   1.114  11.142   5.694  0.1040  0.4361 -0.0608
 1137YOPC   GL216134   1.118  10.788   5.727  0.0150  0.0926  0.0541
 1137YOPC   C1A16135   1.459  11.296   5.808 -0.1303 -0.1983  0.0386
 1137YOPC   D2A16136   1.737  11.261   6.032 -0.0362  0.1425  0.1931
 1137YOPC   C3A16137   1.864  11.342   6.571  0.1982  0.2356  0.1035
 1137YOPC   C4A16138   1.869  11.340   6.921 -0.0939 -0.0693  0.0731
 1137YOPC   C1B16139   1.292  10.909   6.089 -0.0200  0.2615 -0.1694
 1137YOPC   C2B16140   1.531  10.905   6.499  0.2600  0.0651  0.0990
 1137YOPC   D3B16141   1.504  10.919   6.864  0.0895 -0.3898  0.1311
 1137YOPC   C4B16142   1.748  10.903   7.188  0.0889 -0.0059 -0.1624
 1138YOPC   NC316143  10.227   1.333   5.594  0.0033 -0.1992 -0.3490
 1138YOPC   PO416144  10.445   0.912   5.852  0.3636  0.1649 -0.1437
 1138YOPC   GL116145  10.438   0.989   6.239 -0.0892  0.4473  0.0541
 1138YOPC   GL216146  10.132   1.208   6.336 -0.0781 -0.0354  0.0129
 1138YOPC   C1A16147  10.556   0.805   6.598 -0.3291  0.1628  0.0336
 1138YOPC   D2A16148  10.369   0.547   6.898  0.1213  0.1290 -0.1311
 1138YOPC   C3A16149  10.544   0.331   7.325  0.2140 -0.0211 -0.1620
 1138YOPC   C4A16150  10.447  -0.049   7.580  0.0953 -0.0257 -0.2511
 1138YOPC   C1B16151  10.307   1.208   6.725 -0.1981 -0.2091  0.1334
 1138YOPC   C2B16152  10.407   1.034   7.050 -0.0053  0.1003 -0.0324
 1138YOPC   D3B16153  10.852   0.981   6.977 -0.2284 -0.2307 -0.0052
 1138YOPC   C4B16154  11.054   0.980   6.577  0.2449 -0.0527 -0.0403
 1139YOPC   NC316155  12.950  14.533   5.922  0.0457  0.0988  0.1360
 1139YOPC   PO416156  12.750  14.147   6.232  0.0174 -0.3159 -0.0935
 1139YOPC   GL116157  12.754  14.282   6.630 -0.0375  0.2869  0.2091
 1139YOPC   GL216158  12.681  14.100   6.960  0.0220  0.3247 -0.1364
 1139YOPC   C1A16159  12.747  14.631   6.824  0.0932  0.2198 -0.0336
 1139YOPC   D2A16160  13.046  14.942   6.934 -0.1059 -0.0488  0.3765
 1139YOPC   C3A16161  13.106  15.135   7.363  0.0471 -0.2130  0.0941
 1139YOPC   C4A16162  12.849  15.198   7.720  0.0351 -0.0848 -0.0495
 1139YOPC   C1B16163  12.384  13.813   6.785  0.1329 -0.0986 -0.1236
 1139YOPC   C2B16164  12.382  13.413   6.765 -0.0622  0.0518  0.3065
 1139YOPC   D3B16165  12.268  13.431   7.139 -0.2135  0.1360  0.0386
 1139YOPC   C4B16166  12.041  13.362   7.610 -0.1159  0.2456  0.0014
 1140YOPC   NC316167   3.681  16.457   5.568  0.1124  0.0666  0.3158
 1140YOPC   PO416168   3.489  16.758   5.853  0.1401  0.1520  0.0172
 1140YOPC   GL116169   3.467  16.671   6.307  0.2761  0.2175 -0.2505
 1140YOPC   GL216170   3.431  16.960   6.470 -0.0162  0.1146  0.2278
 1140YOPC   C1A16171   3.060  16.519   6.624 -0.0165  0.1902 -0.0315
 1140YOPC   D2A16172   2.828  16.923   6.660  0.1510  0.2075  0.0699
 1140YOPC   C3A16173   3.113  17.043   7.006  0.0244  0.1757  0.2735
 1140YOPC   C4A16174   3.065  17.075   7.408 -0.2443  0.0050 -0.0642
 1140YOPC   C1B16175   3.456  16.721   6.921  0.0092  0.1599  0.2422
 1140YOPC   C2B16176   3.353  16.665   7.352 -0.0514 -0.0730 -0.3435
 1140YOPC   D3B16177   3.591  16.545   7.654 -0.0117 -0.0385  0.0006
 1140YOPC   C4B16178   4.028  16.665   7.668  0.1467  0.0291  0.1788
 1141YOPC   NC316179   5.563   0.818   5.393  0.0753 -0.0049  0.1577
 1141YOPC   PO416180   5.873   0.911   5.810  0.2028 -0.1108 -0.0070
 1141YOPC   GL116181   6.062   0.917   6.205  0.3138  0.0241  0.0085
 1141YOPC   GL216182   6.289   1.233   6.137  0.3197  0.1267 -0.0376
 1141YOPC   C1A16183   6.289   0.849   6.564 -0.0408  0.0508  0.2022
 1141YOPC   D2A16184   6.521   0.552   6.727 -0.2348  0.1404  0.1968
 1141YOPC   C3A16185   6.449   0.559   7.204  0.1065  0.1431  0.0506
 1141YOPC   C4A16186   6.295   0.708   7.610  0.1506  0.0808  0.2762
 1141YOPC   C1B16187   6.659   1.118   6.362  0.2269 -0.0092  0.1427
 1141YOPC   C2B16188   6.886   0.887   6.689  0.0043 -0.2218 -0.1975
 1141YOPC   D3B16189   6.814   0.838   7.086  0.1745 -0.2384 -0.0348
 1141YOPC   C4B16190   6.724   1.000   7.417  0.0007  0.0074  0.0441
 1142YOPC   NC316191   4.997   8.796   5.699  0.1000  0.4035 -0.0993
 1142YOPC   PO416192   5.288   8.569   5.968  0.2334 -0.1461  0.0488
 1142YOPC   GL116193   5.432   8.453   6.398  0.0986 -0.0311  0.1594
 1142YOPC   GL216194   5.417   8.751   6.497  0.0877  0.1033  0.0235
 1142YOPC   C1A16195   5.227   8.412   6.762 -0.1112 -0.1171 -0.0254
 1142YOPC   D2A16196   5.073   8.337   7.166  0.2312 -0.3058  0.0057
 1142YOPC   C3A16197   5.122   8.603   7.487  0.0219  0.0487 -0.2394
 1142YOPC   C4A16198   4.949   8.944   7.727  0.0219 -0.1559 -0.0195
 1142YOPC   C1B16199   5.186   9.175   6.529  0.0810  0.4298  0.2270
 1142YOPC   C2B16200   5.184   9.421   6.829 -0.2287  0.0843 -0.0977
 1142YOPC   D3B16201   5.503   9.680   6.753 -0.1733 -0.0175  0.0336
 1142YOPC   C4B16202   5.964   9.630   6.809 -0.2277 -0.1232 -0.2989
 1143ERGO   ROH16203   3.477  11.024   7.574  0.2114 -0.0139  0.0116
 1143ERGO    R116204   3.351  10.779   7.637  0.1246  0.0677  0.1606
 1143ERGO    R216205   3.400  10.546   7.498 -0.1751  0.0281  0.1134
 1143ERGO    R316206   3.456  10.448   7.745  0.0360  0.0061  0.0588
 1143ERGO    R416207   3.291  10.241   7.618 -0.1244  0.0444  0.2020
 1143ERGO    R516208   3.255  10.335   7.811  0.0738  0.0430  0.2417
 1143ERGO    C116209   3.281   9.970   7.919  0.1034  0.0333  0.2023
 1143ERGO    C216210   3.190   9.648   7.928 -0.2679  0.1586  0.0401
 1144ERGO   ROH16211  12.876  15.775  10.173 -0.1033 -0.2755 -0.0634
 1144ERGO    R116212  12.997  15.856   9.930 -0.0769 -0.1371 -0.0073
 1144ERGO    R216213  13.160  15.688   9.782 -0.0570 -0.0575 -0.0902
 1144ERGO    R316214  12.987  15.750   9.582 -0.0425  0.0559 -0.0661
 1144ERGO    R416215  13.235  15.675   9.445 -0.0868  0.0039 -0.0980
 1144ERGO    R516216  13.123  15.860   9.418 -0.0181  0.0463 -0.0453
 1144ERGO    C116217  13.117  15.725   9.061 -0.0906  0.1460 -0.0799
 1144ERGO    C216218  13.168  15.666   8.753  0.2423  0.2607  0.0889
 1145ERGO   ROH16219   5.735   7.547   6.341 -0.1002  0.0412  0.1940
 1145ERGO    R116220   5.854   7.390   6.544 -0.0167 -0.0413  0.0845
 1145ERGO    R216221   5.977   7.502   6.765  0.0256 -0.1302  0.1109
 1145ERGO    R316222   5.806   7.340   6.902  0.0888 -0.2272  0.0733
 1145ERGO    R416223   6.033   7.380   7.084  0.1220 -0.2671  0.0411
 1145ERGO    R516224   5.950   7.189   7.020  0.1455 -0.2533 -0.0295
 1145ERGO    C116225   5.906   7.158   7.398  0.2374 -0.4378 -0.0348
 1145ERGO    C216226   6.088   7.262   7.739 -0.3817  0.1392  0.0484
 1146ERGO   ROH16227  15.222  12.833   6.370 -0.2345  0.1540  0.1007
 1146ERGO    R116228  15.373  12.826   6.610 -0.1633  0.1404  0.0553
 1146ERGO    R216229  15.322  12.994   6.822 -0.2052  0.0176  0.1409
 1146ERGO    R316230  15.308  12.762   6.962 -0.0254 -0.0516  0.0483
 1146ERGO    R416231  15.479  12.935   7.125  0.1618 -0.1163 -0.0681
 1146ERGO    R516232  15.526  12.734   7.055  0.0931 -0.0832 -0.2240
 1146ERGO    C116233  15.556  12.682   7.432  0.5442 -0.2592 -0.2767
 1146ERGO    C216234  15.585  12.719   7.792 -0.1068 -0.1380  0.1615
 1147ERGO   ROH16235  11.693  12.603   6.689 -0.0518  0.0042 -0.0024
 1147ERGO    R116236  11.665  12.456   6.929  0.0170 -0.0038  0.0004
 1147ERGO    R216237  11.808  12.515   7.158  0.0008  0.0568 -0.0080
 1147ERGO    R316238  11.561  12.524   7.271  0.0022 -0.0429  0.0045
 1147ERGO    R416239  11.741  12.448   7.490  0.0279 -0.1156 -0.0361
 1147ERGO    R516240  11.561  12.342   7.427  0.0434 -0.1202 -0.0818
 1147ERGO    C116241  11.470  12.417   7.790  0.0450 -0.3095 -0.0408
 1147ERGO    C216242  11.312  12.474   8.129 -0.0297  0.0185 -0.2101
 1148ERGO   ROH16243   0.544   9.919   9.883 -0.0620 -0.0888 -0.0424
 1148ERGO    R116244   0.442   9.984   9.627  0.0869  0.1577 -0.0414
 1148ERGO    R216245   0.584  10.137   9.445  0.3767 -0.0241  0.0259
 1148ERGO    R316246   0.538   9.925   9.281  0.0449  0.0940 -0.0424
 1148ERGO    R416247   0.585  10.149   9.100  0.5835  0.0512  0.0277
 1148ERGO    R516248   0.413  10.016   9.099  0.3150  0.3833 -0.0917
 1148ERGO    C116249   0.543   9.957   8.745  0.3924  0.2058 -0.0352
 1148ERGO    C216250   0.444  10.000   8.418 -0.0125  0.0779  0.0308
 1149ERGO   ROH16251   7.589   0.229  10.129 -0.1386  0.0873 -0.0138
 1149ERGO    R116252   7.583   0.370   9.883 -0.0185  0.1052 -0.0073
 1149ERGO    R216253   7.774   0.333   9.686  0.0348  0.0610  0.0493
 1149ERGO    R316254   7.556   0.285   9.530  0.0685  0.1348 -0.0208
 1149ERGO    R416255   7.771   0.348   9.341  0.1773 -0.0530  0.0423
 1149ERGO    R516256   7.575   0.443   9.352  0.2286  0.0632 -0.0671
 1149ERGO    C116257   7.565   0.312   8.994  0.2920 -0.0501 -0.0276
 1149ERGO    C216258   7.626   0.259   8.641  0.1906  0.3417 -0.0721
 1150ERGO   ROH16259  14.221   1.441   6.727 -0.2200 -0.0771 -0.0603
 1150ERGO    R116260  14.241   1.450   7.009 -0.0729 -0.1147 -0.0678
 1150ERGO    R216261  14.055   1.580   7.168  0.0706 -0.0337  0.0420
 1150ERGO    R316262  14.040   1.339   7.292  0.0109 -0.0401  0.0208
 1150ERGO    R416263  13.961   1.532   7.497  0.2058 -0.0300  0.0809
 1150ERGO    R516264  14.117   1.381   7.514  0.1377 -0.1072 -0.0120
 1150ERGO    C116265  13.892   1.278   7.805  0.2283 -0.0338  0.0838
 1150ERGO    C216266  13.648   1.307   7.991 -0.0732  0.0359  0.0034
 1151ERGO   ROH16267  10.193  15.624   6.212  0.0072  0.1284  0.1041
 1151ERGO    R116268  10.130  15.631   6.488  0.0398  0.1101  0.1115
 1151ERGO    R216269  10.087  15.402   6.637  0.0272  0.1028  0.0925
 1151ERGO    R316270  10.279  15.509   6.797  0.0586  0.0615  0.0839
 1151ERGO    R416271  10.085  15.393   6.983  0.0344  0.1128  0.0935
 1151ERGO    R516272  10.159  15.598   6.984  0.0842  0.0964  0.0853
 1151ERGO    C116273  10.264  15.488   7.334  0.0679  0.0797  0.0859
 1151ERGO    C216274  10.082  15.403   7.704 -0.1664 -0.1362 -0.1614
 1152ERGO   ROH16275  11.037   7.292   6.759  0.0145 -0.1451 -0.0759
 1152ERGO    R116276  11.103   7.198   7.018  0.0890  0.0704 -0.0143
 1152ERGO    R216277  11.061   7.348   7.246 -0.2379  0.1004 -0.0867
 1152ERGO    R316278  10.925   7.127   7.328  0.1001 -0.0993 -0.0465
 1152ERGO    R416279  10.930   7.302   7.563 -0.2828  0.0117 -0.1182
 1152ERGO    R516280  10.995   7.094   7.554  0.0716  0.1132 -0.0063
 1152ERGO    C116281  10.726   7.068   7.823  0.0084 -0.2274 -0.0988
 1152ERGO    C216282  10.606   6.972   8.230  0.2497 -0.2712  0.0003
 1153ERGO   ROH16283  13.106  16.572  10.203  0.0703  0.0010  0.0326
 1153ERGO    R116284  13.199  16.512   9.943  0.0818  0.0730  0.0205
 1153ERGO    R216285  13.050  16.366   9.762  0.1898 -0.0819  0.0595
 1153ERGO    R316286  13.093  16.581   9.602 -0.0456 -0.0515  0.0328
 1153ERGO    R416287  13.057  16.357   9.416  0.4293 -0.1724  0.0646
 1153ERGO    R516288  13.225  16.496   9.421  0.2140  0.1007  0.1414
 1153ERGO    C116289  13.102  16.554   9.065  0.3480 -0.1966  0.0425
 1153ERGO    C216290  13.144  16.571   8.728  0.1786 -0.1822 -0.1338
 1154ERGO   ROH16291   7.086   5.576   6.590  0.2025  0.0679 -0.1525
 1154ERGO    R116292   7.135   5.655   6.857  0.0115  0.1122 -0.1295
 1154ERGO    R216293   6.932   5.693   7.041 -0.1028 -0.1394 -0.2028
 1154ERGO    R316294   7.077   5.516   7.189  0.0550  0.0228 -0.1586
 1154ERGO    R416295   6.930   5.675   7.387 -0.2242 -0.1707 -0.2039
 1154ERGO    R516296   7.145   5.641   7.381 -0.1764  0.0929 -0.1179
 1154ERGO    C116297   7.065   5.498   7.726 -0.1469 -0.0366 -0.1630
 1154ERGO    C216298   7.109   5.540   8.073 -0.1015  0.1685  0.0842
 1155ERGO   ROH16299  14.796   7.319  10.466 -0.2625  0.1327 -0.0543
 1155ERGO    R116300  14.859   7.169  10.234 -0.3421  0.0515 -0.0229
 1155ERGO    R216301  14.670   7.101  10.044 -0.3440  0.2670 -0.0939
 1155ERGO    R316302  14.845   7.220   9.874 -0.1346  0.0562 -0.0326
 1155ERGO    R416303  14.700   7.027   9.708 -0.2993  0.2061 -0.0776
 1155ERGO    R516304  14.916   7.043   9.729 -0.2810 -0.0426  0.0083
 1155ERGO    C116305  14.882   7.096   9.352 -0.0767 -0.0273 -0.0103
 1155ERGO    C216306  14.787   6.996   9.032  0.1189 -0.2456 -0.4124
 1156ERGO   ROH16307   0.202   4.077   6.808  0.0857  0.0438  0.0523
 1156ERGO    R116308   0.186   3.802   6.874  0.0331  0.0431  0.0408
 1156ERGO    R216309   0.311   3.694   7.095  0.0487  0.0006  0.0171
 1156ERGO    R316310   0.061   3.603   7.152  0.0349  0.0617  0.0529
 1156ERGO    R416311   0.239   3.438   7.316  0.0128 -0.0341 -0.0354
 1156ERGO    R516312   0.089   3.366   7.176 -0.0387  0.0503 -0.0145
 1156ERGO    C116313  -0.037   3.203   7.497 -0.0211  0.0031 -0.0324
 1156ERGO    C216314  -0.186   2.863   7.709 -0.0004 -0.2452  0.2072
 1157ERGO   ROH16315   5.177  12.070   6.080 -0.0286  0.2131  0.0452
 1157ERGO    R116316   5.169  12.186   6.338 -0.0730  0.1017  0.0951
 1157ERGO    R216317   5.112  12.039   6.566  0.0379 -0.0293  0.0428
 1157ERGO    R316318   5.348  12.143   6.652 -0.0148  0.0772  0.0578
 1157ERGO    R416319   5.204  12.075   6.897  0.1044 -0.2162  0.0455
 1157ERGO    R516320   5.290  12.268   6.847 -0.0515 -0.1149  0.1700
 1157ERGO    C116321   5.478  12.194   7.171  0.0937 -0.2248  0.0610
 1157ERGO    C216322   5.675  12.185   7.449 -0.2131  0.1461  0.3915
 1158ERGO   ROH16323  17.401   0.024   6.514  0.0675 -0.2174 -0.1653
 1158ERGO    R116324  17.346  -0.132   6.743 -0.0656 -0.0716 -0.0967
 1158ERGO    R216325  17.498  -0.118   6.973 -0.0348 -0.1225 -0.1161
 1158ERGO    R316326  17.258  -0.070   7.091  0.0177  0.1550 -0.1146
 1158ERGO    R416327  17.430  -0.167   7.308 -0.0875 -0.0362 -0.1134
 1158ERGO    R516328  17.235  -0.246   7.252 -0.1814  0.1831 -0.1091
 1158ERGO    C116329  17.166  -0.150   7.614 -0.0688  0.2742 -0.1103
 1158ERGO    C216330  17.033  -0.288   7.899  0.1680 -0.1580  0.0422
 1159ERGO   ROH16331  11.728   7.932   6.430  0.0977 -0.1649 -0.1167
 1159ERGO    R116332  11.673   7.925   6.708  0.0010 -0.0978 -0.1325
 1159ERGO    R216333  11.804   7.754   6.880 -0.0713 -0.0705 -0.0459
 1159ERGO    R316334  11.858   7.984   7.015 -0.0995 -0.0436 -0.0823
 1159ERGO    R416335  11.806   7.785   7.225 -0.2171  0.0160 -0.0533
 1159ERGO    R516336  11.709   7.979   7.203 -0.1817  0.0235 -0.1459
 1159ERGO    C116337  11.857   8.019   7.552 -0.3286  0.0916 -0.0919
 1159ERGO    C216338  12.122   8.151   7.742  0.0956 -0.2449  0.1887
 1160ERGO   ROH16339   1.037   1.142   6.418  0.0043  0.0695  0.0769
 1160ERGO    R116340   1.110   1.135   6.691 -0.0388  0.1513  0.0907
 1160ERGO    R216341   0.938   1.215   6.893 -0.1266  0.0647  0.0509
 1160ERGO    R316342   0.993   0.968   6.992  0.0181  0.1116  0.0911
 1160ERGO    R416343   0.897   1.121   7.223 -0.0740  0.0955  0.0663
 1160ERGO    R516344   1.084   1.009   7.209 -0.0070  0.2018  0.0855
 1160ERGO    C116345   0.924   0.834   7.508  0.0925  0.1574  0.1128
 1160ERGO    C216346   0.786   0.680   7.793 -0.3673  0.0880 -0.2598
 1161ERGO   ROH16347  17.713   7.650   6.447 -0.0729  0.0433  0.1107
 1161ERGO    R116348  17.803   7.685   6.713 -0.0253  0.1170  0.0867
 1161ERGO    R216349  17.896   7.927   6.808  0.0630  0.1312 -0.0143
 1161ERGO    R316350  17.708   7.887   7.000  0.0722  0.2559  0.0195
 1161ERGO    R416351  17.913   8.049   7.131  0.3282 -0.1195  0.0701
 1161ERGO    R516352  17.833   7.860   7.202  0.0957 -0.0560 -0.0390
 1161ERGO    C116353  17.746   8.083   7.499  0.4915 -0.1484  0.1510
 1161ERGO    C216354  17.831   8.211   7.781 -0.1186 -0.2454 -0.2991
 1162ERGO   ROH16355   6.581   0.335  10.158 -0.1059  0.0775  0.0392
 1162ERGO    R116356   6.474   0.326   9.897 -0.1048 -0.0285  0.0410
 1162ERGO    R216357   6.571   0.482   9.690 -0.2688  0.0790  0.0364
 1162ERGO    R316358   6.597   0.243   9.564 -0.0240  0.1019  0.0393
 1162ERGO    R416359   6.567   0.439   9.348 -0.1624  0.0665  0.0372
 1162ERGO    R516360   6.448   0.259   9.377  0.0004 -0.0405  0.0120
 1162ERGO    C116361   6.589   0.190   9.029  0.1294  0.0808  0.0403
 1162ERGO    C216362   6.561   0.230   8.608 -0.3262 -0.1385  0.1671
 1163ERGO   ROH16363   4.249  13.433   6.121 -0.1059  0.3962  0.0033
 1163ERGO    R116364   4.223  13.331   6.384 -0.0837  0.2686 -0.0433
 1163ERGO    R216365   4.437  13.311   6.558 -0.0558  0.1240 -0.0921
 1163ERGO    R316366   4.275  13.455   6.722  0.0111  0.0834  0.0108
 1163ERGO    R416367   4.470  13.330   6.901  0.1167  0.0874 -0.1057
 1163ERGO    R516368   4.253  13.320   6.918  0.1281  0.0586  0.0059
 1163ERGO    C116369   4.338  13.477   7.255  0.2799  0.0280 -0.0169
 1163ERGO    C216370   4.359  13.447   7.605 -0.1513  0.4666  0.1633
 1164ERGO   ROH16371  17.738  11.824   6.238 -0.1638  0.0120  0.0757
 1164ERGO    R116372  17.633  11.844   6.500 -0.0447 -0.1194  0.1357
 1164ERGO    R216373  17.746  11.715   6.716  0.2199 -0.0058  0.0711
 1164ERGO    R316374  17.748  11.965   6.823 -0.0010 -0.0057  0.0775
 1164ERGO    R416375  17.751  11.785   7.054  0.3187 -0.0130  0.0710
 1164ERGO    R516376  17.610  11.948   7.017  0.1187 -0.1659  0.1494
 1164ERGO    C116377  17.755  12.061   7.351  0.1688 -0.0170  0.0769
 1164ERGO    C216378  17.638  12.285   7.503  0.1790 -0.0177 -0.1631
 1165ERGO   ROH16379   3.401   8.586   6.623 -0.0001 -0.0361  0.0431
 1165ERGO    R116380   3.306   8.626   6.887  0.0093 -0.0288  0.0449
 1165ERGO    R216381   3.313   8.427   7.079  0.0067 -0.0250  0.0454
 1165ERGO    R316382   3.446   8.616   7.222  0.0173 -0.0295  0.0423
 1165ERGO    R416383   3.321   8.443   7.424 -0.0330  0.0031  0.0454
 1165ERGO    R516384   3.303   8.660   7.409 -0.0011  0.0072  0.0222
 1165ERGO    C116385   3.450   8.630   7.760 -0.0460  0.0154  0.0424
 1165ERGO    C216386   3.620   8.563   8.041 -0.0519  0.2208 -0.1417
 1166ERGO   ROH16387   7.651   8.807   6.630  0.1113 -0.0825  0.1109
 1166ERGO    R116388   7.769   8.760   6.883  0.1653 -0.0064  0.1013
 1166ERGO    R216389   8.039   8.796   6.930  0.1730  0.0480  0.0459
 1166ERGO    R316390   7.950   8.956   7.131  0.1791  0.0808  0.0210
 1166ERGO    R416391   8.206   8.850   7.227  0.0364 -0.1305  0.1567
 1166ERGO    R516392   8.015   8.841   7.331 -0.0294 -0.0006  0.0401
 1166ERGO    C116393   8.220   9.033   7.589 -0.0374 -0.2037  0.1979
 1166ERGO    C216394   8.165   8.980   7.932  0.0716  0.1418 -0.2447
 1167ERGO   ROH16395  10.252  16.425  10.134  0.0599 -0.0013  0.0864
 1167ERGO    R116396  10.080  16.413   9.910 -0.1444  0.2154  0.2291
 1167ERGO    R216397   9.999  16.638   9.772  0.3778  0.2923  0.0437
 1167ERGO    R316398  10.097  16.502   9.557 -0.1483 -0.2307  0.1069
 1167ERGO    R416399   9.946  16.726   9.442  0.5884  0.2670  0.0007
 1167ERGO    R516400   9.921  16.515   9.395 -0.1823  0.2828  0.1550
 1167ERGO    C116401  10.007  16.650   9.049  0.2170 -0.2388  0.0347
 1167ERGO    C216402   9.895  16.658   8.807  0.1968  0.3015 -0.0231
 1168ERGO   ROH16403   7.485  16.762  10.155  0.0603  0.1457 -0.0280
 1168ERGO    R116404   7.321  16.745   9.925  0.0976  0.1957 -0.0594
 1168ERGO    R216405   7.350  16.913   9.708  0.2517  0.1273 -0.0968
 1168ERGO    R316406   7.368  16.679   9.571  0.1348  0.0806 -0.0326
 1168ERGO    R416407   7.314  16.882   9.366  0.0161  0.0103 -0.0632
 1168ERGO    R516408   7.201  16.699   9.399  0.0223  0.0351  0.0738
 1168ERGO    C116409   7.310  16.645   9.037 -0.2309 -0.1019  0.0166
 1168ERGO    C216410   7.384  16.759   8.802 -0.0815  0.2702  0.0878
 1169ERGO   ROH16411   3.673   9.918   9.695  0.1098 -0.0449 -0.0913
 1169ERGO    R116412   3.580   9.867   9.432  0.1411 -0.1459 -0.0831
 1169ERGO    R216413   3.570  10.064   9.238  0.0372 -0.1893 -0.1191
 1169ERGO    R316414   3.717   9.885   9.096  0.1360 -0.1360 -0.0854
 1169ERGO    R416415   3.562  10.030   8.894  0.0527 -0.2543 -0.1135
 1169ERGO    R516416   3.571   9.813   8.920  0.1711 -0.2478 -0.0727
 1169ERGO    C116417   3.695   9.842   8.560  0.1546 -0.2422 -0.0784
 1169ERGO    C216418   3.517   9.779   8.349  0.0482 -0.1549 -0.0731
 1170ERGO   ROH16419   1.941  14.882   7.761  0.0680 -0.1926 -0.0160
 1170ERGO    R116420   1.886  14.983   8.020  0.0062 -0.1128 -0.0595
 1170ERGO    R216421   1.657  14.919   8.159  0.0637 -0.2266 -0.0156
 1170ERGO    R316422   1.833  14.844   8.352  0.1355  0.0004  0.0097
 1170ERGO    R416423   1.596  14.937   8.499  0.0037 -0.2690 -0.0242
 1170ERGO    R516424   1.802  15.005   8.527 -0.0778 -0.0191 -0.0075
 1170ERGO    C116425   1.726  14.877   8.878  0.0362 -0.0804 -0.0054
 1170ERGO    C216426   1.740  14.893   9.222  0.0118  0.1400 -0.2633
 1171ERGO   ROH16427  15.149   1.329   6.962 -0.2948 -0.0430 -0.0686
 1171ERGO    R116428  15.209   1.400   7.229 -0.1281 -0.1337 -0.0803
 1171ERGO    R216429  15.114   1.631   7.346  0.0236 -0.1241  0.0286
 1171ERGO    R316430  15.022   1.460   7.535  0.0529 -0.1356  0.0318
 1171ERGO    R416431  15.018   1.723   7.665  0.1370 -0.1542  0.0712
 1171ERGO    R516432  15.114   1.542   7.740  0.1295 -0.1811  0.0153
 1171ERGO    C116433  14.876   1.615   8.029  0.2305 -0.1826  0.0992
 1171ERGO    C216434  14.716   1.777   8.263  0.1061  0.0668 -0.3847
 1172ERGO   ROH16435   4.809  16.979   6.679  0.0309 -0.1689 -0.1452
 1172ERGO    R116436   4.764  16.772   6.867  0.2814 -0.2410 -0.1614
 1172ERGO    R216437   4.969  16.652   7.007  0.4043  0.2614  0.1134
 1172ERGO    R316438   4.819  16.721   7.223 -0.0311 -0.0336 -0.0796
 1172ERGO    R416439   5.022  16.537   7.329  0.2899  0.4609  0.2050
 1172ERGO    R516440   4.806  16.520   7.353  0.2860 -0.0439 -0.0548
 1172ERGO    C116441   4.912  16.536   7.719 -0.1854  0.2999  0.0772
 1172ERGO    C216442   4.846  16.534   8.028 -0.3033 -0.3293 -0.0810
 1173ERGO   ROH16443  13.072  15.434   6.748 -0.0096  0.0789  0.1335
 1173ERGO    R116444  12.997  15.506   7.011  0.1847  0.1176  0.1797
 1173ERGO    R216445  13.146  15.680   7.166  0.1291  0.4024 -0.0780
 1173ERGO    R316446  12.910  15.813   7.187 -0.0320  0.0985  0.1091
 1173ERGO    R416447  13.030  15.833   7.453  0.0874  0.1266  0.0557
 1173ERGO    R516448  12.830  15.759   7.406  0.1510 -0.1043  0.1300
 1173ERGO    C116449  12.741  16.047   7.640 -0.0880 -0.3193  0.3093
 1173ERGO    C216450  12.617  16.347   7.777 -0.0977 -0.0427  0.0648
 1174ERGO   ROH16451   9.086   2.788   7.405  0.0881 -0.0531 -0.1367
 1174ERGO    R116452   9.195   2.773   7.666  0.0679  0.0552 -0.1214
 1174ERGO    R216453   9.037   2.763   7.893  0.0466 -0.0360 -0.1387
 1174ERGO    R316454   9.182   2.539   7.945  0.2050  0.0754 -0.0983
 1174ERGO    R416455   9.132   2.659   8.208  0.0963  0.0697 -0.1188
 1174ERGO    R516456   9.326   2.603   8.125  0.1436  0.2005 -0.0942
 1174ERGO    C116457   9.325   2.389   8.441  0.2740  0.2358 -0.0693
 1174ERGO    C216458   9.249   2.269   8.707 -0.1097 -0.0703 -0.1533
 1175ERGO   ROH16459  12.316  15.031  10.146 -0.2517 -0.0962  0.0127
 1175ERGO    R116460  12.444  15.097   9.902 -0.2103 -0.0269  0.0534
 1175ERGO    R216461  12.604  14.918   9.765 -0.1395  0.0325  0.0608
 1175ERGO    R316462  12.436  14.976   9.559 -0.1041  0.0295  0.0303
 1175ERGO    R416463  12.672  14.860   9.431 -0.1862 -0.2140  0.0914
 1175ERGO    R516464  12.580  15.052   9.384 -0.0532 -0.1747 -0.0195
 1175ERGO    C116465  12.554  14.882   9.043 -0.1800 -0.3603  0.0806
 1175ERGO    C216466  12.662  14.722   8.768  0.0272 -0.0210  0.2316
 1176ERGO   ROH16467   2.230   1.979   6.787 -0.0855  0.2582  0.1891
 1176ERGO    R116468   2.331   1.995   7.051 -0.0056  0.0947  0.1693
 1176ERGO    R216469   2.258   1.817   7.249 -0.0822  0.0806  0.1264
 1176ERGO    R316470   2.527   1.783   7.273 -0.1014 -0.1225  0.0488
 1176ERGO    R416471   2.423   1.758   7.546 -0.0017  0.3509  0.1384
 1176ERGO    R516472   2.582   1.892   7.479  0.0877  0.1200 -0.1240
 1176ERGO    C116473   2.772   1.692   7.742  0.0271  0.3176  0.0723
 1176ERGO    C216474   2.823   1.449   7.810  0.0293 -0.1571 -0.0370
 1177ERGO   ROH16475   2.566  15.463   6.357  0.0152  0.0789 -0.0856
 1177ERGO    R116476   2.410  15.494   6.591 -0.0459  0.0899 -0.1265
 1177ERGO    R216477   2.496  15.409   6.839 -0.2168 -0.1332 -0.1364
 1177ERGO    R316478   2.444  15.666   6.910 -0.0031 -0.1211 -0.0169
 1177ERGO    R416479   2.425  15.515   7.161 -0.2966 -0.2458 -0.1171
 1177ERGO    R516480   2.274  15.648   7.078 -0.1163 -0.0486 -0.1266
 1177ERGO    C116481   2.334  15.818   7.414 -0.1425 -0.3001  0.0063
 1177ERGO    C216482   2.278  15.725   7.668  0.0239  0.0666 -0.3318
 1178ERGO   ROH16483   1.619  10.014   6.123  0.1262 -0.1192 -0.1683
 1178ERGO    R116484   1.572  10.097   6.390  0.2573  0.0704 -0.2024
 1178ERGO    R216485   1.388   9.972   6.554 -0.0236  0.4918 -0.1803
 1178ERGO    R316486   1.601   9.950   6.721 -0.0801  0.1176 -0.1479
 1178ERGO    R416487   1.368   9.936   6.897 -0.1342  0.4941 -0.1858
 1178ERGO    R516488   1.537  10.072   6.917  0.0950  0.2112 -0.1477
 1178ERGO    C116489   1.557   9.895   7.254 -0.2517  0.1440 -0.1585
 1178ERGO    C216490   1.643   9.702   7.592 -0.0217  0.1617 -0.0716
 1179ERGO   ROH16491   6.137  11.397   6.231 -0.1479 -0.1324  0.0647
 1179ERGO    R116492   6.196  11.544   6.466 -0.0615 -0.0170 -0.0270
 1179ERGO    R216493   6.039  11.533   6.693 -0.0350  0.1681  0.0097
 1179ERGO    R316494   6.274  11.468   6.813 -0.0379  0.1515  0.0038
 1179ERGO    R416495   6.116  11.597   7.023  0.0202  0.2335 -0.0166
 1179ERGO    R516496   6.318  11.651   6.961  0.0194  0.1740 -0.0483
 1179ERGO    C116497   6.382  11.574   7.329  0.0497  0.2560 -0.0374
 1179ERGO    C216498   6.431  11.499   7.735  0.1667  0.2603  0.0682
 1180ERGO   ROH16499   4.968  10.597   6.579  0.2576  0.0544  0.1063
 1180ERGO    R116500   4.799  10.774   6.722  0.1142  0.0923 -0.1050
 1180ERGO    R216501   4.545  10.841   6.635 -0.0140 -0.3588 -0.1032
 1180ERGO    R316502   4.473  10.755   6.882  0.2103 -0.0422  0.0804
 1180ERGO    R416503   4.241  10.906   6.786  0.0158 -0.3949 -0.0260
 1180ERGO    R516504   4.346  10.937   6.974  0.1046 -0.0066 -0.1284
 1180ERGO    C116505   3.996  10.864   7.105  0.2438 -0.1187  0.1913
 1180ERGO    C216506   3.770  10.886   7.169 -0.2504  0.1454  0.0411
 1181ERGO   ROH16507  13.033   3.000   6.741  0.0551  0.0748 -0.0295
 1181ERGO    R116508  13.033   2.862   6.988  0.0783  0.0281 -0.0544
 1181ERGO    R216509  13.236   2.888   7.173  0.0754  0.0288 -0.0469
 1181ERGO    R316510  13.032   2.953   7.341  0.0624 -0.0360 -0.0386
 1181ERGO    R416511  13.235   2.830   7.514  0.0701 -0.0447 -0.0599
 1181ERGO    R516512  13.025   2.773   7.498  0.0808 -0.0690 -0.0783
 1181ERGO    C116513  13.043   2.857   7.869  0.0548 -0.1484 -0.0597
 1181ERGO    C216514  13.190   2.816   8.143 -0.0812 -0.0341  0.0738
 1182ERGO   ROH16515   5.549   5.052   6.792  0.1538  0.0843 -0.1857
 1182ERGO    R116516   5.508   4.911   7.034  0.0494  0.0620 -0.2152
 1182ERGO    R216517   5.714   4.854   7.210 -0.0087 -0.0379 -0.1759
 1182ERGO    R316518   5.552   4.977   7.389 -0.0056 -0.0057 -0.1960
 1182ERGO    R416519   5.803   4.936   7.533 -0.0007  0.0387 -0.1978
 1182ERGO    R516520   5.605   4.874   7.599  0.0068  0.0448 -0.1758
 1182ERGO    C116521   5.703   5.099   7.891  0.0068  0.1136 -0.2294
 1182ERGO    C216522   5.735   5.382   8.223  0.3342 -0.0641 -0.0178
 1183ERGO   ROH16523   9.718   5.821  10.275 -0.0596  0.0360  0.1713
 1183ERGO    R116524   9.581   5.728  10.045  0.0238  0.0357  0.1220
 1183ERGO    R216525   9.501   5.897   9.842  0.0161  0.0479  0.1392
 1183ERGO    R316526   9.641   5.722   9.686  0.1068  0.1240  0.1332
 1183ERGO    R416527   9.467   5.867   9.499 -0.0613 -0.0398  0.1535
 1183ERGO    R516528   9.483   5.650   9.521  0.1107 -0.0278  0.1912
 1183ERGO    C116529   9.578   5.686   9.154 -0.0212 -0.0196  0.1562
 1183ERGO    C216530   9.415   5.749   8.902 -0.4446  0.0220  0.1194
 1184ERGO   ROH16531   1.309  12.637   9.478 -0.1767  0.0098 -0.0864
 1184ERGO    R116532   1.416  12.713   9.227 -0.1275  0.0756 -0.0465
 1184ERGO    R216533   1.456  12.531   9.022 -0.0430  0.1192 -0.0719
 1184ERGO    R316534   1.305  12.707   8.880 -0.0413  0.1179 -0.0744
 1184ERGO    R416535   1.435  12.542   8.677 -0.0488  0.1153 -0.0713
 1184ERGO    R516536   1.437  12.759   8.688 -0.0455  0.1128 -0.0763
 1184ERGO    C116537   1.281  12.713   8.344 -0.0506  0.1118 -0.0735
 1184ERGO    C216538   1.338  12.815   8.037 -0.0274  0.3617  0.0862
 1185ERGO   ROH16539   8.336   3.531  10.409 -0.0285 -0.0998  0.0694
 1185ERGO    R116540   8.155   3.498  10.193 -0.0678 -0.2023  0.1182
 1185ERGO    R216541   8.114   3.693  10.002 -0.1724 -0.2575  0.0873
 1185ERGO    R316542   8.176   3.493   9.830 -0.1519 -0.2742  0.1132
 1185ERGO    R416543   8.072   3.707   9.659 -0.0088 -0.2338  0.0669
 1185ERGO    R516544   8.003   3.500   9.665 -0.0754 -0.2161  0.0316
 1185ERGO    C116545   8.105   3.526   9.298  0.1057 -0.2355  0.0792
 1185ERGO    C216546   8.078   3.449   9.040 -0.1158 -0.2066 -0.1687
 1186ERGO   ROH16547   1.405  14.946   6.255 -0.0846 -0.1538 -0.1049
 1186ERGO    R116548   1.447  14.888   6.529 -0.2483 -0.0543 -0.0592
 1186ERGO    R216549   1.630  15.025   6.685 -0.0299 -0.2848 -0.1184
 1186ERGO    R316550   1.414  15.066   6.844  0.0062  0.2122 -0.1765
 1186ERGO    R416551   1.644  15.109   7.020  0.0901 -0.4989 -0.0662
 1186ERGO    R516552   1.477  14.974   7.056 -0.3031 -0.0854 -0.1991
 1186ERGO    C116553   1.449  15.196   7.364  0.1939 -0.1569 -0.0904
 1186ERGO    C216554   1.608  15.250   7.672  0.1459 -0.2127  0.2300
 1187ERGO   ROH16555  12.503  12.112   6.716  0.0505 -0.2953 -0.0690
 1187ERGO    R116556  12.558  11.958   6.947 -0.0421 -0.1747  0.0343
 1187ERGO    R216557  12.702  12.058   7.161  0.0114 -0.1160 -0.0335
 1187ERGO    R316558  12.484  11.979   7.303 -0.0343  0.1031  0.0234
 1187ERGO    R416559  12.705  11.965   7.494  0.0500 -0.2895 -0.0807
 1187ERGO    R516560  12.566  11.805   7.446 -0.1921 -0.0847 -0.1027
 1187ERGO    C116561  12.503  11.837   7.821  0.0293 -0.1848 -0.0548
 1187ERGO    C216562  12.253  11.834   8.085  0.0011 -0.0197 -0.1499
 1188ERGO   ROH16563  13.893   4.106   6.813 -0.0427  0.0655 -0.1926
 1188ERGO    R116564  14.007   3.949   7.018 -0.0770  0.0124 -0.2144
 1188ERGO    R216565  14.182   4.052   7.206 -0.0061 -0.0650 -0.2381
 1188ERGO    R316566  14.004   3.946   7.382 -0.0233  0.0030 -0.2138
 1188ERGO    R416567  14.225   4.041   7.549  0.0376 -0.0837 -0.2438
 1188ERGO    R516568  14.140   3.841   7.548 -0.0406 -0.0512 -0.2333
 1188ERGO    C116569  14.083   3.936   7.914  0.0469 -0.0307 -0.2242
 1188ERGO    C216570  13.895   4.068   8.184  0.0386  0.5046  0.0542
 1189ERGO   ROH16571   4.673   6.998   6.354  0.1502  0.1461  0.0160
 1189ERGO    R116572   4.736   7.050   6.625 -0.0052  0.0458  0.0734
 1189ERGO    R216573   4.543   7.082   6.820 -0.1175 -0.0870 -0.0119
 1189ERGO    R316574   4.682   6.886   6.945 -0.1337 -0.1066 -0.0253
 1189ERGO    R416575   4.557   7.038   7.162  0.0366  0.0045 -0.0061
 1189ERGO    R516576   4.769   6.991   7.142  0.0070 -0.0858 -0.0984
 1189ERGO    C116577   4.697   6.828   7.479  0.1110  0.0393 -0.0152
 1189ERGO    C216578   4.668   6.767   7.773  0.0712 -0.2233  0.0609
 1190ERGO   ROH16579  10.613  17.386   6.172 -0.1342 -0.0042 -0.0570
 1190ERGO    R116580  10.528  17.299   6.428  0.0009 -0.1177 -0.0494
 1190ERGO    R216581  10.699  17.180   6.609  0.1682  0.0705 -0.0790
 1190ERGO    R316582  10.610  17.377   6.774 -0.0402 -0.0385 -0.0572
 1190ERGO    R416583  10.680  17.156   6.953  0.3169  0.0586 -0.0709
 1190ERGO    R516584  10.489  17.261   6.945  0.1705 -0.1945 -0.0106
 1190ERGO    C116585  10.585  17.327   7.309  0.2078 -0.0509 -0.0457
 1190ERGO    C216586  10.595  17.192   7.528 -0.0929  0.2897  0.1751
 1191ERGO   ROH16587   6.323   7.295   6.396  0.4603 -0.0599 -0.0892
 1191ERGO    R116588   6.288   7.183   6.654  0.2882  0.0781 -0.0510
 1191ERGO    R216589   6.478   7.022   6.774  0.1247 -0.0197  0.0809
 1191ERGO    R316590   6.456   7.203   6.976  0.1984  0.0857 -0.0039
 1191ERGO    R416591   6.529   6.951   7.108  0.2203  0.1466  0.1030
 1191ERGO    R516592   6.359   7.079   7.156  0.2432  0.1833  0.0893
 1191ERGO    C116593   6.538   7.079   7.492  0.3451  0.3422  0.0361
 1191ERGO    C216594   6.587   7.022   7.718  0.0397 -0.2154 -0.2268
 1192ERGO   ROH16595  15.322  17.359  10.425  0.0439 -0.0465  0.1071
 1192ERGO    R116596  15.229  17.286  10.167  0.0598 -0.1133  0.1200
 1192ERGO    R216597  15.145  17.472   9.981 -0.1968 -0.1773  0.1677
 1192ERGO    R316598  15.328  17.348   9.823 -0.0956  0.0498  0.1034
 1192ERGO    R416599  15.128  17.452   9.636 -0.2363 -0.1047  0.1653
 1192ERGO    R516600  15.199  17.247   9.649 -0.0231 -0.0381  0.1002
 1192ERGO    C116601  15.291  17.325   9.287 -0.1643  0.1509  0.1036
 1192ERGO    C216602  15.265  17.294   8.925  0.0027  0.1139 -0.2372
 1193ERGO   ROH16603   2.743   5.887   6.665  0.0368  0.3357 -0.0507
 1193ERGO    R116604   2.721   5.823   6.940  0.1167  0.0586 -0.1019
 1193ERGO    R216605   2.934   5.730   7.089  0.2430  0.1690 -0.1840
 1193ERGO    R316606   2.870   5.939   7.251 -0.0066 -0.0393 -0.0104
 1193ERGO    R416607   3.011   5.750   7.425  0.3156  0.0592 -0.1959
 1193ERGO    R516608   2.814   5.837   7.460  0.2111 -0.2552 -0.0661
 1193ERGO    C116609   2.996   5.958   7.773  0.1237 -0.2004 -0.0398
 1193ERGO    C216610   3.022   5.990   8.170 -0.1037  0.2274 -0.1443
 1194ERGO   ROH16611  11.076  14.879   6.462  0.3088 -0.1134  0.1190
 1194ERGO    R116612  11.087  14.773   6.725  0.1416 -0.1844  0.0998
 1194ERGO    R216613  11.197  14.912   6.937  0.1531 -0.3031  0.1794
 1194ERGO    R316614  10.956  14.864   7.052  0.0746 -0.1755  0.0689
 1194ERGO    R416615  11.152  14.785   7.255 -0.0693 -0.3053  0.1476
 1194ERGO    R516616  10.989  14.662   7.177 -0.1019 -0.2025  0.0673
 1194ERGO    C116617  10.900  14.664   7.548 -0.2724 -0.1869  0.0253
 1194ERGO    C216618  11.013  14.546   7.872 -0.1340  0.3032  0.0243
 1195ERGO   ROH16619   6.993  16.123   6.482 -0.3498  0.3250 -0.0689
 1195ERGO    R116620   6.900  16.058   6.741 -0.3723  0.2753 -0.0897
 1195ERGO    R216621   7.062  16.070   6.965 -0.3253 -0.0032 -0.1093
 1195ERGO    R316622   6.864  16.230   7.060 -0.1554  0.1392  0.0115
 1195ERGO    R416623   7.044  16.192   7.287 -0.1070 -0.1045 -0.0564
 1195ERGO    R516624   6.830  16.156   7.284 -0.1457  0.0850 -0.0018
 1195ERGO    C116625   6.848  16.414   7.565  0.1797 -0.0298  0.0878
 1195ERGO    C216626   6.734  16.631   7.794 -0.0340  0.0309 -0.1776
 1196ERGO   ROH16627   0.313  11.205   9.802 -0.2249 -0.0325  0.1086
 1196ERGO    R116628   0.351  11.042   9.573 -0.0970 -0.0551  0.1442
 1196ERGO    R216629   0.141  10.930   9.433 -0.0219 -0.0738  0.0372
 1196ERGO    R316630   0.258  11.054   9.222  0.0933 -0.0891  0.0924
 1196ERGO    R416631   0.081  10.854   9.101  0.0979 -0.0336  0.0067
 1196ERGO    R516632   0.294  10.879   9.062  0.1165 -0.0826  0.0949
 1196ERGO    C116633   0.156  10.926   8.710  0.2759 -0.0244  0.0408
 1196ERGO    C216634   0.182  11.127   8.419  0.2142 -0.1277  0.0113
 1197ERGO   ROH16635  14.916   0.387   6.797 -0.3169  0.1468  0.1211
 1197ERGO    R116636  14.980   0.273   7.048 -0.1654  0.1928  0.1041
 1197ERGO    R216637  15.118   0.412   7.244 -0.2446  0.3076  0.0804
 1197ERGO    R316638  14.904   0.343   7.397 -0.1560  0.1151  0.1213
 1197ERGO    R416639  15.102   0.446   7.587 -0.1742  0.1847  0.0967
 1197ERGO    R516640  15.001   0.253   7.597 -0.0417  0.1148  0.0651
 1197ERGO    C116641  14.892   0.401   7.931 -0.0500 -0.0675  0.1447
 1197ERGO    C216642  15.049   0.589   8.147  0.2297  0.0223 -0.0182
 1198ERGO   ROH16643  17.109   4.554   6.686 -0.0126  0.1765  0.0399
 1198ERGO    R116644  17.009   4.380   6.885  0.1112 -0.0620 -0.1009
 1198ERGO    R216645  17.154   4.165   6.982  0.3796  0.1206 -0.0854
 1198ERGO    R316646  17.104   4.282   7.223  0.0239 -0.0467 -0.0717
 1198ERGO    R416647  17.253   4.037   7.288  0.2721  0.1048 -0.0571
 1198ERGO    R516648  17.060   4.098   7.370  0.1212 -0.1702 -0.1947
 1198ERGO    C116649  17.263   4.072   7.691 -0.1244 -0.0614 -0.0278
 1198ERGO    C216650  17.543   4.098   7.916 -0.0818  0.2386  0.2270
 1199ERGO   ROH16651   8.146  16.615   6.321  0.3386 -0.3213  0.2260
 1199ERGO    R116652   7.937  16.600   6.512  0.1815 -0.2032  0.0662
 1199ERGO    R216653   7.980  16.630   6.783 -0.0182 -0.1771  0.0966
 1199ERGO    R316654   7.788  16.821   6.759  0.0777 -0.1007 -0.0858
 1199ERGO    R416655   7.840  16.802   7.048 -0.3245 -0.2473 -0.0156
 1199ERGO    R516656   7.646  16.786   6.949 -0.1988 -0.1374 -0.2928
 1199ERGO    C116657   7.578  17.082   7.180 -0.4129 -0.2164 -0.2522
 1199ERGO    C216658   7.364  17.176   7.428 -0.0144 -0.0878 -0.1817
 1200ERGO   ROH16659  10.217   1.293  10.371 -0.2685  0.0985 -0.2115
 1200ERGO    R116660  10.280   1.127  10.151  0.0376  0.0692 -0.1071
 1200ERGO    R216661  10.123   1.115   9.924  0.0839 -0.3202 -0.1276
 1200ERGO    R316662  10.357   1.174   9.798  0.0128 -0.0060 -0.1224
 1200ERGO    R416663  10.175   1.088   9.584  0.0709 -0.0468 -0.1534
 1200ERGO    R516664  10.374   1.008   9.626  0.1569  0.1216 -0.2331
 1200ERGO    C116665  10.424   1.127   9.267 -0.0034  0.4073 -0.1637
 1200ERGO    C216666  10.331   1.130   8.909  0.0787 -0.0912  0.1626
 1201ERGO   ROH16667   4.259   0.478   6.515  0.1547 -0.0470  0.0662
 1201ERGO    R116668   4.372   0.603   6.743  0.1964 -0.0493  0.0492
 1201ERGO    R216669   4.254   0.589   6.993  0.1188  0.1363  0.0347
 1201ERGO    R316670   4.498   0.495   7.067  0.0272 -0.0356  0.1180
 1201ERGO    R416671   4.397   0.635   7.304  0.1647  0.2481 -0.0038
 1201ERGO    R516672   4.589   0.668   7.206  0.1935 -0.0163 -0.0230
 1201ERGO    C116673   4.709   0.574   7.555  0.1055  0.1518  0.0520
 1201ERGO    C216674   4.636   0.534   7.875  0.2860 -0.1437 -0.0589
 1202ERGO   ROH16675   9.229  17.378   6.620 -0.0745  0.0925  0.0233
 1202ERGO    R116676   9.276  17.406   6.898 -0.0238  0.0957  0.0123
 1202ERGO    R216677   9.081  17.490   7.075 -0.0499 -0.1148  0.0725
 1202ERGO    R316678   9.146  17.260   7.205  0.2005 -0.0721  0.0326
 1202ERGO    R416679   9.015  17.426   7.408 -0.1469 -0.3047  0.0205
 1202ERGO    R516680   9.211  17.332   7.424 -0.0148 -0.0415  0.0943
 1202ERGO    C116681   9.037  17.173   7.724  0.0316 -0.3752 -0.0472
 1202ERGO    C216682   8.999  16.998   8.088 -0.2865 -0.1339  0.0220
 1203ERGO   ROH16683  11.436   1.638   6.488  0.0286  0.1489  0.0079
 1203ERGO    R116684  11.562   1.621   6.741 -0.0675  0.1849  0.0596
 1203ERGO    R216685  11.472   1.760   6.961 -0.2412  0.1030  0.0455
 1203ERGO    R316686  11.469   1.514   7.076 -0.1496  0.0837  0.0045
 1203ERGO    R416687  11.422   1.700   7.298  0.0405  0.0436  0.0778
 1203ERGO    R516688  11.577   1.546   7.288  0.0288  0.0430 -0.0793
 1203ERGO    C116689  11.391   1.434   7.602  0.2906 -0.0091  0.0580
 1203ERGO    C216690  11.336   1.269   7.880 -0.0017  0.4718  0.2647
 1204ERGO   ROH16691   3.603  10.838   9.672 -0.2963  0.1037 -0.0557
 1204ERGO    R116692   3.771  10.757   9.459 -0.0911  0.1962  0.0679
 1204ERGO    R216693   3.697  10.564   9.276  0.2388 -0.0016  0.1353
 1204ERGO    R316694   3.756  10.758   9.096  0.0783 -0.0241  0.0577
 1204ERGO    R416695   3.679  10.528   8.933  0.2700 -0.1544  0.1490
 1204ERGO    R516696   3.863  10.643   8.916  0.1753 -0.0082  0.1048
 1204ERGO    C116697   3.723  10.689   8.564  0.1375 -0.2644  0.0841
 1204ERGO    C216698   3.649  10.780   8.223 -0.0926  0.1448 -0.0721
 1205ERGO   ROH16699   7.464   1.316   6.768 -0.0162 -0.1370  0.0831
 1205ERGO    R116700   7.552   1.339   7.036  0.0177  0.0076  0.0618
 1205ERGO    R216701   7.675   1.566   7.133 -0.0232  0.0892 -0.0559
 1205ERGO    R316702   7.479   1.553   7.321  0.0024  0.1207 -0.0290
 1205ERGO    R416703   7.710   1.666   7.462  0.0574 -0.0118 -0.0342
 1205ERGO    R516704   7.594   1.492   7.523  0.0003  0.0254 -0.0626
 1205ERGO    C116705   7.546   1.712   7.830  0.1284 -0.0410  0.0037
 1205ERGO    C216706   7.543   1.762   8.197  0.1596  0.1288  0.0781
 1206ERGO   ROH16707   1.201  11.068   9.534  0.1293 -0.0049  0.1419
 1206ERGO    R116708   1.139  10.945   9.286 -0.0412  0.2678  0.0435
 1206ERGO    R216709   1.123  11.087   9.050  0.4109  0.4457  0.1004
 1206ERGO    R316710   1.303  10.902   8.964  0.0304  0.0574  0.1094
 1206ERGO    R416711   1.192  11.016   8.718  0.3211  0.3161  0.1098
 1206ERGO    R516712   1.202  10.805   8.771 -0.1438  0.2897  0.0884
 1206ERGO    C116713   1.401  10.800   8.446 -0.0884 -0.1236  0.1238
 1206ERGO    C216714   1.522  10.877   8.108 -0.0918 -0.1357  0.0450
 1207ERGO   ROH16715   9.772   6.398   6.631  0.1697  0.1577 -0.0567
 1207ERGO    R116716   9.944   6.405   6.856  0.1929  0.3923 -0.0788
 1207ERGO    R216717   9.932   6.605   7.046 -0.2847  0.2150  0.0984
 1207ERGO    R316718   9.906   6.396   7.218  0.2567 -0.0168 -0.0781
 1207ERGO    R416719  10.037   6.605   7.375 -0.5320  0.3128  0.1795
 1207ERGO    R516720  10.106   6.401   7.349  0.1591  0.5384  0.0735
 1207ERGO    C116721  10.073   6.410   7.729 -0.1676  0.1521  0.0611
 1207ERGO    C216722   9.966   6.231   8.055 -0.1439 -0.1969  0.3328
 1208ERGO   ROH16723  12.136  16.689  10.140  0.2102 -0.0585  0.0312
 1208ERGO    R116724  12.193  16.668   9.864  0.1459 -0.4234  0.0405
 1208ERGO    R216725  12.150  16.437   9.720 -0.6922 -0.3791  0.1737
 1208ERGO    R316726  12.006  16.602   9.559 -0.1154  0.0714  0.0828
 1208ERGO    R416727  12.131  16.410   9.376 -0.6805 -0.4123  0.1750
 1208ERGO    R516728  12.141  16.627   9.363  0.0422 -0.4268  0.1134
 1208ERGO    C116729  11.984  16.549   9.025 -0.1323 -0.0087  0.0903
 1208ERGO    C216730  12.109  16.581   8.611  0.1316  0.1189 -0.1352
 1209ERGO   ROH16731   9.823  16.518   6.515  0.1788 -0.0618  0.0010
 1209ERGO    R116732   9.961  16.547   6.761  0.0940 -0.0696  0.0499
 1209ERGO    R216733   9.857  16.688   6.974  0.0338 -0.0496  0.0078
 1209ERGO    R316734   9.903  16.457   7.109 -0.0423 -0.0507  0.0324
 1209ERGO    R416735   9.798  16.642   7.311 -0.0704 -0.0249 -0.0064
 1209ERGO    R516736   9.984  16.528   7.322 -0.0922 -0.0544  0.0524
 1209ERGO    C116737   9.808  16.397   7.634 -0.2025 -0.0117  0.0084
 1209ERGO    C216738   9.823  16.227   7.950 -0.2016 -0.0763  0.1116
 1210ERGO   ROH16739   0.375   8.633   6.174  0.2211 -0.2108 -0.0014
 1210ERGO    R116740   0.461   8.822   6.367  0.2472 -0.1815 -0.0406
 1210ERGO    R216741   0.294   8.920   6.564  0.1786  0.0897 -0.2232
 1210ERGO    R316742   0.492   8.835   6.729 -0.0291 -0.0100 -0.0206
 1210ERGO    R416743   0.308   8.981   6.904 -0.0134  0.2834 -0.2483
 1210ERGO    R516744   0.523   9.015   6.884  0.0362  0.0543 -0.1104
 1210ERGO    C116745   0.503   8.937   7.256 -0.3201  0.3028 -0.0727
 1210ERGO    C216746   0.552   8.927   7.587 -0.1850 -0.0958 -0.0371
 1211ERGO   ROH16747   3.383  13.248   9.845 -0.2887  0.0389 -0.0084
 1211ERGO    R116748   3.330  13.407   9.616 -0.1243  0.0465 -0.0431
 1211ERGO    R216749   3.526  13.471   9.431 -0.0233 -0.0778  0.0137
 1211ERGO    R316750   3.348  13.365   9.255 -0.0236 -0.0004 -0.0321
 1211ERGO    R416751   3.528  13.527   9.090 -0.1031  0.1646  0.0515
 1211ERGO    R516752   3.310  13.540   9.096 -0.1020  0.1002  0.0987
 1211ERGO    C116753   3.362  13.460   8.726 -0.1498  0.3784  0.0306
 1211ERGO    C216754   3.374  13.528   8.368  0.0621  0.0201  0.4588
 1212ERGO   ROH16755  15.380  14.446   6.537 -0.1092 -0.0015  0.0662
 1212ERGO    R116756  15.386  14.245   6.736 -0.2783  0.0166  0.0940
 1212ERGO    R216757  15.618  14.177   6.871 -0.2350 -0.4297 -0.1692
 1212ERGO    R316758  15.466  14.227   7.091  0.1177 -0.0653  0.0044
 1212ERGO    R416759  15.562  13.953   7.128 -0.3471 -0.2297 -0.0175
 1212ERGO    R516760  15.355  14.019   7.135 -0.2194  0.1552  0.2162
 1212ERGO    C116761  15.387  13.869   7.484 -0.0812  0.2287  0.2338
 1212ERGO    C216762  15.364  13.873   7.718 -0.0325  0.2018 -0.0119
 1213ERGO   ROH16763   2.234   8.710  10.139  0.1150  0.0371 -0.0974
 1213ERGO    R116764   2.331   8.646   9.881  0.0791  0.2127 -0.1568
 1213ERGO    R216765   2.216   8.450   9.723  0.3128  0.0196 -0.1010
 1213ERGO    R316766   2.202   8.650   9.541 -0.1310  0.0153 -0.0800
 1213ERGO    R416767   2.231   8.406   9.381  0.4190  0.1018 -0.1075
 1213ERGO    R516768   2.355   8.585   9.368  0.0214  0.3821 -0.0851
 1213ERGO    C116769   2.225   8.569   9.010  0.0643  0.1458 -0.0917
 1213ERGO    C216770   2.238   8.475   8.755  0.2414  0.1247  0.0322
 1214ERGO   ROH16771   9.614  10.001   6.249  0.0976  0.1397 -0.0670
 1214ERGO    R116772   9.792   9.883   6.434  0.0853  0.2202 -0.0031
 1214ERGO    R216773   9.798   9.955   6.701 -0.1126  0.1531  0.0229
 1214ERGO    R316774   9.764   9.688   6.740  0.0609  0.1157 -0.0726
 1214ERGO    R416775   9.944   9.772   6.956 -0.1156  0.1787  0.0432
 1214ERGO    R516776   9.979   9.610   6.814  0.0759  0.2466  0.0160
 1214ERGO    C116777   9.996   9.415   7.140  0.0456  0.1585 -0.0347
 1214ERGO    C216778  10.099   9.495   7.461  0.1835 -0.2236 -0.1412
 1215ERGO   ROH16779  11.762   6.855   6.579  0.0386  0.1799  0.0671
 1215ERGO    R116780  11.915   6.805   6.812  0.1154  0.2037  0.0227
 1215ERGO    R216781  11.856   6.919   7.057  0.0296  0.0174  0.0941
 1215ERGO    R316782  11.856   6.661   7.141  0.2898 -0.0319 -0.0472
 1215ERGO    R416783  11.864   6.820   7.388 -0.2830 -0.1489  0.0556
 1215ERGO    R516784  12.002   6.660   7.331  0.0313  0.0818  0.1554
 1215ERGO    C116785  11.869   6.519   7.659 -0.2206 -0.2920 -0.0996
 1215ERGO    C216786  12.000   6.483   7.974 -0.3176  0.1662  0.0459
 1216ERGO   ROH16787   2.254  13.224   9.733  0.0659 -0.1727  0.0628
 1216ERGO    R116788   2.376  13.225   9.478  0.0838 -0.2333  0.0705
 1216ERGO    R216789   2.386  13.001   9.317 -0.1152 -0.2141  0.0236
 1216ERGO    R316790   2.270  13.166   9.134  0.0467 -0.0654  0.0530
 1216ERGO    R416791   2.399  12.957   8.974 -0.0683 -0.0951  0.0098
 1216ERGO    R516792   2.426  13.173   8.953  0.0911 -0.1091  0.0927
 1216ERGO    C116793   2.298  13.087   8.604  0.1111  0.1137  0.0293
 1216ERGO    C216794   2.105  13.158   8.338 -0.2062 -0.1234  0.1364
 1217ERGO   ROH16795  17.326  12.629   5.960  0.3473 -0.0709 -0.0213
 1217ERGO    R116796  17.295  12.805   6.179  0.2404 -0.0581 -0.0430
 1217ERGO    R216797  17.252  12.716   6.438 -0.0456 -0.0453 -0.0682
 1217ERGO    R316798  17.468  12.871   6.492 -0.0052 -0.1680  0.1146
 1217ERGO    R416799  17.292  12.905   6.724 -0.3147  0.1934 -0.1862
 1217ERGO    R516800  17.377  13.064   6.601 -0.0072  0.0049 -0.2027
 1217ERGO    C116801  17.518  13.161   6.942 -0.4337  0.2170 -0.0833
 1217ERGO    C216802  17.639  13.154   7.252  0.1060  0.0380 -0.0484
 1218ERGO   ROH16803   9.104  17.164   9.753 -0.0287 -0.1904 -0.0722
 1218ERGO    R116804   9.223  17.162   9.496 -0.0119 -0.0379 -0.0666
 1218ERGO    R216805   9.153  16.977   9.302  0.1387 -0.0445 -0.1135
 1218ERGO    R316806   9.109  17.200   9.153 -0.0225 -0.0408 -0.0637
 1218ERGO    R416807   9.187  16.994   8.959  0.2256  0.0828 -0.0997
 1218ERGO    R516808   9.277  17.191   8.982  0.0384  0.1617 -0.0174
 1218ERGO    C116809   9.166  17.214   8.619  0.1249  0.1604 -0.0449
 1218ERGO    C216810   9.245  17.210   8.416  0.5351 -0.3053 -0.2376
 1219ERGO   ROH16811   3.346  13.382   6.015  0.0748  0.0989  0.1008
 1219ERGO    R116812   3.251  13.400   6.281  0.0688  0.0620  0.1002
 1219ERGO    R216813   3.193  13.176   6.434  0.0348  0.0447  0.0540
 1219ERGO    R316814   3.365  13.291   6.609  0.0417 -0.0128  0.0866
 1219ERGO    R416815   3.166  13.159   6.778 -0.0013 -0.0113  0.0494
 1219ERGO    R516816   3.226  13.368   6.788  0.0347 -0.0186  0.0882
 1219ERGO    C116817   3.313  13.258   7.143 -0.0158 -0.0978  0.0772
 1219ERGO    C216818   3.395  13.246   7.386  0.0455  0.1004 -0.1181
 1220ERGO   ROH16819  10.759  14.544  10.016 -0.1541 -0.0263 -0.1611
 1220ERGO    R116820  10.947  14.542   9.805 -0.0567  0.0707 -0.0764
 1220ERGO    R216821  11.066  14.311   9.713  0.0284  0.1197 -0.0900
 1220ERGO    R316822  10.970  14.395   9.473  0.1223  0.1716 -0.1099
 1220ERGO    R416823  11.085  14.130   9.418  0.0458  0.1368 -0.0996
 1220ERGO    R516824  11.131  14.316   9.314  0.1383  0.1291 -0.0726
 1220ERGO    C116825  11.007  14.105   9.022  0.1441  0.1954 -0.1239
 1220ERGO    C216826  11.051  14.012   8.611  0.0582  0.1058  0.1975
 1221ERGO   ROH16827   5.554  15.835   6.903 -0.0162 -0.0792 -0.2247
 1221ERGO    R116828   5.641  15.675   7.120 -0.0264  0.0272 -0.1432
 1221ERGO    R216829   5.528  15.692   7.371 -0.1959 -0.0161 -0.2213
 1221ERGO    R316830   5.495  15.424   7.338  0.0353 -0.0518 -0.1897
 1221ERGO    R416831   5.502  15.463   7.629 -0.6328  0.0824 -0.1686
 1221ERGO    R516832   5.626  15.326   7.513 -0.2841  0.1016  0.1543
 1221ERGO    C116833   5.456  15.079   7.749 -0.6701  0.1063 -0.1083
 1221ERGO    C216834   5.249  14.827   7.894  0.1467 -0.0168  0.0579
 1222ERGO   ROH16835  16.685  16.245   6.369 -0.3069  0.2838  0.0114
 1222ERGO    R116836  16.881  16.337   6.552 -0.1827  0.2119 -0.0846
 1222ERGO    R216837  16.867  16.585   6.673 -0.1916  0.0979  0.1451
 1222ERGO    R316838  16.888  16.439   6.902  0.0884 -0.0918  0.0055
 1222ERGO    R416839  16.982  16.708   6.974 -0.2755 -0.0074  0.2215
 1222ERGO    R516840  17.089  16.520   7.005  0.0110  0.1088  0.0124
 1222ERGO    C116841  17.068  16.644   7.365 -0.0616 -0.2467  0.1350
 1222ERGO    C216842  17.128  16.759   7.656  0.0102  0.2323 -0.3758
 1223ERGO   ROH16843   2.530  12.679   6.028  0.0633 -0.1326  0.0512
 1223ERGO    R116844   2.455  12.753   6.290  0.1116  0.0128  0.0261
 1223ERGO    R216845   2.277  12.605   6.442 -0.0348  0.2107  0.0639
 1223ERGO    R316846   2.479  12.609   6.624 -0.0363  0.0847  0.0667
 1223ERGO    R416847   2.239  12.550   6.781 -0.0309  0.0407  0.0363
 1223ERGO    R516848   2.382  12.710   6.818 -0.0119 -0.0060  0.1195
 1223ERGO    C116849   2.406  12.521   7.149 -0.0301 -0.1764  0.0230
 1223ERGO    C216850   2.272  12.368   7.510 -0.2008 -0.1109 -0.1683
 1224ERGO   ROH16851  11.384   7.603   8.356 -0.2395 -0.0785 -0.0974
 1224ERGO    R116852  11.199   7.520   8.553 -0.1895 -0.0742 -0.0493
 1224ERGO    R216853  11.251   7.312   8.729 -0.1856 -0.1381 -0.1245
 1224ERGO    R316854  11.192   7.500   8.917 -0.0563 -0.1685 -0.0520
 1224ERGO    R416855  11.243   7.256   9.070 -0.1802 -0.2429 -0.1403
 1224ERGO    R516856  11.066   7.382   9.082 -0.1042 -0.1476 -0.0771
 1224ERGO    C116857  11.183   7.400   9.444 -0.0557 -0.3325 -0.0814
 1224ERGO    C216858  11.173   7.343   9.812  0.0333  0.1501 -0.2959
 1225ERGO   ROH16859   1.958  10.562   9.837 -0.1553 -0.4512  0.1284
 1225ERGO    R116860   2.063  10.410   9.622  0.0509 -0.1787  0.0324
 1225ERGO    R216861   1.959  10.421   9.367  0.1066 -0.0814  0.0203
 1225ERGO    R316862   2.215  10.480   9.299  0.0679  0.2240  0.1191
 1225ERGO    R416863   2.077  10.444   9.043  0.2647 -0.3040  0.0590
 1225ERGO    R516864   2.259  10.343   9.108  0.3898  0.0414  0.3067
 1225ERGO    C116865   2.387  10.513   8.791  0.3205 -0.1469  0.1744
 1225ERGO    C216866   2.396  10.788   8.529  0.2810 -0.0305  0.2799
 1226ERGO   ROH16867   1.355  12.721   5.981 -0.0761  0.2973  0.1122
 1226ERGO    R116868   1.461  12.719   6.243  0.0298 -0.1167  0.0727
 1226ERGO    R216869   1.382  12.900   6.437  0.5870  0.0153  0.1920
 1226ERGO    R316870   1.332  12.674   6.581  0.0325  0.0650  0.0989
 1226ERGO    R416871   1.348  12.888   6.781  0.4201 -0.0288  0.1752
 1226ERGO    R516872   1.460  12.701   6.781  0.0170 -0.2844  0.1620
 1226ERGO    C116873   1.280  12.669   7.115 -0.1976 -0.0079  0.0779
 1226ERGO    C216874   1.059  12.619   7.241  0.5998 -0.0072 -0.0738
 1227ERGO   ROH16875   5.073   3.389   6.537 -0.0521 -0.0200 -0.0246
 1227ERGO    R116876   5.156   3.375   6.807  0.1113 -0.0206 -0.0733
 1227ERGO    R216877   5.241   3.597   6.948  0.1079 -0.0028 -0.0952
 1227ERGO    R316878   5.050   3.519   7.124  0.2389 -0.0996  0.0055
 1227ERGO    R416879   5.281   3.588   7.291  0.2025  0.2766 -0.0971
 1227ERGO    R516880   5.170   3.400   7.294  0.4148  0.1521  0.0597
 1227ERGO    C116881   5.124   3.510   7.656  0.3805  0.3485 -0.0037
 1227ERGO    C216882   5.046   3.495   7.961 -0.0285  0.1551 -0.0797
 1228ERGO   ROH16883  15.672  12.836   6.221  0.1604 -0.0260 -0.0650
 1228ERGO    R116884  15.804  12.810   6.470  0.2198  0.0762 -0.0848
 1228ERGO    R216885  15.954  13.014   6.581 -0.0689  0.2620 -0.0221
 1228ERGO    R316886  15.790  12.974   6.794  0.0006 -0.0585 -0.0236
 1228ERGO    R416887  16.039  13.076   6.910 -0.2001  0.4644 -0.0251
 1228ERGO    R516888  15.935  12.893   6.966  0.1685  0.2485 -0.0136
 1228ERGO    C116889  15.935  13.075   7.302 -0.2111  0.2814 -0.0283
 1228ERGO    C216890  15.870  13.099   7.598  0.1580 -0.1028  0.0025
 1229ERGO   ROH16891  13.566   8.236   6.786  0.0568  0.0103  0.0399
 1229ERGO    R116892  13.636   8.155   7.048  0.2151  0.0313  0.0056
 1229ERGO    R216893  13.745   8.328   7.233  0.0472  0.1228  0.0213
 1229ERGO    R316894  13.537   8.243   7.387  0.1816 -0.1672  0.0490
 1229ERGO    R416895  13.718   8.377   7.574  0.0003  0.1386  0.0151
 1229ERGO    R516896  13.639   8.175   7.592  0.3033  0.0170  0.0531
 1229ERGO    C116897  13.508   8.326   7.917  0.0989 -0.1245  0.0376
 1229ERGO    C216898  13.590   8.314   8.270  0.1268 -0.5417 -0.1253
 1230ERGO   ROH16899   3.035  12.106   9.678 -0.0515  0.0646 -0.0460
 1230ERGO    R116900   2.990  12.047   9.405 -0.1963  0.0700 -0.0231
 1230ERGO    R216901   2.775  12.149   9.264 -0.1008  0.3186  0.0159
 1230ERGO    R316902   2.969  12.234   9.093 -0.0341  0.0387 -0.0556
 1230ERGO    R416903   2.745  12.159   8.919 -0.2418  0.4029  0.0293
 1230ERGO    R516904   2.950  12.088   8.904 -0.3481  0.0800 -0.0676
 1230ERGO    C116905   2.909  12.245   8.559 -0.2612  0.1890 -0.0299
 1230ERGO    C216906   2.834  12.266   8.256  0.0932  0.1323 -0.1340
 1231ERGO   ROH16907  16.024   1.164   6.850  0.1884  0.0983 -0.0113
 1231ERGO    R116908  16.095   1.198   7.122  0.1906  0.1293 -0.0160
 1231ERGO    R216909  16.170   1.443   7.226  0.0492  0.1680 -0.0123
 1231ERGO    R316910  15.972   1.391   7.405  0.0984  0.0407  0.0061
 1231ERGO    R416911  16.171   1.542   7.557  0.0710  0.0907  0.0107
 1231ERGO    R516912  16.087   1.348   7.610  0.1573  0.0370 -0.0228
 1231ERGO    C116913  15.986   1.550   7.918  0.1297 -0.0738  0.0414
 1231ERGO    C216914  15.801   1.698   8.199 -0.1168 -0.0356 -0.1131
 1232ERGO   ROH16915  15.461   8.442   6.343  0.0254  0.0069 -0.0848
 1232ERGO    R116916  15.407   8.558   6.595  0.0809 -0.3297  0.0894
 1232ERGO    R216917  15.261   8.791   6.623  0.6116 -0.0048  0.3796
 1232ERGO    R316918  15.111   8.638   6.791  0.0816  0.0173 -0.0483
 1232ERGO    R416919  15.009   8.911   6.827  0.6835  0.1966  0.3510
 1232ERGO    R516920  15.078   8.777   6.984  0.2178 -0.2671  0.1789
 1232ERGO    C116921  14.721   8.838   7.103  0.2279  0.3346 -0.0673
 1232ERGO    C216922  14.596   8.917   7.422  0.0331 -0.0828  0.2486
 1233ERGO   ROH16923   5.915   8.432   6.550 -0.1197  0.3071 -0.1644
 1233ERGO    R116924   5.755   8.426   6.784 -0.1388  0.2479 -0.1794
 1233ERGO    R216925   5.857   8.477   7.035 -0.1171 -0.0152 -0.1344
 1233ERGO    R316926   5.657   8.661   7.043  0.0147  0.1256 -0.0068
 1233ERGO    R416927   5.744   8.633   7.322  0.0424 -0.0872 -0.0308
 1233ERGO    R516928   5.540   8.613   7.247  0.0126  0.0985 -0.0121
 1233ERGO    C116929   5.491   8.898   7.497  0.2589  0.0032  0.1493
 1233ERGO    C216930   5.505   8.942   7.806  0.2187  0.0025 -0.2090
 1234ERGO   ROH16931  10.910  14.996   9.937  0.2024  0.2403  0.1976
 1234ERGO    R116932  11.081  15.008   9.711  0.0004 -0.0655  0.0206
 1234ERGO    R216933  11.028  14.872   9.476 -0.5060  0.0547  0.0520
 1234ERGO    R316934  11.056  15.119   9.366 -0.1471  0.0223  0.0599
 1234ERGO    R416935  11.139  14.934   9.155 -0.4818 -0.0922  0.0316
 1234ERGO    R516936  11.253  15.102   9.232 -0.2017 -0.2728  0.0141
 1234ERGO    C116937  11.230  15.201   8.864 -0.1309 -0.2081  0.0271
 1234ERGO    C216938  11.379  15.161   8.514 -0.0173 -0.0087  0.1755
 1235ERGO   ROH16939   1.219   7.134   6.466 -0.0884  0.0958 -0.0327
 1235ERGO    R116940   1.031   7.215   6.662  0.0157  0.0461  0.0877
 1235ERGO    R216941   0.814   7.060   6.733 -0.0298  0.0959  0.0527
 1235ERGO    R316942   0.915   7.090   6.984  0.0694 -0.1238  0.0425
 1235ERGO    R416943   0.652   6.967   7.024  0.1214 -0.2398  0.0353
 1235ERGO    R516944   0.726   7.150   7.117  0.1085 -0.3090  0.1860
 1235ERGO    C116945   0.653   6.942   7.429  0.3025 -0.6416  0.0156
 1235ERGO    C216946   0.584   6.963   7.734  0.2010  0.0224 -0.0103
 1236ERGO   ROH16947  15.510   6.128   6.883  0.0204  0.4128  0.0392
 1236ERGO    R116948  15.681   6.062   7.099  0.1576  0.2658 -0.1120
 1236ERGO    R216949  15.872   6.236   7.196 -0.0409  0.3544  0.1368
 1236ERGO    R316950  15.748   6.190   7.433  0.0687 -0.2100  0.0940
 1236ERGO    R416951  16.020   6.277   7.505 -0.1842  0.5497  0.1805
 1236ERGO    R516952  15.919   6.095   7.571  0.3512  0.1861  0.0273
 1236ERGO    C116953  15.989   6.259   7.909 -0.1648  0.1334  0.1657
 1236ERGO    C216954  16.112   6.282   8.229 -0.0271  0.0326 -0.0328
 1237ERGO   ROH16955   1.167   2.471   6.766 -0.1395  0.0165 -0.1310
 1237ERGO    R116956   1.115   2.557   7.031 -0.1447  0.0135 -0.1308
 1237ERGO    R216957   1.041   2.383   7.232 -0.1168  0.0056 -0.1252
 1237ERGO    R316958   1.252   2.494   7.362 -0.1275  0.0361 -0.1341
 1237ERGO    R416959   1.088   2.377   7.575  0.0246 -0.1994 -0.1469
 1237ERGO    R516960   1.159   2.583   7.564 -0.0958 -0.1528 -0.0358
 1237ERGO    C116961   1.315   2.478   7.895  0.0969 -0.2901 -0.1680
 1237ERGO    C216962   1.412   2.275   8.215  0.1122  0.0975 -0.0484
 1238ERGO   ROH16963   3.690   9.513   6.506  0.1773  0.2253 -0.0465
 1238ERGO    R116964   3.711   9.630   6.764  0.0874  0.1517 -0.0056
 1238ERGO    R216965   3.507   9.616   6.950  0.0718 -0.0117 -0.0353
 1238ERGO    R316966   3.702   9.513   7.108  0.1038  0.0352 -0.0437
 1238ERGO    R416967   3.524   9.655   7.293  0.0817  0.0089 -0.0381
 1238ERGO    R516968   3.740   9.681   7.274  0.0776  0.0532 -0.0533
 1238ERGO    C116969   3.718   9.580   7.641  0.1175  0.0648 -0.0475
 1238ERGO    C216970   3.655   9.576   7.891 -0.0712 -0.0559  0.1701
 1239ERGO   ROH16971   7.742   2.403   6.571 -0.0043  0.0186 -0.1290
 1239ERGO    R116972   7.742   2.545   6.816 -0.0070 -0.0669 -0.0785
 1239ERGO    R216973   7.524   2.690   6.904  0.0288 -0.0058 -0.0825
 1239ERGO    R316974   7.553   2.536   7.127 -0.0902 -0.0989 -0.1306
 1239ERGO    R416975   7.364   2.746   7.205  0.2223  0.1374 -0.0047
 1239ERGO    R516976   7.548   2.693   7.308  0.1920 -0.1360 -0.0900
 1239ERGO    C116977   7.298   2.635   7.589  0.2233  0.1334 -0.0046
 1239ERGO    C216978   7.160   2.707   7.776 -0.2864  0.3338 -0.1018
 1240ERGO   ROH16979   1.013  12.947   9.752  0.1127  0.0085  0.0173
 1240ERGO    R116980   1.020  13.109   9.520 -0.0373 -0.0206 -0.0103
 1240ERGO    R216981   1.239  13.120   9.353 -0.0158  0.2036  0.0191
 1240ERGO    R316982   1.056  13.057   9.162  0.0809 -0.0455  0.0067
 1240ERGO    R416983   1.287  13.156   9.012 -0.0715  0.3257  0.0249
 1240ERGO    R516984   1.082  13.227   8.996 -0.1771  0.0170  0.0329
 1240ERGO    C116985   1.142  13.118   8.635 -0.0131  0.1630  0.0166
 1240ERGO    C216986   1.103  13.206   8.212 -0.0693 -0.0431  0.0558
 1241ERGO   ROH16987  17.340   9.074   6.218  0.2135 -0.0656 -0.1314
 1241ERGO    R116988  17.316   9.214   6.463 -0.0428 -0.0288 -0.1751
 1241ERGO    R216989  17.119   9.156   6.649 -0.0413 -0.2194 -0.2310
 1241ERGO    R316990  17.331   9.131   6.817 -0.0673  0.0810 -0.1482
 1241ERGO    R416991  17.097   9.137   6.993 -0.1534 -0.2994 -0.2418
 1241ERGO    R516992  17.272   9.266   7.007 -0.3502 -0.0302 -0.1522
 1241ERGO    C116993  17.283   9.104   7.352 -0.2431 -0.0638 -0.1703
 1241ERGO    C216994  17.177   9.016   7.678 -0.0739 -0.1231  0.0275
 1242ERGO   ROH16995   2.622   4.837   6.782 -0.1513  0.1685  0.0222
 1242ERGO    R116996   2.642   4.831   7.064 -0.0910 -0.0684  0.0152
 1242ERGO    R216997   2.688   4.598   7.205  0.2067 -0.1493 -0.2073
 1242ERGO    R316998   2.895   4.741   7.310  0.0639 -0.0031 -0.1184
 1242ERGO    R416999   2.836   4.537   7.512  0.2142 -0.1363 -0.2078
 1242ERGO    R517000   2.847   4.752   7.544  0.0159 -0.1372 -0.1209
 1242ERGO    C117001   3.117   4.635   7.788  0.0844  0.0085 -0.1246
 1242ERGO    C217002   3.356   4.594   8.075  0.1050  0.0310  0.0110
 1243ERGO   ROH17003  10.101   3.944   7.045 -0.1411  0.2273  0.0910
 1243ERGO    R117004  10.227   4.047   7.276 -0.0574  0.1751  0.0705
 1243ERGO    R217005  10.092   4.090   7.513  0.0090  0.1911  0.1127
 1243ERGO    R317006  10.289   3.934   7.617 -0.0072  0.1271  0.0438
 1243ERGO    R417007  10.179   4.077   7.848  0.1050  0.1323  0.0847
 1243ERGO    R517008  10.388   4.069   7.788  0.0809  0.0777  0.0267
 1243ERGO    C117009  10.414   3.923   8.139  0.1456  0.0379  0.0038
 1243ERGO    C217010  10.423   3.977   8.462  0.0527 -0.2219 -0.0607
 1244ERGO   ROH17011   0.637  10.652   6.011 -0.2692  0.0454  0.0522
 1244ERGO    R117012   0.814  10.742   6.214 -0.1317 -0.0383 -0.0286
 1244ERGO    R217013   0.768  10.971   6.360  0.1615  0.1120 -0.1607
 1244ERGO    R317014   0.796  10.803   6.572 -0.0101  0.2046 -0.0625
 1244ERGO    R417015   0.926  11.052   6.657  0.0729  0.1830 -0.1327
 1244ERGO    R517016   1.014  10.853   6.659 -0.0241  0.1416  0.0063
 1244ERGO    C117017   1.044  10.941   7.029 -0.1399  0.3112 -0.0242
 1244ERGO    C217018   0.968  11.030   7.345 -0.0579  0.1421 -0.0409
 1245ERGO   ROH17019   8.341   7.981   6.877  0.0204 -0.0748 -0.0299
 1245ERGO    R117020   8.253   7.908   7.136  0.0522 -0.1734 -0.0461
 1245ERGO    R217021   8.420   7.788   7.321  0.1330 -0.0568 -0.0400
 1245ERGO    R317022   8.340   7.994   7.479 -0.0539 -0.1358 -0.0286
 1245ERGO    R417023   8.509   7.829   7.653  0.0077 -0.0496 -0.0072
 1245ERGO    R517024   8.305   7.895   7.694 -0.0496 -0.1945 -0.0556
 1245ERGO    C117025   8.486   8.046   7.994 -0.2405 -0.1197  0.0227
 1245ERGO    C217026   8.715   8.231   8.176 -0.1390 -0.0193  0.1703
 1246ERGO   ROH17027   9.946  16.015  10.158  0.0031 -0.0273  0.0661
 1246ERGO    R117028  10.009  15.850   9.936  0.0395 -0.0885  0.1207
 1246ERGO    R217029   9.815  15.737   9.775  0.0658 -0.0799  0.0794
 1246ERGO    R317030   9.953  15.860   9.576  0.1587 -0.1510  0.1006
 1246ERGO    R417031   9.787  15.662   9.439 -0.0047  0.0111  0.0651
 1246ERGO    R517032  10.003  15.684   9.421  0.0129 -0.1590  0.0635
 1246ERGO    C117033   9.901  15.733   9.056  0.0416 -0.0028  0.0765
 1246ERGO    C217034   9.983  15.796   8.677  0.0128  0.2848 -0.0064
 1247ERGO   ROH17035   9.523   0.331   9.974 -0.2371 -0.3724  0.0568
 1247ERGO    R117036   9.660   0.385   9.732 -0.0749 -0.1699  0.1907
 1247ERGO    R217037   9.778   0.187   9.580  0.1020 -0.0328  0.1467
 1247ERGO    R317038   9.625   0.293   9.382  0.2142  0.0455  0.1009
 1247ERGO    R417039   9.831   0.138   9.242  0.0488 -0.2438  0.1674
 1247ERGO    R517040   9.782   0.348   9.209  0.2755 -0.2014  0.0741
 1247ERGO    C117041   9.719   0.209   8.859  0.1233 -0.2932  0.1365
 1247ERGO    C217042   9.740   0.333   8.538 -0.2642 -0.4606 -0.1071
 1248ERGO   ROH17043   9.398   7.197   6.288 -0.0915  0.0625 -0.1156
 1248ERGO    R117044   9.371   7.167   6.568  0.0226  0.1155 -0.0980
 1248ERGO    R217045   9.187   7.311   6.717  0.0601  0.1229 -0.0526
 1248ERGO    R317046   9.110   7.063   6.799  0.1255  0.1277  0.0235
 1248ERGO    R417047   8.965   7.247   6.974  0.0184  0.1373 -0.0855
 1248ERGO    R517048   9.091   7.082   7.036  0.0580  0.2083  0.0093
 1248ERGO    C117049   8.763   6.979   7.200  0.0556  0.1503 -0.0331
 1248ERGO    C217050   8.547   6.772   7.376 -0.0200 -0.3370  0.2449
 1249ERGO   ROH17051  15.723   5.120   6.729  0.1337 -0.0191  0.0195
 1249ERGO    R117052  15.828   5.216   6.973 -0.1319  0.0183  0.1230
 1249ERGO    R217053  15.730   5.137   7.219 -0.1487 -0.2459  0.0378
 1249ERGO    R317054  15.990   5.074   7.266 -0.0753  0.1076  0.1347
 1249ERGO    R417055  15.872   5.108   7.533 -0.2399 -0.1256  0.0906
 1249ERGO    R517056  16.050   5.207   7.456 -0.3442  0.1455  0.1949
 1249ERGO    C117057  16.199   5.031   7.760 -0.2241  0.2764  0.2122
 1249ERGO    C217058  16.159   4.948   8.181 -0.2875 -0.2057 -0.1531
 1250ERGO   ROH17059   4.249   1.905   6.745  0.0689 -0.0815 -0.1207
 1250ERGO    R117060   4.165   1.796   6.993  0.0531 -0.1115 -0.1386
 1250ERGO    R217061   4.342   1.685   7.174  0.0592 -0.0136 -0.0811
 1250ERGO    R317062   4.227   1.862   7.345 -0.0799 -0.0610 -0.1244
 1250ERGO    R417063   4.333   1.650   7.518 -0.1637 -0.0744 -0.0916
 1250ERGO    R517064   4.129   1.725   7.515 -0.1727 -0.1042 -0.2133
 1250ERGO    C117065   4.221   1.796   7.879 -0.4240 -0.1542 -0.1386
 1250ERGO    C217066   4.120   1.836   8.196  0.0109  0.2366  0.4127
 1251ERGO   ROH17067   7.827  13.941   6.325  0.0933 -0.1876  0.0635
 1251ERGO    R117068   7.957  13.839   6.554  0.0795 -0.1453  0.0901
 1251ERGO    R217069   8.044  14.001   6.760 -0.0103 -0.1168  0.1049
 1251ERGO    R317070   7.895  13.833   6.913  0.0117 -0.1604  0.0786
 1251ERGO    R417071   8.081  13.958   7.101 -0.1569  0.0133  0.1384
 1251ERGO    R517072   8.049  13.745   7.073 -0.0135 -0.0175  0.1862
 1251ERGO    C117073   7.963  13.775   7.443 -0.2216  0.0480  0.1334
 1251ERGO    C217074   7.927  13.862   7.751  0.0678  0.0866 -0.0239
 1252ERGO   ROH17075  11.647   4.918   6.549  0.0174 -0.1255  0.1202
 1252ERGO    R117076  11.504   4.857   6.785  0.0186 -0.1583  0.1134
 1252ERGO    R217077  11.584   4.659   6.961  0.1222 -0.0623  0.1809
 1252ERGO    R317078  11.572   4.861   7.143 -0.0390 -0.0195  0.1225
 1252ERGO    R417079  11.480   4.625   7.289  0.0111 -0.0158  0.1500
 1252ERGO    R517080  11.375   4.814   7.271 -0.0654 -0.0701  0.0591
 1252ERGO    C117081  11.407   4.794   7.650 -0.2049  0.0513  0.0773
 1252ERGO    C217082  11.333   4.817   8.003  0.3381 -0.0266 -0.1454
 1253ERGO   ROH17083  16.851   5.720   6.790 -0.0300  0.0430 -0.0211
 1253ERGO    R117084  16.920   5.823   7.044 -0.0689  0.0407 -0.0105
 1253ERGO    R217085  16.798   5.739   7.278  0.0123 -0.0819 -0.0156
 1253ERGO    R317086  17.054   5.692   7.356  0.0531  0.0706 -0.0485
 1253ERGO    R417087  16.902   5.707   7.606  0.0031 -0.3750 -0.0379
 1253ERGO    R517088  17.080   5.821   7.556 -0.0972 -0.1373  0.1136
 1253ERGO    C117089  17.202   5.643   7.871  0.0360 -0.4026 -0.0820
 1253ERGO    C217090  17.335   5.653   8.206 -0.1028 -0.3624 -0.0226
 1254ERGO   ROH17091  13.856  11.548   6.566 -0.1269 -0.3306  0.3006
 1254ERGO    R117092  13.659  11.628   6.753 -0.0165  0.0084  0.2771
 1254ERGO    R217093  13.612  11.489   6.988 -0.2335  0.1295  0.2987
 1254ERGO    R317094  13.653  11.733   7.101  0.1240  0.0960  0.2564
 1254ERGO    R417095  13.606  11.553   7.328 -0.4798  0.2347  0.2774
 1254ERGO    R517096  13.501  11.739   7.286 -0.0796  0.4439  0.0961
 1254ERGO    C117097  13.640  11.818   7.632 -0.2875  0.2643  0.2254
 1254ERGO    C217098  13.840  11.824   7.926  0.2176 -0.0300  0.0036
 1255ERGO   ROH17099  17.682   5.210   6.562 -0.0633  0.1224 -0.0198
 1255ERGO    R117100  17.590   5.060   6.784  0.1787 -0.1459 -0.0968
 1255ERGO    R217101  17.762   4.949   6.970  0.3539  0.2982  0.0204
 1255ERGO    R317102  17.608   5.085   7.147 -0.1486 -0.1202 -0.0822
 1255ERGO    R417103  17.770   4.906   7.312  0.1772  0.2660  0.0207
 1255ERGO    R517104  17.553   4.924   7.314  0.1233 -0.2902 -0.1561
 1255ERGO    C117105  17.629   5.009   7.678 -0.3975 -0.1456 -0.0755
 1255ERGO    C217106  17.726   5.137   8.023  0.3011  0.0171 -0.0651
 1256ERGO   ROH17107  16.047  12.423   6.258 -0.1072  0.0514  0.0327
 1256ERGO    R117108  16.217  12.476   6.479 -0.1005  0.0047  0.0392
 1256ERGO    R217109  16.342  12.720   6.516  0.0561 -0.0635 -0.0158
 1256ERGO    R317110  16.221  12.708   6.759  0.0138  0.0845 -0.0291
 1256ERGO    R417111  16.453  12.881   6.800  0.0017  0.1066 -0.0897
 1256ERGO    R517112  16.402  12.704   6.915 -0.0182  0.1786  0.0074
 1256ERGO    C117113  16.404  12.964   7.194 -0.0698  0.3447 -0.1452
 1256ERGO    C217114  16.366  12.958   7.628  0.0885  0.1261  0.2722
 1257ERGO   ROH17115   5.930   1.650   6.539  0.0487  0.1289 -0.0263
 1257ERGO    R117116   5.898   1.652   6.820  0.0219  0.1812 -0.0299
 1257ERGO    R217117   6.003   1.455   6.983 -0.1482  0.1146 -0.0012
 1257ERGO    R317118   6.116   1.666   7.111  0.0049  0.0389 -0.0088
 1257ERGO    R417119   6.070   1.468   7.322 -0.0834  0.0532 -0.0112
 1257ERGO    R517120   6.004   1.676   7.322  0.0444  0.0966  0.0112
 1257ERGO    C117121   6.216   1.675   7.639  0.0981 -0.0537 -0.0242
 1257ERGO    C217122   6.326   1.684   7.972  0.2547 -0.0033  0.0992
 1258ERGO   ROH17123  10.432   5.661   6.536  0.1412  0.1472 -0.0935
 1258ERGO    R117124  10.433   5.482   6.755  0.1164 -0.0189 -0.2225
 1258ERGO    R217125  10.584   5.526   6.983  0.1082 -0.1918 -0.1598
 1258ERGO    R317126  10.345   5.496   7.108  0.0875 -0.2639 -0.2242
 1258ERGO    R417127  10.543   5.457   7.319  0.0013 -0.1233 -0.1613
 1258ERGO    R517128  10.382   5.321   7.267  0.0913 -0.1933 -0.1704
 1258ERGO    C117129  10.294   5.389   7.632 -0.0803 -0.1511 -0.2227
 1258ERGO    C217130  10.247   5.617   7.878  0.3598 -0.1390 -0.0707
 1259ERGO   ROH17131   8.607  14.559  10.054  0.3832 -0.0145  0.0072
 1259ERGO    R117132   8.572  14.422   9.809  0.1870  0.0305  0.0084
 1259ERGO    R217133   8.345  14.449   9.654  0.1714  0.2580  0.0702
 1259ERGO    R317134   8.524  14.513   9.460  0.1835  0.0952  0.0253
 1259ERGO    R417135   8.299  14.394   9.316  0.0505  0.2675  0.0842
 1259ERGO    R517136   8.508  14.334   9.302  0.0009  0.0935  0.0427
 1259ERGO    C117137   8.441  14.421   8.937 -0.0085  0.1202  0.0502
 1259ERGO    C217138   8.444  14.518   8.637  0.0583  0.4264  0.1197
 1260ERGO   ROH17139   4.697   4.323   6.397 -0.0262  0.0625 -0.2092
 1260ERGO    R117140   4.698   4.455   6.648  0.1382  0.0047 -0.1786
 1260ERGO    R217141   4.537   4.377   6.858  0.0403  0.1546 -0.2004
 1260ERGO    R317142   4.773   4.367   6.993  0.0311 -0.1681 -0.1971
 1260ERGO    R417143   4.570   4.417   7.200  0.0950  0.2328 -0.2144
 1260ERGO    R517144   4.750   4.535   7.163  0.2895 -0.0607 -0.2601
 1260ERGO    C117145   4.811   4.432   7.525  0.1182 -0.0246 -0.2194
 1260ERGO    C217146   4.858   4.440   7.852 -0.0920  0.0461  0.1030
 1261ERGO   ROH17147  12.267   2.285   6.560 -0.0058  0.1552  0.0186
 1261ERGO    R117148  12.168   2.362   6.813  0.0209  0.0582  0.0588
 1261ERGO    R217149  12.190   2.202   7.037  0.0848 -0.0077  0.0041
 1261ERGO    R317150  12.306   2.422   7.145  0.0622 -0.0208  0.0565
 1261ERGO    R417151  12.162   2.297   7.368  0.0275 -0.0601  0.0148
 1261ERGO    R517152  12.144   2.504   7.301  0.0332 -0.0493  0.0429
 1261ERGO    C117153  12.256   2.559   7.662 -0.0272 -0.1031  0.0703
 1261ERGO    C217154  12.167   2.462   7.981 -0.3507  0.3081 -0.2968
 1262ERGO   ROH17155   6.096   4.210   6.662  0.0811 -0.0273  0.0289
 1262ERGO    R117156   6.092   4.017   6.869 -0.0229 -0.0386  0.0181
 1262ERGO    R217157   6.291   4.000   7.060 -0.0473 -0.1345  0.0421
 1262ERGO    R317158   6.082   4.020   7.233 -0.0602 -0.0519  0.0158
 1262ERGO    R417159   6.275   3.849   7.371 -0.1361 -0.0906  0.0585
 1262ERGO    R517160   6.065   3.804   7.333 -0.1409 -0.0306  0.0409
 1262ERGO    C117161   6.069   3.781   7.713 -0.1999  0.0126  0.0432
 1262ERGO    C217162   6.128   3.602   8.030 -0.0565  0.0508 -0.1780
 1263ERGO   ROH17163  16.856   7.241   6.600 -0.1330  0.1857  0.2798
 1263ERGO    R117164  16.967   7.346   6.838  0.0063  0.0577  0.2735
 1263ERGO    R217165  16.832   7.345   7.079  0.0778  0.0819  0.3175
 1263ERGO    R317166  17.056   7.219   7.167  0.0277 -0.0820  0.2137
 1263ERGO    R417167  16.921   7.313   7.411  0.3148  0.2028  0.2674
 1263ERGO    R517168  17.128   7.351   7.354  0.3090 -0.0353  0.0753
 1263ERGO    C117169  17.183   7.176   7.688  0.4057  0.1192  0.1407
 1263ERGO    C217170  17.069   6.899   7.977 -0.0259  0.0859  0.0291
 1264ERGO   ROH17171   8.316   1.020  10.093  0.1947 -0.2843 -0.1121
 1264ERGO    R117172   8.235   1.150   9.855  0.0062 -0.3040 -0.0603
 1264ERGO    R217173   8.412   1.209   9.650 -0.0710  0.0531 -0.0273
 1264ERGO    R317174   8.232   1.072   9.499  0.1420 -0.1596 -0.0946
 1264ERGO    R417175   8.330   1.286   9.323 -0.2074  0.1063  0.0184
 1264ERGO    R517176   8.122   1.241   9.370 -0.1405 -0.2608  0.0052
 1264ERGO    C117177   8.113   1.202   8.991 -0.0867 -0.0623 -0.0181
 1264ERGO    C217178   8.164   1.298   8.626 -0.0906  0.2365 -0.0278
 1265ERGO   ROH17179   1.481  10.298   9.884 -0.0895 -0.0533 -0.0679
 1265ERGO    R117180   1.620  10.240   9.644  0.0461 -0.0718  0.0131
 1265ERGO    R217181   1.603   9.995   9.518  0.0135 -0.0420 -0.0484
 1265ERGO    R317182   1.531  10.146   9.304  0.2282  0.0381 -0.0652
 1265ERGO    R417183   1.614   9.888   9.190 -0.0648 -0.0621 -0.0443
 1265ERGO    R517184   1.689  10.085   9.134  0.1808 -0.1548 -0.0390
 1265ERGO    C117185   1.554   9.968   8.798  0.0912  0.0014 -0.0576
 1265ERGO    C217186   1.634   9.865   8.569 -0.2324 -0.0154 -0.3247
 1266ERGO   ROH17187  15.781   2.705   6.658  0.0463 -0.1035 -0.1977
 1266ERGO    R117188  15.665   2.719   6.916  0.0814  0.0126 -0.1873
 1266ERGO    R217189  15.668   2.505   7.092 -0.0547  0.0307 -0.1602
 1266ERGO    R317190  15.781   2.687   7.259  0.0947 -0.0280 -0.1958
 1266ERGO    R417191  15.648   2.495   7.436 -0.0509  0.1094 -0.1576
 1266ERGO    R517192  15.622   2.712   7.436  0.1200  0.1301 -0.1947
 1266ERGO    C117193  15.742   2.660   7.795  0.0912  0.1001 -0.1895
 1266ERGO    C217194  15.588   2.619   8.051 -0.1541  0.4300  0.1673
 1267ERGO   ROH17195  13.786   0.024  10.820 -0.0896  0.2542  0.0423
 1267ERGO    R117196  13.889   0.081  10.562 -0.0941  0.1981  0.0269
 1267ERGO    R217197  14.005  -0.113  10.403  0.0778  0.1968  0.1403
 1267ERGO    R317198  13.821  -0.027  10.221  0.0333 -0.0337  0.0749
 1267ERGO    R417199  14.056  -0.099  10.061  0.1340  0.1709  0.1482
 1267ERGO    R517200  13.950   0.091  10.058 -0.0569  0.0576  0.0769
 1267ERGO    C117201  13.914  -0.011   9.692  0.1248 -0.0606  0.0915
 1267ERGO    C217202  13.916   0.037   9.361  0.1002 -0.0404 -0.1804
 1268ERGO   ROH17203  15.689  17.483   7.045 -0.1442 -0.0301  0.0335
 1268ERGO    R117204  15.753  17.443   7.318  0.0296  0.0313  0.0037
 1268ERGO    R217205  15.925  17.609   7.457 -0.1009  0.2332 -0.0678
 1268ERGO    R317206  15.715  17.630   7.628 -0.0522 -0.0255  0.0279
 1268ERGO    R417207  15.952  17.670   7.795 -0.0238  0.2356 -0.0743
 1268ERGO    R517208  15.792  17.526   7.829  0.1575  0.0459 -0.0141
 1268ERGO    C117209  15.770  17.726   8.154  0.0669 -0.0061  0.0117
 1268ERGO    C217210  15.838  17.709   8.391 -0.2308 -0.0708 -0.1161
 1269ERGO   ROH17211   4.614   7.472   6.435  0.2030  0.0615 -0.0716
 1269ERGO    R117212   4.760   7.536   6.668  0.0249  0.0621  0.0428
 1269ERGO    R217213   4.645   7.539   6.920 -0.1509 -0.0190 -0.0296
 1269ERGO    R317214   4.848   7.368   6.979 -0.1402  0.0283  0.0704
 1269ERGO    R417215   4.743   7.449   7.239 -0.2203  0.0678  0.0161
 1269ERGO    R517216   4.951   7.460   7.174 -0.2087  0.0852  0.0746
 1269ERGO    C117217   4.991   7.236   7.480 -0.2505  0.1628  0.1366
 1269ERGO    C217218   5.170   6.890   7.582 -0.0183 -0.0719  0.2157
 1270ERGO   ROH17219   7.921  16.703   9.926 -0.0263 -0.0286 -0.0529
 1270ERGO    R117220   7.819  16.656   9.667 -0.1258  0.1880 -0.0556
 1270ERGO    R217221   7.758  16.861   9.491  0.1373  0.3294  0.0071
 1270ERGO    R317222   7.923  16.724   9.325 -0.0688  0.1416 -0.0463
 1270ERGO    R417223   7.749  16.879   9.146 -0.0493  0.2104  0.0050
 1270ERGO    R517224   7.783  16.664   9.139 -0.2223  0.1836  0.0577
 1270ERGO    C117225   7.898  16.760   8.789 -0.3516 -0.0350 -0.0465
 1270ERGO    C217226   7.936  16.810   8.420  0.1044 -0.2777 -0.0454
 1271ERGO   ROH17227   8.529   9.502   6.403  0.0271 -0.0892  0.1174
 1271ERGO    R117228   8.686   9.450   6.633  0.0161 -0.0407  0.1360
 1271ERGO    R217229   8.873   9.630   6.729  0.1073 -0.0767  0.0290
 1271ERGO    R317230   8.733   9.602   6.960  0.1069  0.1131  0.0531
 1271ERGO    R417231   8.984   9.728   7.041  0.2407 -0.1099 -0.0079
 1271ERGO    R517232   8.898   9.546   7.124  0.0739 -0.0084  0.0456
 1271ERGO    C117233   8.918   9.759   7.440  0.3181  0.0493 -0.0067
 1271ERGO    C217234   9.172   9.863   7.642  0.0921  0.5317 -0.0932
 1272ERGO   ROH17235  12.835   6.877   6.855  0.1991  0.0166  0.0025
 1272ERGO    R117236  12.791   6.971   7.118  0.0944 -0.0490  0.0096
 1272ERGO    R217237  12.813   6.809   7.340  0.1928 -0.0611 -0.0062
 1272ERGO    R317238  12.985   7.002   7.424  0.0358  0.0621  0.0356
 1272ERGO    R417239  12.875   6.886   7.671  0.1053 -0.0552  0.0087
 1272ERGO    R517240  12.877   7.097   7.616 -0.0540 -0.0468  0.0384
 1272ERGO    C117241  13.072   7.112   7.943 -0.0930  0.0639  0.0565
 1272ERGO    C217242  13.118   7.084   8.188  0.1077 -0.3896 -0.1072
 1273ERGO   ROH17243   5.390   2.452   6.606 -0.0087  0.0609  0.0662
 1273ERGO    R117244   5.293   2.545   6.856 -0.1064  0.0036  0.0497
 1273ERGO    R217245   5.056   2.455   6.967 -0.0425 -0.1802  0.0351
 1273ERGO    R317246   5.215   2.399   7.180 -0.0162 -0.0327  0.0559
 1273ERGO    R417247   4.957   2.473   7.297 -0.1009 -0.2592  0.0228
 1273ERGO    R517248   5.151   2.560   7.346 -0.1812 -0.0828  0.0442
 1273ERGO    C117249   5.049   2.431   7.690 -0.1101 -0.1667  0.0352
 1273ERGO    C217250   4.902   2.320   7.998 -0.3114 -0.1213  0.0399
 1274ERGO   ROH17251   0.593  14.540   6.102  0.0101 -0.0639  0.0252
 1274ERGO    R117252   0.556  14.600   6.376  0.0049 -0.1136  0.0358
 1274ERGO    R217253   0.323  14.714   6.473  0.0616  0.0134  0.0287
 1274ERGO    R317254   0.326  14.500   6.640 -0.1057 -0.0358 -0.0302
 1274ERGO    R417255   0.185  14.709   6.789  0.1984  0.0863  0.0903
 1274ERGO    R517256   0.358  14.594   6.857  0.1012 -0.1288 -0.0185
 1274ERGO    C117257   0.107  14.505   7.131  0.1210  0.0823  0.0708
 1274ERGO    C217258   0.089  14.565   7.426 -0.2614 -0.2540  0.2341
 1275ERGO   ROH17259  17.429  10.492   9.991 -0.1718  0.2756  0.1696
 1275ERGO    R117260  17.263  10.382   9.789 -0.1122  0.1161  0.2056
 1275ERGO    R217261  17.096  10.538   9.634 -0.1109 -0.0134  0.0727
 1275ERGO    R317262  17.228  10.417   9.429 -0.0483 -0.1200  0.1750
 1275ERGO    R417263  17.036  10.595   9.298  0.0222 -0.1509  0.0243
 1275ERGO    R517264  17.060  10.382   9.262  0.0093 -0.1709  0.1267
 1275ERGO    C117265  17.125  10.516   8.911  0.1584 -0.3309  0.0922
 1275ERGO    C217266  17.221  10.546   8.474 -0.1514 -0.1355  0.1359
 1276ERGO   ROH17267  11.141   3.759   6.715  0.0493 -0.1302  0.0853
 1276ERGO    R117268  11.188   3.654   6.974  0.1514  0.0225  0.1302
 1276ERGO    R217269  11.401   3.734   7.131  0.1090  0.2506  0.0740
 1276ERGO    R317270  11.205   3.784   7.313  0.0898  0.1920  0.0693
 1276ERGO    R417271  11.429   3.681   7.471 -0.0012 -0.0681  0.0367
 1276ERGO    R517272  11.225   3.606   7.472 -0.0425  0.0378 -0.0824
 1276ERGO    C117273  11.262   3.698   7.840 -0.0834 -0.3086  0.0107
 1276ERGO    C217274  11.282   3.852   8.109  0.1835 -0.0888  0.1621
 1277ERGO   ROH17275  12.932   1.902   6.569 -0.1206 -0.0252 -0.2229
 1277ERGO    R117276  12.865   1.974   6.834 -0.0247  0.0205 -0.2114
 1277ERGO    R217277  12.604   1.981   6.926  0.0090  0.0456 -0.1219
 1277ERGO    R317278  12.702   1.816   7.118  0.0682  0.0736 -0.1270
 1277ERGO    R417279  12.438   1.894   7.216  0.0035 -0.0843 -0.1631
 1277ERGO    R517280  12.626   1.911   7.324 -0.0224  0.0064 -0.1270
 1277ERGO    C117281  12.434   1.688   7.566  0.0559 -0.1336 -0.1920
 1277ERGO    C217282  12.366   1.530   7.746  0.0633 -0.2623 -0.0973
 1278ERGO   ROH17283   8.828  16.194   6.477 -0.3219 -0.0288 -0.0857
 1278ERGO    R117284   8.886  16.096   6.736 -0.2485 -0.0577 -0.1129
 1278ERGO    R217285   8.999  16.254   6.934 -0.0822 -0.1123 -0.1638
 1278ERGO    R317286   8.782  16.173   7.077 -0.0556 -0.0106 -0.0635
 1278ERGO    R417287   9.002  16.171   7.269  0.0120 -0.0146 -0.1398
 1278ERGO    R517288   8.868  16.006   7.225 -0.0496  0.0091 -0.0443
 1278ERGO    C117289   8.801  16.047   7.598  0.0919  0.1376 -0.0316
 1278ERGO    C217290   8.615  16.123   7.849 -0.1922 -0.1282 -0.1156
 1279ERGO   ROH17291  16.219  10.999   6.547 -0.1201 -0.3268  0.0104
 1279ERGO    R117292  16.336  11.124   6.773 -0.1494 -0.1750 -0.0567
 1279ERGO    R217293  16.186  11.243   6.972 -0.1857 -0.2455 -0.0372
 1279ERGO    R317294  16.330  11.078   7.134 -0.0008 -0.0932 -0.0438
 1279ERGO    R417295  16.207  11.273   7.315 -0.1168 -0.1701 -0.0480
 1279ERGO    R517296  16.419  11.223   7.302 -0.0799  0.0102 -0.0938
 1279ERGO    C117297  16.354  11.136   7.668  0.0968  0.0168 -0.0605
 1279ERGO    C217298  16.445  10.925   7.989 -0.0816 -0.2930 -0.0446
 1280ERGO   ROH17299   1.063   5.136   6.816  0.1020 -0.1406  0.0771
 1280ERGO    R117300   0.922   5.200   7.054  0.0862 -0.0810  0.0519
 1280ERGO    R217301   0.878   5.016   7.255  0.0911 -0.0255  0.1049
 1280ERGO    R317302   0.994   5.206   7.410  0.0701  0.0300  0.0533
 1280ERGO    R417303   0.788   5.087   7.581 -0.0214  0.1667  0.0335
 1280ERGO    R517304   0.813   5.299   7.536  0.0421  0.1368 -0.0663
 1280ERGO    C117305   0.844   5.307   7.916 -0.1066  0.3308 -0.0566
 1280ERGO    C217306   0.906   5.406   8.225 -0.2144  0.0545  0.1317
 1281ERGO   ROH17307   9.571   1.558   6.372 -0.0052  0.0183 -0.0044
 1281ERGO    R117308   9.603   1.512   6.649  0.0695  0.1154  0.0033
 1281ERGO    R217309   9.797   1.343   6.750  0.0009  0.0375 -0.0002
 1281ERGO    R317310   9.865   1.562   6.896  0.1941  0.0566 -0.1144
 1281ERGO    R417311   9.950   1.333   7.060 -0.1954  0.0494  0.0991
 1281ERGO    R517312   9.821   1.497   7.123 -0.0277  0.2655 -0.0915
 1281ERGO    C117313  10.103   1.533   7.377 -0.1284  0.0744  0.0498
 1281ERGO    C217314  10.353   1.683   7.659 -0.2034 -0.1304 -0.0077
 1282ERGO   ROH17315   4.111   3.093   6.679 -0.1069  0.0009 -0.0217
 1282ERGO    R117316   4.178   3.023   6.945 -0.0808  0.0260 -0.0224
 1282ERGO    R217317   4.047   3.129   7.164 -0.2016 -0.1172 -0.0291
 1282ERGO    R317318   4.010   2.867   7.227  0.0195 -0.1583 -0.0615
 1282ERGO    R417319   3.982   3.009   7.482 -0.2118 -0.1919 -0.0586
 1282ERGO    R517320   4.115   2.842   7.441 -0.0351 -0.0688 -0.0200
 1282ERGO    C117321   3.910   2.694   7.726 -0.0102 -0.2740 -0.1063
 1282ERGO    C217322   3.708   2.531   7.966 -0.2056 -0.0140 -0.2743
 1283ERGO   ROH17323  16.671   3.328   6.998  0.0001 -0.1816 -0.1418
 1283ERGO    R117324  16.609   3.204   7.245 -0.0927 -0.0482 -0.0971
 1283ERGO    R217325  16.803   3.129   7.426 -0.1363 -0.2697 -0.1400
 1283ERGO    R317326  16.657   3.280   7.598  0.1140 -0.0340 -0.1266
 1283ERGO    R417327  16.801   3.091   7.770 -0.2741 -0.3677 -0.1507
 1283ERGO    R517328  16.586   3.126   7.767 -0.2156  0.0453 -0.1848
 1283ERGO    C117329  16.662   3.212   8.131 -0.1194 -0.2035 -0.1441
 1283ERGO    C217330  16.786   3.109   8.470 -0.0304 -0.0330 -0.4722
 1284ERGO   ROH17331  11.300  16.048   9.982  0.2307 -0.3224  0.0674
 1284ERGO    R117332  11.183  16.068   9.725  0.0891 -0.2934  0.1324
 1284ERGO    R217333  11.276  16.243   9.531 -0.0846 -0.1912  0.1338
 1284ERGO    R317334  11.290  16.017   9.381 -0.0631 -0.1414  0.0618
 1284ERGO    R417335  11.266  16.233   9.186 -0.0750 -0.0873  0.1308
 1284ERGO    R517336  11.141  16.056   9.199 -0.0592 -0.0986  0.0711
 1284ERGO    C117337  11.274  16.015   8.844 -0.0493  0.0201  0.0617
 1284ERGO    C217338  11.338  16.039   8.540 -0.3549  0.0809  0.1875
 1285ERGO   ROH17339   9.098  12.859   6.462  0.0628 -0.0655 -0.0061
 1285ERGO    R117340   9.200  12.920   6.719  0.0882 -0.0955 -0.0090
 1285ERGO    R217341   9.054  13.060   6.907  0.1475 -0.0263 -0.0166
 1285ERGO    R317342   9.110  12.845   7.064  0.0576 -0.0405 -0.0039
 1285ERGO    R417343   9.065  13.067   7.252 -0.1208 -0.0654 -0.0054
 1285ERGO    R517344   9.240  12.937   7.244 -0.0918 -0.0413  0.1102
 1285ERGO    C117345   9.124  12.870   7.601 -0.3614 -0.1016  0.0132
 1285ERGO    C217346   9.185  12.968   8.003 -0.3699  0.1828 -0.1795
 1286ERGO   ROH17347   2.237  17.552   6.332 -0.1302  0.0532 -0.1523
 1286ERGO    R117348   2.291  17.679   6.579  0.0093 -0.0645 -0.1221
 1286ERGO    R217349   2.090  17.751   6.755  0.0907  0.1091 -0.1079
 1286ERGO    R317350   2.236  17.604   6.931 -0.0676 -0.0897 -0.1375
 1286ERGO    R417351   2.081  17.788   7.099  0.0959  0.0293 -0.0982
 1286ERGO    R517352   2.297  17.760   7.103  0.0754 -0.1900 -0.0893
 1286ERGO    C117353   2.213  17.671   7.464 -0.0497 -0.2037 -0.1202
 1286ERGO    C217354   2.339  17.578   7.793 -0.1882  0.1054 -0.0418
 1287ERGO   ROH17355   3.245   6.662   6.458  0.0319 -0.0567 -0.0605
 1287ERGO    R117356   3.403   6.543   6.660 -0.0993 -0.0837  0.0267
 1287ERGO    R217357   3.588   6.685   6.809 -0.0005 -0.1606 -0.0249
 1287ERGO    R317358   3.449   6.584   7.019 -0.1174  0.0693  0.0125
 1287ERGO    R417359   3.715   6.640   7.127 -0.0029 -0.3205 -0.0454
 1287ERGO    R517360   3.609   6.451   7.137 -0.2908 -0.1635 -0.0060
 1287ERGO    C117361   3.659   6.519   7.509 -0.1140 -0.1978 -0.0222
 1287ERGO    C217362   3.741   6.353   7.706 -0.0026 -0.0878  0.1524
 1288ERGO   ROH17363   9.420  13.827   6.630  0.0148  0.0443 -0.0475
 1288ERGO    R117364   9.470  13.781   6.905  0.2090  0.1698 -0.0615
 1288ERGO    R217365   9.585  13.972   7.070 -0.1167  0.4237 -0.1284
 1288ERGO    R317366   9.364  13.928   7.221  0.0214 -0.0138 -0.0355
 1288ERGO    R417367   9.577  13.972   7.416  0.0110  0.5402 -0.1225
 1288ERGO    R517368   9.442  13.802   7.408  0.3770  0.2244 -0.0089
 1288ERGO    C117369   9.364  13.930   7.758  0.2150  0.1972 -0.0319
 1288ERGO    C217370   9.313  14.109   8.038  0.0817 -0.1194 -0.1282
 1289ERGO   ROH17371   7.070   8.729   6.570  0.1189  0.1389  0.0500
 1289ERGO    R117372   6.949   8.892   6.767  0.1889  0.1749  0.0642
 1289ERGO    R217373   6.740   8.803   6.925  0.0017  0.3229 -0.0916
 1289ERGO    R317374   6.904   8.879   7.128 -0.0194  0.0420  0.0345
 1289ERGO    R417375   6.634   8.895   7.241 -0.0744  0.4231 -0.1458
 1289ERGO    R517376   6.784   9.053   7.240  0.1642  0.2021 -0.0164
 1289ERGO    C117377   6.727   9.019   7.616 -0.1385  0.2177 -0.0591
 1289ERGO    C217378   6.690   8.951   7.959  0.2207 -0.1310 -0.0164
 1290ERGO   ROH17379  15.837  16.643   6.487 -0.3935 -0.2671 -0.1072
 1290ERGO    R117380  15.817  16.670   6.768 -0.3299 -0.3145 -0.0967
 1290ERGO    R217381  15.789  16.452   6.937 -0.0554 -0.3642 -0.1032
 1290ERGO    R317382  16.007  16.561   7.058 -0.1217 -0.1523 -0.1716
 1290ERGO    R417383  15.957  16.312   7.204  0.0072 -0.0578  0.0212
 1290ERGO    R517384  15.977  16.511   7.290 -0.1051  0.0175 -0.1361
 1290ERGO    C117385  16.259  16.332   7.474 -0.0185  0.3197  0.0295
 1290ERGO    C217386  16.356  16.247   7.716  0.2874 -0.0026  0.0642
 1291ERGO   ROH17387   4.474   8.518   6.466  0.1519  0.0810  0.1072
 1291ERGO    R117388   4.427   8.493   6.744  0.1181  0.0204  0.0969
 1291ERGO    R217389   4.629   8.445   6.925  0.0986 -0.0226  0.1142
 1291ERGO    R317390   4.529   8.667   7.047  0.0859 -0.0462  0.1449
 1291ERGO    R417391   4.640   8.506   7.265  0.1087 -0.0536  0.1187
 1291ERGO    R517392   4.437   8.586   7.252  0.1050 -0.0718  0.1394
 1291ERGO    C117393   4.553   8.750   7.577  0.1027 -0.0936  0.1501
 1291ERGO    C217394   4.454   8.910   7.875  0.0229  0.0676 -0.1419
 1292ERGO   ROH17395   3.996  11.885   9.625  0.1662  0.0362 -0.0618
 1292ERGO    R117396   4.023  12.058   9.403  0.1851  0.1007 -0.0093
 1292ERGO    R217397   4.189  12.001   9.190  0.0731  0.0805 -0.0897
 1292ERGO    R317398   3.963  12.040   9.045  0.0424  0.2665  0.0043
 1292ERGO    R417399   4.182  12.082   8.854  0.0062  0.0691 -0.0911
 1292ERGO    R517400   4.018  12.220   8.896  0.1376  0.2145 -0.0274
 1292ERGO    C117401   3.965  12.165   8.522 -0.0616  0.2370 -0.0036
 1292ERGO    C217402   4.101  12.277   8.250  0.1226  0.2404  0.1289
 1293ERGO   ROH17403   4.395  15.525   6.235 -0.0936 -0.0938  0.0065
 1293ERGO    R117404   4.366  15.567   6.514 -0.1409 -0.1241  0.0051
 1293ERGO    R217405   4.388  15.363   6.698  0.1160 -0.0941  0.0036
 1293ERGO    R317406   4.574  15.527   6.810 -0.0832  0.1391  0.0051
 1293ERGO    R417407   4.486  15.353   7.030  0.3570 -0.2062 -0.0676
 1293ERGO    R517408   4.489  15.571   7.030 -0.0190 -0.1875  0.1054
 1293ERGO    C117409   4.718  15.501   7.327  0.3103 -0.0525 -0.1076
 1293ERGO    C217410   4.897  15.593   7.639  0.2275 -0.2802 -0.0265
 1294ERGO   ROH17411  10.224   2.386   6.879  0.1807 -0.0961  0.0562
 1294ERGO    R117412  10.307   2.526   7.111  0.2322 -0.2823  0.1528
 1294ERGO    R217413  10.165   2.740   7.214  0.5809  0.0397 -0.0117
 1294ERGO    R317414  10.171   2.593   7.442 -0.0098  0.0092  0.0007
 1294ERGO    R417415  10.161   2.871   7.533  0.5770  0.0488 -0.0154
 1294ERGO    R517416  10.308   2.720   7.591  0.1611 -0.3201  0.1377
 1294ERGO    C117417  10.166   2.810   7.934  0.0201  0.0254 -0.0060
 1294ERGO    C217418  10.076   3.062   8.186  0.0292 -0.1410  0.0771
 1295ERGO   ROH17419   8.612   1.827   6.998 -0.3782 -0.1621 -0.0549
 1295ERGO    R117420   8.527   1.728   7.249 -0.4842  0.1213  0.0237
 1295ERGO    R217421   8.704   1.658   7.450 -0.5302 -0.2974 -0.0804
 1295ERGO    R317422   8.555   1.831   7.597  0.0105  0.1422 -0.0136
 1295ERGO    R417423   8.698   1.669   7.795 -0.4972 -0.4363 -0.0741
 1295ERGO    R517424   8.483   1.702   7.786 -0.4200  0.2710 -0.0725
 1295ERGO    C117425   8.555   1.838   8.135  0.0297 -0.1046 -0.0077
 1295ERGO    C217426   8.693   1.798   8.481  0.0182  0.3856 -0.0273
 1296ERGO   ROH17427  11.841  13.306   6.656 -0.1803  0.1942  0.0199
 1296ERGO    R117428  11.807  13.466   6.887 -0.2470  0.1028  0.0746
 1296ERGO    R217429  11.568  13.481   7.024 -0.2143 -0.1574  0.1682
 1296ERGO    R317430  11.723  13.412   7.236 -0.0694 -0.0710  0.0910
 1296ERGO    R417431  11.461  13.469   7.353 -0.0546 -0.2869  0.2168
 1296ERGO    R517432  11.651  13.556   7.413 -0.0967 -0.1541  0.1439
 1296ERGO    C117433  11.545  13.397   7.743  0.1744 -0.2813  0.1727
 1296ERGO    C217434  11.580  13.270   8.225 -0.0179 -0.0864  0.1946
 1297ERGO   ROH17435  14.017  14.546   6.770 -0.3659  0.0569  0.1708
 1297ERGO    R117436  13.978  14.536   7.050 -0.1796  0.0856  0.1982
 1297ERGO    R217437  14.179  14.593   7.231 -0.0921  0.2121  0.0555
 1297ERGO    R317438  13.997  14.770   7.329 -0.1126  0.1408  0.1495
 1297ERGO    R417439  14.194  14.738   7.544 -0.0339  0.1341  0.0897
 1297ERGO    R517440  13.978  14.712   7.560 -0.0287  0.0724  0.1444
 1297ERGO    C117441  14.031  14.988   7.819 -0.0192  0.0217  0.1979
 1297ERGO    C217442  13.930  15.102   8.068  0.0958 -0.1333 -0.0871
 1298ERGO   ROH17443   4.097  17.399   6.566 -0.0818  0.0808 -0.0610
 1298ERGO    R117444   4.146  17.472   6.835 -0.2801  0.1557 -0.0454
 1298ERGO    R217445   3.954  17.452   7.032 -0.2666 -0.2958 -0.0871
 1298ERGO    R317446   4.145  17.305   7.159  0.0430  0.1061 -0.0611
 1298ERGO    R417447   3.982  17.418   7.375 -0.5383 -0.5480 -0.0848
 1298ERGO    R517448   4.198  17.433   7.354 -0.5224  0.0953  0.1354
 1298ERGO    C117449   4.177  17.260   7.693 -0.4058 -0.3175 -0.0591
 1298ERGO    C217450   4.182  17.058   8.000 -0.0653  0.1192 -0.2759
 1299ERGO   ROH17451   3.688  16.247   6.414  0.0345  0.0470 -0.0121
 1299ERGO    R117452   3.602  16.267   6.682 -0.0066  0.0422 -0.0254
 1299ERGO    R217453   3.627  16.059   6.863  0.0047  0.0550 -0.0155
 1299ERGO    R317454   3.755  16.246   7.011 -0.0497  0.0828 -0.0021
 1299ERGO    R417455   3.732  16.015   7.189 -0.1280  0.1184  0.0373
 1299ERGO    R517456   3.668  16.218   7.232 -0.1408  0.1304 -0.0304
 1299ERGO    C117457   3.914  16.165   7.518 -0.2565  0.1812  0.0806
 1299ERGO    C217458   4.044  16.045   7.763  0.1433  0.0951  0.1365
 1300ERGO   ROH17459  14.854  10.730   6.815 -0.2828 -0.0296 -0.0173
 1300ERGO    R117460  14.958  10.707   7.078 -0.0263  0.2192 -0.0916
 1300ERGO    R217461  14.974  10.922   7.250 -0.3825  0.2775 -0.1203
 1300ERGO    R317462  14.834  10.757   7.416  0.1065 -0.0400 -0.0023
 1300ERGO    R417463  14.949  10.962   7.593 -0.2831  0.2824 -0.1137
 1300ERGO    R517464  14.968  10.746   7.614  0.2574  0.3231 -0.0767
 1300ERGO    C117465  14.804  10.831   7.948  0.2339 -0.0129  0.0011
 1300ERGO    C217466  14.705  11.038   8.252  0.0451  0.2350  0.0767
 1301ERGO   ROH17467  16.413   1.977   6.728 -0.0390 -0.1788 -0.0298
 1301ERGO    R117468  16.518   1.921   6.985 -0.0340 -0.1606 -0.0282
 1301ERGO    R217469  16.493   2.097   7.197  0.0014 -0.1303 -0.0505
 1301ERGO    R317470  16.385   1.881   7.321 -0.0225 -0.0991 -0.0160
 1301ERGO    R417471  16.471   2.056   7.539  0.2953 -0.2198 -0.0390
 1301ERGO    R517472  16.525   1.847   7.513  0.1370 -0.2474 -0.1542
 1301ERGO    C117473  16.357   1.830   7.855  0.4442 -0.2427 -0.0000
 1301ERGO    C217474  16.272   1.942   8.154 -0.0472 -0.0554 -0.2642
 1302ERGO   ROH17475   6.064   3.770   6.454 -0.0495 -0.1959 -0.0513
 1302ERGO    R117476   6.093   3.592   6.672 -0.0268 -0.1307 -0.0009
 1302ERGO    R217477   6.339   3.496   6.754 -0.0253 -0.1510 -0.0359
 1302ERGO    R317478   6.260   3.594   6.995  0.0592 -0.0596 -0.0445
 1302ERGO    R417479   6.435   3.369   7.061  0.0587 -0.0618 -0.0247
 1302ERGO    R517480   6.232   3.400   7.132  0.0805 -0.0146  0.0286
 1302ERGO    C117481   6.417   3.387   7.466  0.1869  0.0760 -0.0262
 1302ERGO    C217482   6.682   3.376   7.607 -0.0214 -0.0648 -0.0772
 1303ERGO   ROH17483  13.423  17.480   6.656  0.0776  0.0641 -0.0124
 1303ERGO    R117484  13.268  17.379   6.870  0.0473  0.0169 -0.0564
 1303ERGO    R217485  13.358  17.179   7.038  0.0594  0.0420 -0.0330
 1303ERGO    R317486  13.298  17.359   7.232 -0.0480  0.0231 -0.0478
 1303ERGO    R417487  13.251  17.099   7.357  0.0926  0.0042 -0.0312
 1303ERGO    R517488  13.110  17.265   7.346  0.0001 -0.0740 -0.0478
 1303ERGO    C117489  13.132  17.222   7.724  0.0113 -0.0356 -0.0440
 1303ERGO    C217490  13.191  17.189   8.025  0.4505  0.0859 -0.0347
 1304ERGO   ROH17491  16.888   1.105   6.928  0.0761  0.0147 -0.0882
 1304ERGO    R117492  16.993   1.027   7.179 -0.1096 -0.0201 -0.0213
 1304ERGO    R217493  17.158   1.190   7.328 -0.0121 -0.1474 -0.0057
 1304ERGO    R317494  16.974   1.146   7.522 -0.1342  0.0951 -0.0589
 1304ERGO    R417495  17.185   1.301   7.655  0.2213 -0.4448  0.0822
 1304ERGO    R517496  17.103   1.110   7.721 -0.2046 -0.3426 -0.0721
 1304ERGO    C117497  17.026   1.323   8.027  0.2427 -0.3903  0.0834
 1304ERGO    C217498  16.934   1.541   8.274  0.0548 -0.2265  0.0503
 1305ERGO   ROH17499   6.913  13.975   6.347  0.0034  0.0405  0.1070
 1305ERGO    R117500   6.988  14.060   6.607 -0.1198  0.0199  0.1503
 1305ERGO    R217501   6.807  14.164   6.789 -0.2452 -0.2056  0.1520
 1305ERGO    R317502   6.906  13.968   6.949 -0.0996 -0.1700  0.1074
 1305ERGO    R417503   6.835  14.184   7.133 -0.1142 -0.1814  0.1400
 1305ERGO    R517504   7.027  14.085   7.119 -0.0726 -0.1102  0.0560
 1305ERGO    C117505   6.943  14.012   7.483  0.0989 -0.1338  0.0910
 1305ERGO    C217506   6.900  13.896   7.767 -0.2126  0.0525 -0.2253
 1306ERGO   ROH17507  13.956  10.026   6.292  0.0969  0.0852  0.1578
 1306ERGO    R117508  13.917  10.021   6.572 -0.0077  0.1686  0.1454
 1306ERGO    R217509  14.121   9.967   6.750 -0.1294 -0.0403  0.2241
 1306ERGO    R317510  14.045  10.203   6.860  0.1005  0.0652  0.1643
 1306ERGO    R417511  14.187  10.063   7.075 -0.1116 -0.0648  0.2276
 1306ERGO    R517512  13.985  10.147   7.085 -0.0260  0.1620  0.1580
 1306ERGO    C117513  14.152  10.341   7.368  0.1146  0.0202  0.1735
 1306ERGO    C217514  14.350  10.688   7.496  0.0620  0.1103 -0.1064
 1307ERGO   ROH17515  14.345   6.731   6.909  0.0387 -0.1510 -0.0473
 1307ERGO    R117516  14.384   6.554   7.126 -0.0559 -0.0531  0.0508
 1307ERGO    R217517  14.609   6.396   7.151 -0.2221 -0.2987  0.0397
 1307ERGO    R317518  14.627   6.515   7.395  0.0370 -0.1518 -0.0470
 1307ERGO    R417519  14.762   6.257   7.428 -0.3025 -0.3192  0.0740
 1307ERGO    R517520  14.600   6.335   7.551 -0.1499 -0.0105  0.0873
 1307ERGO    C117521  14.868   6.288   7.818 -0.1061 -0.1932  0.0126
 1307ERGO    C217522  15.149   6.052   8.076  0.2372 -0.3265 -0.0336
 1308ERGO   ROH17523   3.613   7.764   6.357  0.2611  0.3741  0.2097
 1308ERGO    R117524   3.501   7.647   6.588  0.0983  0.1985  0.0454
 1308ERGO    R217525   3.654   7.521   6.781 -0.0351  0.0647  0.0646
 1308ERGO    R317526   3.527   7.694   6.948 -0.1626 -0.0643  0.1036
 1308ERGO    R417527   3.661   7.501   7.126  0.3002  0.2089  0.0698
 1308ERGO    R517528   3.450   7.555   7.128  0.2099 -0.1218  0.2305
 1308ERGO    C117529   3.547   7.652   7.484  0.3757  0.1719  0.1094
 1308ERGO    C217530   3.610   7.595   7.706  0.0533 -0.0076  0.0544
 1309ERGO   ROH17531  15.514   7.275   6.872  0.0170 -0.3868 -0.0874
 1309ERGO    R117532  15.530   7.300   7.154  0.2658 -0.1841 -0.1141
 1309ERGO    R217533  15.337   7.197   7.323  0.1058  0.4262  0.1109
 1309ERGO    R317534  15.551   7.074   7.438 -0.1062 -0.0117  0.0558
 1309ERGO    R417535  15.389   7.169   7.663  0.2567  0.5323  0.0969
 1309ERGO    R517536  15.601   7.209   7.629  0.3403  0.0042 -0.0644
 1309ERGO    C117537  15.619   7.038   7.970  0.1455  0.1830  0.0370
 1309ERGO    C217538  15.396   6.976   8.346 -0.2275 -0.2105  0.0351
 1310ERGO   ROH17539   9.368  10.928   6.354 -0.3125 -0.1576 -0.1210
 1310ERGO    R117540   9.137  10.990   6.505 -0.1924 -0.2396  0.1010
 1310ERGO    R217541   9.104  10.908   6.767  0.1813 -0.0712  0.2094
 1310ERGO    R317542   9.063  11.173   6.811  0.0118 -0.0700  0.0512
 1310ERGO    R417543   9.048  11.050   7.077  0.2134  0.0957  0.1392
 1310ERGO    R517544   8.898  11.179   6.985  0.0823 -0.0716  0.1167
 1310ERGO    C117545   8.976  11.381   7.299  0.0729  0.1940 -0.0502
 1310ERGO    C217546   9.079  11.515   7.615 -0.1850 -0.1325  0.0627
 1311ERGO   ROH17547  14.149   0.482   6.869  0.0513 -0.2933 -0.0652
 1311ERGO    R117548  14.020   0.482   7.121  0.0618 -0.0976 -0.0576
 1311ERGO    R217549  13.940   0.250   7.248 -0.0692  0.0056  0.0597
 1311ERGO    R317550  14.088   0.350   7.453  0.0012  0.0200  0.0016
 1311ERGO    R417551  13.873   0.199   7.583  0.1832 -0.1600  0.0878
 1311ERGO    R517552  13.927   0.407   7.620  0.0765 -0.1430  0.1293
 1311ERGO    C117553  13.972   0.264   7.971  0.3962 -0.2429  0.0496
 1311ERGO    C217554  14.160   0.242   8.299 -0.0361 -0.1033 -0.0419
 1312ERGO   ROH17555   0.948  13.555  10.115 -0.0472 -0.1043  0.0412
 1312ERGO    R117556   0.945  13.440   9.856  0.1207 -0.0697  0.0228
 1312ERGO    R217557   0.738  13.480   9.678  0.0701 -0.3244  0.0212
 1312ERGO    R317558   0.938  13.561   9.513 -0.0308 -0.0235  0.0414
 1312ERGO    R417559   0.704  13.540   9.339 -0.0343 -0.1610  0.0596
 1312ERGO    R517560   0.898  13.445   9.308  0.0606  0.0529 -0.0210
 1312ERGO    C117561   0.872  13.651   8.988 -0.1898  0.2167  0.1009
 1312ERGO    C217562   0.862  13.640   8.618 -0.2012  0.1459  0.2408
 1313ERGO   ROH17563   7.173  15.135   6.611 -0.1403 -0.0228  0.0408
 1313ERGO    R117564   7.050  15.133   6.866 -0.1132  0.1130  0.0553
 1313ERGO    R217565   7.149  14.985   7.077 -0.1731  0.1102  0.0784
 1313ERGO    R317566   7.143  15.225   7.205 -0.0220  0.1475  0.0222
 1313ERGO    R417567   7.144  15.026   7.420  0.0646  0.1986  0.0738
 1313ERGO    R517568   7.001  15.188   7.394  0.0895  0.2339  0.1271
 1313ERGO    C117569   7.136  15.274   7.740  0.3449  0.2852  0.0183
 1313ERGO    C217570   7.156  15.385   8.037  0.2746  0.2657  0.0352
 1314ERGO   ROH17571   2.380   9.371   6.119 -0.3007 -0.0348 -0.1424
 1314ERGO    R117572   2.312   9.534   6.340 -0.1651  0.0291 -0.1469
 1314ERGO    R217573   2.276   9.433   6.595 -0.2012  0.0731 -0.1340
 1314ERGO    R317574   2.461   9.621   6.660 -0.0671 -0.0436 -0.1726
 1314ERGO    R417575   2.337   9.547   6.915 -0.0160 -0.0077 -0.1389
 1314ERGO    R517576   2.357   9.748   6.834  0.0714 -0.0079 -0.1158
 1314ERGO    C117577   2.546   9.790   7.163  0.2176 -0.1644 -0.1780
 1314ERGO    C217578   2.511   9.838   7.422 -0.0149  0.0450  0.0053
 1315ERGO   ROH17579   2.795   0.589   6.699  0.0085 -0.0843  0.0417
 1315ERGO    R117580   2.792   0.692   6.962 -0.0197 -0.1744  0.0767
 1315ERGO    R217581   2.817   0.531   7.185  0.1281 -0.2325  0.0175
 1315ERGO    R317582   3.021   0.700   7.246  0.0215 -0.1110  0.0426
 1315ERGO    R417583   2.838   0.719   7.475  0.0584 -0.3474  0.0982
 1315ERGO    R517584   2.914   0.885   7.355 -0.0895 -0.2358  0.1518
 1315ERGO    C117585   3.042   0.987   7.700 -0.0823 -0.3001  0.1687
 1315ERGO    C217586   3.221   1.244   8.020 -0.1146  0.1933  0.1581
 1316ERGO   ROH17587  12.013  15.111   6.440  0.2151  0.2663 -0.0515
 1316ERGO    R117588  12.084  15.110   6.714  0.0922  0.1627 -0.0186
 1316ERGO    R217589  12.072  15.337   6.872  0.0935  0.1222  0.0455
 1316ERGO    R317590  11.917  15.180   7.030 -0.0291  0.1222 -0.0739
 1316ERGO    R417591  12.016  15.391   7.208  0.1112 -0.0762  0.0809
 1316ERGO    R517592  12.032  15.176   7.240 -0.0463 -0.1094 -0.0690
 1316ERGO    C117593  11.837  15.275   7.553  0.0065 -0.1917 -0.0107
 1316ERGO    C217594  11.855  15.372   7.855  0.0226 -0.1983 -0.2018
 1317ERGO   ROH17595   9.520   8.652   6.646  0.2285 -0.1365  0.0396
 1317ERGO    R117596   9.401   8.720   6.893  0.0329 -0.0595 -0.0734
 1317ERGO    R217597   9.184   8.583   6.997  0.1463 -0.2305 -0.0563
 1317ERGO    R317598   9.346   8.556   7.214  0.0838  0.1519  0.0448
 1317ERGO    R417599   9.078   8.501   7.316  0.1086 -0.1329 -0.0434
 1317ERGO    R517600   9.219   8.646   7.395 -0.1231  0.1202 -0.0825
 1317ERGO    C117601   9.168   8.429   7.705  0.0281  0.2829  0.0590
 1317ERGO    C217602   9.107   8.405   7.989 -0.1300  0.1981  0.1926
 1318ERGO   ROH17603   0.139  11.623   9.899  0.1483 -0.2608 -0.1327
 1318ERGO    R117604   0.277  11.695   9.662  0.1000 -0.0852 -0.1087
 1318ERGO    R217605   0.284  11.532   9.439  0.1869  0.0083 -0.1761
 1318ERGO    R317606   0.189  11.754   9.314  0.0541  0.0067 -0.0815
 1318ERGO    R417607   0.301  11.589   9.099 -0.1049  0.0425 -0.1882
 1318ERGO    R517608   0.350  11.798   9.141 -0.0962  0.0430 -0.2120
 1318ERGO    C117609   0.223  11.831   8.783 -0.3994  0.0608 -0.1064
 1318ERGO    C217610   0.277  11.827   8.493  0.0392 -0.0028  0.0843
 1319ERGO   ROH17611  10.209  12.947   6.672  0.0478  0.0542 -0.0057
 1319ERGO    R117612  10.225  13.118   6.897 -0.0695  0.0349  0.0167
 1319ERGO    R217613  10.020  13.139   7.082 -0.0214 -0.2469  0.1010
 1319ERGO    R317614  10.218  13.080   7.259  0.1236 -0.0354  0.0150
 1319ERGO    R417615  10.006  13.200   7.422  0.0042 -0.3658  0.1244
 1319ERGO    R517616  10.215  13.262   7.415 -0.0733 -0.0787  0.0697
 1319ERGO    C117617  10.184  13.180   7.786  0.1552 -0.2364  0.0572
 1319ERGO    C217618  10.100  13.244   8.115 -0.0002 -0.1597 -0.1576
 1320ERGO   ROH17619   1.520  16.971   6.775 -0.1812  0.2608 -0.0564
 1320ERGO    R117620   1.402  16.933   7.029 -0.2182 -0.0352 -0.1144
 1320ERGO    R217621   1.317  16.686   7.119  0.1222 -0.2093 -0.2598
 1320ERGO    R317622   1.477  16.744   7.331 -0.0384 -0.0624 -0.1749
 1320ERGO    R417623   1.273  16.564   7.439  0.1734 -0.4013 -0.3238
 1320ERGO    R517624   1.327  16.760   7.516 -0.1364 -0.3503 -0.2234
 1320ERGO    C117625   1.398  16.547   7.825  0.0525 -0.3750 -0.2814
 1320ERGO    C217626   1.395  16.417   8.161 -0.1667  0.1054  0.2265
 1321ERGO   ROH17627  17.072  10.697   6.192  0.1443 -0.1631  0.0869
 1321ERGO    R117628  17.250  10.796   6.389  0.0443  0.0004  0.0984
 1321ERGO    R217629  17.173  10.981   6.580 -0.1314 -0.0474  0.0848
 1321ERGO    R317630  17.269  10.794   6.752  0.0074  0.0371  0.0986
 1321ERGO    R417631  17.236  11.035   6.915 -0.3650 -0.0419  0.1282
 1321ERGO    R517632  17.416  10.916   6.896 -0.2132  0.1835  0.1986
 1321ERGO    C117633  17.362  10.892   7.272 -0.3704  0.0408  0.1666
 1321ERGO    C217634  17.472  10.908   7.732  0.0094  0.1457 -0.1015
 1322ERGO   ROH17635  10.388  17.004   8.102 -0.0180  0.0792 -0.1278
 1322ERGO    R117636  10.502  17.249   8.018  0.0271  0.0577 -0.1329
 1322ERGO    R217637  10.377  17.492   8.056  0.0217  0.0742 -0.2335
 1322ERGO    R317638  10.611  17.558   8.176 -0.0241  0.0848 -0.1515
 1322ERGO    R417639  10.495  17.814   8.093 -0.0077  0.0789 -0.1873
 1322ERGO    R517640  10.695  17.740   8.046  0.0114  0.0905 -0.1184
 1322ERGO    C117641  10.785  18.064   8.227 -0.0677  0.0916 -0.0833
 1322ERGO    C217642  10.740  18.482   8.282  0.3293  0.2300  0.1130
 1323ERGO   ROH17643  10.250  12.077   6.754 -0.0968 -0.1688 -0.1294
 1323ERGO    R117644  10.283  11.997   7.023  0.0014 -0.1947 -0.1477
 1323ERGO    R217645  10.090  12.040   7.216  0.1193 -0.1044 -0.0443
 1323ERGO    R317646  10.115  11.773   7.256  0.0057 -0.1181 -0.0707
 1323ERGO    R417647  10.070  11.883   7.524  0.0753 -0.1222 -0.0574
 1323ERGO    R517648  10.234  11.754   7.462  0.0135 -0.1883 -0.0823
 1323ERGO    C117649  10.082  11.541   7.739 -0.0569 -0.1456 -0.0899
 1323ERGO    C217650  10.150  11.440   7.940 -0.0308  0.4738  0.0501
 1324ERGO   ROH17651  10.969   0.464   6.486 -0.0070  0.0104 -0.0700
 1324ERGO    R117652  10.949   0.498   6.766 -0.0332  0.0354 -0.0744
 1324ERGO    R217653  11.068   0.325   6.945 -0.1909 -0.0468 -0.0442
 1324ERGO    R317654  11.179   0.553   7.043 -0.0413 -0.1228 -0.0364
 1324ERGO    R417655  11.168   0.371   7.273 -0.1674 -0.1156 -0.0419
 1324ERGO    R517656  11.088   0.574   7.264 -0.0310 -0.0640 -0.0398
 1324ERGO    C117657  11.331   0.611   7.555 -0.0134 -0.2272 -0.0333
 1324ERGO    C217658  11.460   0.712   7.884  0.0869  0.1585 -0.0078
 1325ERGO   ROH17659  14.715   2.437   6.952 -0.0122 -0.1280  0.1720
 1325ERGO    R117660  14.614   2.589   7.168 -0.0421 -0.0317  0.0896
 1325ERGO    R217661  14.441   2.483   7.356 -0.0586  0.0515  0.1122
 1325ERGO    R317662  14.628   2.573   7.532 -0.0880  0.1391  0.1013
 1325ERGO    R417663  14.386   2.531   7.694  0.0290 -0.3282  0.1859
 1325ERGO    R517664  14.504   2.714   7.681 -0.2124 -0.1522  0.2896
 1325ERGO    C117665  14.529   2.643   8.055  0.0524 -0.4670  0.2185
 1325ERGO    C217666  14.569   2.731   8.317  0.0075  0.2818  0.1684
 1326ERGO   ROH17667  17.460   2.317   6.895 -0.0348 -0.3273  0.1222
 1326ERGO    R117668  17.389   2.351   7.167  0.0445 -0.1275  0.1203
 1326ERGO    R217669  17.404   2.146   7.351 -0.0637 -0.0400  0.2317
 1326ERGO    R317670  17.557   2.324   7.489  0.0931 -0.0706  0.0994
 1326ERGO    R417671  17.447   2.146   7.694 -0.1236  0.2234  0.2407
 1326ERGO    R517672  17.435   2.363   7.691  0.0978  0.2348  0.0451
 1326ERGO    C117673  17.615   2.313   8.023 -0.0113  0.3481  0.1217
 1326ERGO    C217674  17.674   2.208   8.326  0.0515  0.2147  0.1821
 1327ERGO   ROH17675   7.392  10.085   6.275  0.1557 -0.2187 -0.0315
 1327ERGO    R117676   7.494  10.219   6.503  0.0491 -0.0225 -0.0967
 1327ERGO    R217677   7.345  10.399   6.649 -0.1522 -0.1878 -0.0933
 1327ERGO    R317678   7.413  10.238   6.857  0.1358 -0.0483 -0.0753
 1327ERGO    R417679   7.264  10.458   6.980  0.0158 -0.1384 -0.0600
 1327ERGO    R517680   7.463  10.389   7.036  0.1183  0.0651 -0.1654
 1327ERGO    C117681   7.281  10.340   7.368  0.3839  0.0212 -0.0236
 1327ERGO    C217682   7.089  10.389   7.833  0.0523  0.0451 -0.0551
 1328ERGO   ROH17683  14.688  13.631   6.350 -0.1293 -0.1588 -0.0450
 1328ERGO    R117684  14.574  13.646   6.608  0.0213  0.0481  0.0117
 1328ERGO    R217685  14.443  13.434   6.726 -0.2821  0.2696  0.0865
 1328ERGO    R317686  14.619  13.478   6.928 -0.1024 -0.0143 -0.0035
 1328ERGO    R417687  14.433  13.278   7.034 -0.3167  0.2169  0.0587
 1328ERGO    R517688  14.486  13.469   7.127 -0.0024  0.1270  0.0711
 1328ERGO    C117689  14.593  13.229   7.403 -0.1682 -0.0804 -0.0419
 1328ERGO    C217690  14.551  13.017   7.556  0.0035 -0.0572 -0.0420
 1329ERGO   ROH17691   3.708  11.616   9.516 -0.1848 -0.1749 -0.0686
 1329ERGO    R117692   3.817  11.678   9.263 -0.1323 -0.1627 -0.0423
 1329ERGO    R217693   3.809  11.501   9.050 -0.1938 -0.1053 -0.0837
 1329ERGO    R317694   3.693  11.711   8.922 -0.0832 -0.0201 -0.0479
 1329ERGO    R417695   3.810  11.549   8.708 -0.1681 -0.0533 -0.0771
 1329ERGO    R517696   3.843  11.761   8.742 -0.0529 -0.0724 -0.0412
 1329ERGO    C117697   3.701  11.774   8.389 -0.0492  0.0568 -0.0397
 1329ERGO    C217698   3.578  11.662   8.116 -0.2435 -0.0173 -0.0671
 1330ERGO   ROH17699  12.809   5.412   6.590  0.0789  0.0409  0.1692
 1330ERGO    R117700  12.851   5.506   6.853 -0.1116  0.1245  0.1723
 1330ERGO    R217701  12.643   5.554   7.029 -0.2253 -0.1561  0.1282
 1330ERGO    R317702  12.784   5.387   7.190 -0.0164  0.0517  0.1635
 1330ERGO    R417703  12.601   5.526   7.371 -0.1596 -0.1237  0.1381
 1330ERGO    R517704  12.817   5.512   7.392 -0.1456  0.1363  0.1270
 1330ERGO    C117705  12.710   5.353   7.722  0.0748  0.0903  0.1770
 1330ERGO    C217706  12.744   5.317   8.131  0.1195 -0.0255  0.0047
 1331ERGO   ROH17707   8.116  12.495   6.482 -0.3915 -0.1751 -0.0640
 1331ERGO    R117708   8.231  12.538   6.737 -0.2042 -0.0678 -0.1650
 1331ERGO    R217709   8.134  12.727   6.914 -0.1205 -0.0467 -0.1450
 1331ERGO    R317710   8.122  12.515   7.083  0.0742  0.0001 -0.0693
 1331ERGO    R417711   8.117  12.749   7.259 -0.0706  0.0634 -0.1489
 1331ERGO    R517712   8.255  12.581   7.271  0.0630  0.1693 -0.1166
 1331ERGO    C117713   8.097  12.563   7.618  0.1413  0.1715 -0.0802
 1331ERGO    C217714   8.157  12.319   7.856  0.1304  0.0222 -0.0245
 1332ERGO   ROH17715  17.119  15.334   6.515  0.0161 -0.2454 -0.1713
 1332ERGO    R117716  17.145  15.414   6.785  0.1926 -0.1472 -0.2153
 1332ERGO    R217717  16.952  15.359   6.975  0.2212  0.0965 -0.1115
 1332ERGO    R317718  17.162  15.249   7.109  0.1851 -0.0211 -0.1500
 1332ERGO    R417719  16.958  15.294   7.315  0.2893  0.2060 -0.0916
 1332ERGO    R517720  17.165  15.364   7.319  0.3468  0.0489 -0.1882
 1332ERGO    C117721  17.159  15.154   7.638  0.2950  0.1592 -0.1163
 1332ERGO    C217722  17.307  14.994   7.939 -0.0878 -0.0780 -0.0285
 1333ERGO   ROH17723  15.675   3.659   6.702 -0.0532 -0.2676 -0.0449
 1333ERGO    R117724  15.679   3.589   6.976  0.1528  0.0155  0.0305
 1333ERGO    R217725  15.717   3.776   7.177 -0.2218  0.3176 -0.1587
 1333ERGO    R317726  15.484   3.672   7.272  0.0143 -0.1079 -0.0270
 1333ERGO    R417727  15.613   3.792   7.506 -0.0580  0.0674 -0.0928
 1333ERGO    R517728  15.541   3.587   7.489  0.2894 -0.0521 -0.0808
 1333ERGO    C117729  15.335   3.704   7.787  0.2590 -0.4778  0.0692
 1333ERGO    C217730  15.118   3.825   8.068  0.2058 -0.0387  0.0522
 1334ERGO   ROH17731   1.463   8.743   6.134  0.3192  0.1284 -0.1346
 1334ERGO    R117732   1.589   8.872   6.353  0.2309  0.1885 -0.1183
 1334ERGO    R217733   1.490   9.104   6.466  0.0538  0.0939 -0.0710
 1334ERGO    R317734   1.499   8.958   6.695  0.1794  0.0580 -0.0989
 1334ERGO    R417735   1.502   9.235   6.785 -0.0031  0.0414 -0.0474
 1334ERGO    R517736   1.645   9.081   6.839  0.1090  0.1310 -0.0915
 1334ERGO    C117737   1.518   9.175   7.186  0.0816 -0.0227 -0.0597
 1334ERGO    C217738   1.476   9.182   7.548 -0.0421 -0.1035  0.1189
 1335ERGO   ROH17739   4.459  14.386   6.086 -0.0305 -0.1011  0.0434
 1335ERGO    R117740   4.265  14.497   6.259 -0.0355 -0.0957  0.0340
 1335ERGO    R217741   4.000  14.420   6.254 -0.0278 -0.1195  0.0509
 1335ERGO    R317742   4.042  14.375   6.519 -0.0181 -0.0810  0.0564
 1335ERGO    R417743   3.776  14.262   6.465 -0.0456 -0.0388  0.0931
 1335ERGO    R517744   3.827  14.408   6.620 -0.0060 -0.0205  0.0648
 1335ERGO    C117745   3.685  14.128   6.837 -0.0468  0.0444  0.1227
 1335ERGO    C217746   3.595  14.034   7.106 -0.0820 -0.1996  0.1001
 1336ERGO   ROH17747   5.367   1.637  10.529  0.1557 -0.4709 -0.0489
 1336ERGO    R117748   5.264   1.747  10.289  0.0014 -0.2922  0.0970
 1336ERGO    R217749   5.420   1.891  10.111 -0.1407 -0.0559  0.1600
 1336ERGO    R317750   5.325   1.709   9.933 -0.1368  0.0684  0.0300
 1336ERGO    R417751   5.436   1.925   9.768 -0.1230  0.1820  0.1828
 1336ERGO    R517752   5.235   1.842   9.755 -0.1255  0.1948  0.1163
 1336ERGO    C117753   5.357   1.774   9.400 -0.1092  0.4372  0.0738
 1336ERGO    C217754   5.400   1.724   9.045  0.0086 -0.0705  0.3390
 1337ERGO   ROH17755   8.804   5.541   6.681  0.0800  0.0312 -0.1388
 1337ERGO    R117756   8.711   5.674   6.913 -0.1251 -0.0164 -0.1931
 1337ERGO    R217757   8.457   5.634   7.016 -0.0624 -0.3726 -0.1764
 1337ERGO    R317758   8.594   5.578   7.244  0.0307 -0.0631 -0.1498
 1337ERGO    R417759   8.328   5.657   7.336 -0.1484 -0.5584 -0.1956
 1337ERGO    R517760   8.518   5.740   7.401 -0.3074 -0.1711 -0.1903
 1337ERGO    C117761   8.381   5.617   7.735 -0.1111 -0.3762 -0.1819
 1337ERGO    C217762   8.167   5.646   7.927 -0.0400  0.1102 -0.0134
 1338ERGO   ROH17763  13.058   9.189   6.674  0.2356  0.0443  0.1073
 1338ERGO    R117764  13.057   9.115   6.947  0.0488 -0.0718  0.0772
 1338ERGO    R217765  12.874   9.217   7.129  0.0104 -0.0436  0.0243
 1338ERGO    R317766  12.825   8.954   7.177 -0.1667 -0.0368 -0.1131
 1338ERGO    R417767  12.701   9.095   7.402 -0.1976 -0.0632 -0.1145
 1338ERGO    R517768  12.845   8.932   7.414 -0.2982 -0.1521 -0.1119
 1338ERGO    C117769  12.553   8.777   7.606 -0.4850 -0.0683 -0.3242
 1338ERGO    C217770  12.355   8.597   7.627  0.1630 -0.0168 -0.1413
 1339ERGO   ROH17771   0.911  12.170   5.841  0.1290 -0.0926 -0.0368
 1339ERGO    R117772   0.816  12.090   6.095  0.1157  0.2480  0.0707
 1339ERGO    R217773   0.882  11.846   6.208 -0.4127  0.1139  0.1051
 1339ERGO    R317774   0.962  12.001   6.416  0.1508  0.0002 -0.0096
 1339ERGO    R417775   1.008  11.727   6.507 -0.3072 -0.0974 -0.0207
 1339ERGO    R517776   0.894  11.880   6.611  0.1184  0.1688  0.0908
 1339ERGO    C117777   1.157  11.803   6.876  0.2832 -0.3274 -0.2018
 1339ERGO    C217778   1.426  11.777   6.978 -0.1298  0.0017 -0.1157
 1340ERGO   ROH17779   7.439   9.822   6.681 -0.0837  0.0980 -0.0407
 1340ERGO    R117780   7.427   9.753   6.955 -0.0457 -0.0915 -0.0838
 1340ERGO    R217781   7.484   9.934   7.156  0.1507 -0.2726  0.0352
 1340ERGO    R317782   7.238   9.862   7.246  0.1243 -0.1596  0.0510
 1340ERGO    R417783   7.400   9.893   7.489  0.0883 -0.0478  0.0476
 1340ERGO    R517784   7.282   9.718   7.433  0.0593 -0.0510  0.1450
 1340ERGO    C117785   7.120   9.802   7.767  0.0271  0.1892  0.0697
 1340ERGO    C217786   6.916   9.858   8.075 -0.2285 -0.2275 -0.3747
 1341ERGO   ROH17787   8.336  15.932  10.064 -0.1130  0.2200 -0.0291
 1341ERGO    R117788   8.405  15.839   9.805 -0.0553  0.1178  0.0226
 1341ERGO    R217789   8.232  15.690   9.649 -0.0023  0.0107  0.0620
 1341ERGO    R317790   8.282  15.885   9.466 -0.0151 -0.0592 -0.0162
 1341ERGO    R417791   8.191  15.657   9.308  0.0003 -0.1235  0.0742
 1341ERGO    R517792   8.375  15.769   9.279 -0.0090 -0.1246  0.0293
 1341ERGO    C117793   8.214  15.821   8.937 -0.0101 -0.2673  0.0079
 1341ERGO    C217794   8.214  15.836   8.559  0.0355  0.0449  0.3725
 1342ERGO   ROH17795   2.839   3.539   6.779  0.1405  0.0590  0.0890
 1342ERGO    R117796   2.696   3.568   7.022  0.0715 -0.0115  0.0593
 1342ERGO    R217797   2.712   3.385   7.228  0.0037 -0.0824  0.0133
 1342ERGO    R317798   2.778   3.604   7.374 -0.0232 -0.1289  0.0914
 1342ERGO    R417799   2.583   3.461   7.539 -0.2659 -0.0179 -0.1130
 1342ERGO    R517800   2.573   3.670   7.479 -0.0866 -0.0161 -0.1120
 1342ERGO    C117801   2.569   3.711   7.858 -0.4480 -0.0241 -0.1132
 1342ERGO    C217802   2.782   3.823   8.084 -0.0662  0.1844  0.0018
 1343ERGO   ROH17803   1.409   7.009   6.048  0.1274 -0.0027 -0.0184
 1343ERGO    R117804   1.635   6.951   6.209  0.1409  0.0530 -0.0172
 1343ERGO    R217805   1.756   7.140   6.370  0.0591  0.0688  0.0260
 1343ERGO    R317806   1.715   6.954   6.564  0.1193  0.0152 -0.0120
 1343ERGO    R417807   1.876   7.162   6.693 -0.1014  0.1296  0.0827
 1343ERGO    R517808   1.921   6.949   6.686  0.0705  0.1649  0.0791
 1343ERGO    C117809   1.908   7.001   7.063 -0.1382  0.1147  0.0801
 1343ERGO    C217810   1.749   7.036   7.298 -0.1029  0.0252  0.0036
 1344ERGO   ROH17811   1.196  17.404   6.783 -0.0584 -0.1317 -0.0161
 1344ERGO    R117812   1.275  17.392   7.055 -0.1036 -0.0647  0.0019
 1344ERGO    R217813   1.097  17.426   7.263 -0.1408 -0.0009 -0.0300
 1344ERGO    R317814   1.195  17.186   7.344 -0.1652  0.0136  0.0379
 1344ERGO    R417815   1.087  17.308   7.588 -0.1660  0.0684 -0.0066
 1344ERGO    R517816   1.289  17.229   7.560 -0.1783  0.0496  0.0290
 1344ERGO    C117817   1.174  17.013   7.853 -0.2035  0.1220  0.0707
 1344ERGO    C217818   0.990  16.880   8.072 -0.0035 -0.0619  0.1983
 1345W        W17819   6.886  16.670  12.613  0.1283 -0.0754 -0.1434
 1346W        W17820  13.334  16.611   2.004  0.1501  0.1674 -0.2034
 1347W        W17821   4.177   8.758   3.276 -0.2773 -0.0127 -0.3277
 1348W        W17822  10.819  10.156   4.487 -0.2516 -0.0889 -0.1384
 1349W        W17823   1.570   4.094   5.909 -0.1535 -0.1851 -0.1329
 1350W        W17824   6.186   5.169   5.040  0.1379  0.0483 -0.0084
 1351W        W17825  10.066  11.765   4.938 -0.1648  0.0954 -0.1190
 1352W        W17826   4.958  15.054   4.290  0.0256  0.0718  0.4050
 1353W        W17827  15.635  11.112  13.803  0.0116  0.0523 -0.0755
 1354W        W17828   5.907   5.745  13.677  0.0370  0.0833 -0.1007
 1355W        W17829  16.649  11.746   4.658 -0.0231  0.2531 -0.1256
 1356W        W17830  13.418  11.821   0.835 -0.2582 -0.2739 -0.0225
 1357W        W17831   4.286  17.470   4.110  0.0597 -0.0865  0.2083
 1358W        W17832   5.800  15.397   3.532 -0.0603  0.0815  0.3746
 1359W        W17833   3.558   4.744   4.291 -0.2817 -0.0050  0.0351
 1360W        W17834   8.065   9.364  14.682  0.1708  0.0517 -0.1494
 1361W        W17835  14.482   2.240  14.536  0.2169 -0.0473 -0.1102
 1362W        W17836  17.613   5.443  14.427  0.0351  0.2884  0.4479
 1363W        W17837  10.913  12.876  15.985  0.1479  0.0546  0.0159
 1364W        W17838   6.297   4.313  15.524 -0.0726 -0.1425  0.1937
 1365W        W17839   2.448  14.459  15.747 -0.1934  0.1527  0.0456
 1366W        W17840   3.404  13.804   0.017 -0.1016  0.1531  0.1241
 1367W        W17841   4.557  11.995   5.562 -0.0079  0.3346  0.4431
 1368W        W17842   4.224  14.010   2.651  0.1201 -0.2505 -0.0030
 1369W        W17843   1.368   7.736   0.117  0.0537  0.0779 -0.2489
 1370W        W17844  10.321  12.943   0.799 -0.2101  0.0307  0.0216
 1371W        W17845  15.920   3.132   2.940  0.0079 -0.1982 -0.0547
 1372W        W17846  16.972   3.609  15.085 -0.4439 -0.0400 -0.1372
 1373W        W17847  13.958  17.702  12.449  0.2109  0.0702  0.0058
 1374W        W17848   8.401   7.352   0.737 -0.0661  0.2258 -0.0060
 1375W        W17849   7.813   6.323   1.805 -0.2213 -0.4316 -0.1201
 1376W        W17850  12.654  13.696   0.807 -0.1829 -0.1285 -0.0033
 1377W        W17851   3.242  17.772   3.735  0.0128 -0.1467 -0.2111
 1378W        W17852   1.660   6.814  13.248  0.0839 -0.0560  0.0946
 1379W        W17853   0.013  12.717  13.975 -0.1628  0.0429  0.0280
 1380W        W17854   9.459   6.529  15.371  0.1567 -0.0113  0.2134
 1381W        W17855   8.656   6.499  16.928 -0.1577 -0.3539 -0.0221
 1382W        W17856  14.997   4.142   1.042 -0.3782 -0.0413  0.0948
 1383W        W17857  17.764   8.754   3.371 -0.2017 -0.0403  0.2868
 1384W        W17858  14.487  12.194   1.605 -0.3289  0.0910 -0.1000
 1385W        W17859   6.648   7.449   1.010 -0.0371  0.1342  0.0514
 1386W        W17860   3.072   4.290   6.224 -0.1601  0.1018 -0.4583
 1387W        W17861  12.752  14.762   1.335 -0.3081  0.1451  0.4227
 1388W        W17862   6.626   4.920  14.286 -0.2447  0.0936  0.2816
 1389W        W17863  17.149  17.333   1.764  0.1202  0.1587  0.0244
 1390W        W17864  13.976   8.562   1.190  0.0919  0.1309 -0.0066
 1391W        W17865   0.743  11.261  12.134 -0.1235  0.3256 -0.1402
 1392W        W17866   9.475   5.995  11.845  0.0376 -0.2456 -0.2228
 1393W        W17867  14.088   5.597  13.435  0.2983  0.0952  0.2164
 1394W        W17868  10.205   0.589   4.612  0.1331 -0.0848 -0.0746
 1395W        W17869   8.752   8.718   3.490 -0.0536  0.0311  0.5090
 1396W        W17870   8.028   1.179   2.073  0.1768  0.1962 -0.1599
 1397W        W17871   9.300   1.712  15.703  0.0032  0.0967  0.3113
 1398W        W17872   1.659  17.351  12.165  0.3841 -0.1382  0.1866
 1399W        W17873   5.677  15.221  13.105  0.1393 -0.1733  0.0889
 1400W        W17874  11.066   3.219   0.432  0.0686 -0.0611 -0.3125
 1401W        W17875  13.783   2.316   0.329 -0.1985  0.0553  0.0251
 1402W        W17876   4.385   8.148   2.615  0.1543  0.0698  0.4985
 1403W        W17877  16.771  16.641  15.374  0.1581  0.0064  0.1377
 1404W        W17878  17.402   2.543  12.902 -0.1021  0.0227  0.1977
 1405W        W17879   9.181   2.895  15.482 -0.0524 -0.0397  0.1545
 1406W        W17880  14.712   4.514  13.470 -0.0229 -0.2434  0.1048
 1407W        W17881   1.713  16.218   5.257 -0.1235  0.0520  0.2347
 1408W        W17882  10.063   3.617  11.706  0.0036  0.0438  0.0719
 1409W        W17883   3.840   4.196   2.316  0.0262 -0.0726 -0.0616
 1410W        W17884   7.858  11.848   2.174 -0.0516  0.0410  0.0208
 1411W        W17885   0.258   3.814   1.855  0.3878 -0.0102 -0.0595
 1412W        W17886  12.360  13.520   5.425  0.0164  0.2188 -0.2849
 1413W        W17887  16.937  10.344  14.264 -0.0985 -0.2406 -0.1343
 1414W        W17888   2.069   4.364  13.743  0.2659  0.2337  0.2219
 1415W        W17889   7.204  10.643   2.488 -0.2940  0.0608  0.2314
 1416W        W17890  14.568   6.237   1.629  0.3592 -0.0376 -0.2736
 1417W        W17891   9.059   3.678   5.142 -0.1897 -0.1873  0.0739
 1418W        W17892   4.035   5.522  13.386  0.2912 -0.0983 -0.1965
 1419W        W17893  15.696  10.278  12.435  0.2102 -0.1504  0.4064
 1420W        W17894  12.943  11.707   0.935 -0.1733 -0.0362  0.0691
 1421W        W17895  17.289  14.716  12.319  0.1783 -0.0317  0.1316
 1422W        W17896  15.286  16.964   5.289  0.2691 -0.1952  0.1679
 1423W        W17897  10.548  15.383   2.952 -0.1113 -0.2744  0.0726
 1424W        W17898   4.082  16.617  16.434 -0.2803 -0.0861  0.1749
 1425W        W17899   5.547   4.608   2.253 -0.2706 -0.2719  0.0133
 1426W        W17900  10.267   0.573  12.398 -0.0326 -0.1275 -0.1461
 1427W        W17901   7.238  11.076  12.844  0.0908  0.0670 -0.0533
 1428W        W17902   9.932   5.163  16.419  0.0837  0.1460  0.2513
 1429W        W17903  10.488   4.092  13.255 -0.2425 -0.0022  0.0365
 1430W        W17904   1.856  16.857   5.345  0.1188  0.0288  0.2557
 1431W        W17905   3.912  14.495   1.280  0.1943  0.1999 -0.1172
 1432W        W17906   6.678   4.966   3.505 -0.2244 -0.2703  0.0777
 1433W        W17907  11.297   0.030  12.467  0.0503 -0.0033 -0.1659
 1434W        W17908   7.073  14.774  12.058 -0.2796 -0.4997 -0.0731
 1435W        W17909   7.844   0.412   1.032  0.0613  0.1237  0.1136
 1436W        W17910   1.254   1.895  11.910 -0.0273  0.1833  0.1399
 1437W        W17911  14.198   9.968   4.390 -0.0530 -0.1638 -0.2274
 1438W        W17912   3.231  16.305  14.265 -0.2081 -0.0783  0.0970
 1439W        W17913   0.614  16.786   2.076 -0.0720 -0.0433 -0.2416
 1440W        W17914  10.019  17.351  12.456 -0.0108 -0.1800 -0.3849
 1441W        W17915  17.018   6.009   5.299  0.2101 -0.0559 -0.0833
 1442W        W17916  14.144  12.656  12.383  0.1440  0.2130  0.1242
 1443W        W17917   9.330  16.196   3.222 -0.3967  0.2556  0.1096
 1444W        W17918  10.872   4.079   4.620 -0.2334  0.0059  0.1304
 1445W        W17919  17.739   2.239   3.363 -0.0282 -0.1576 -0.0016
 1446W        W17920  16.513   7.716   2.177  0.0194 -0.0613  0.2326
 1447W        W17921   5.061   2.076   0.322 -0.0575 -0.1234  0.0582
 1448W        W17922   9.244  14.797  12.412 -0.0337 -0.1555  0.3475
 1449W        W17923   2.393   3.293  14.551 -0.1809  0.1132  0.3933
 1450W        W17924  13.989   7.810  13.276 -0.1761  0.0728  0.0631
 1451W        W17925   7.580  10.225  15.919  0.1387  0.0675 -0.0649
 1452W        W17926   2.336  15.938   6.155 -0.1031 -0.1676 -0.0220
 1453W        W17927   0.392  12.815  14.285  0.1545 -0.2562  0.0158
 1454W        W17928   8.057   6.295   4.149  0.3019 -0.0754  0.1626
 1455W        W17929  17.503   3.263   4.422 -0.1661  0.0464 -0.0151
 1456W        W17930   3.659   2.782  12.992 -0.2131  0.1057  0.0587
 1457W        W17931  13.841   4.827  15.226  0.2100  0.2039  0.0264
 1458W        W17932   8.240   6.513  14.737 -0.1360 -0.2655  0.3129
 1459W        W17933  12.969   4.538   6.759  0.1338  0.2002  0.2102
 1460W        W17934   6.938   5.749  13.608  0.0420 -0.1317 -0.0153
 1461W        W17935  15.697  13.850  14.384  0.1691 -0.1592 -0.1426
 1462W        W17936   4.692  15.736  15.843 -0.1420  0.6127  0.2684
 1463W        W17937   0.123   8.421   5.390 -0.0004  0.0034  0.0019
 1464W        W17938   2.480   9.848  13.241  0.0279  0.2010  0.0135
 1465W        W17939   5.365  10.187   5.064  0.2991  0.2542  0.0977
 1466W        W17940   0.612  13.233  14.462  0.0419  0.0227  0.0619
 1467W        W17941  13.143  10.802   5.429 -0.0439 -0.1178 -0.0040
 1468W        W17942  15.369   9.961   4.751  0.0615 -0.0354  0.1199
 1469W        W17943   8.626   0.248  11.740  0.0608 -0.3020  0.1109
 1470W        W17944  16.484   1.594  14.516 -0.2203 -0.1089 -0.2054
 1471W        W17945   9.658  10.440   1.457 -0.0344  0.1517  0.0774
 1472W        W17946  13.204  13.188  16.445  0.0137  0.2208 -0.0594
 1473W        W17947   1.115  13.536  16.248  0.0648 -0.1312 -0.0027
 1474W        W17948  10.254  14.867  13.615  0.3735  0.2846  0.0786
 1475W        W17949  16.519   8.697  14.606 -0.1283  0.1563 -0.2295
 1476W        W17950  15.700  15.912   3.027  0.0969 -0.4419 -0.1283
 1477W        W17951  15.878   0.121   4.092 -0.0420 -0.0217 -0.0390
 1478W        W17952   6.367   3.844  16.542  0.0460  0.1046 -0.0702
 1479W        W17953  11.809   6.294   0.494 -0.0381 -0.3808  0.3830
 1480W        W17954  15.512   1.409  12.422 -0.1371  0.1661  0.3111
 1481W        W17955   6.430   3.111   1.613  0.2963 -0.2472  0.1483
 1482W        W17956   7.304  15.069   3.252  0.0850  0.1258 -0.1613
 1483W        W17957   6.053  15.206   0.066  0.1316  0.2794 -0.3145
 1484W        W17958   4.480  17.003  16.567  0.2009  0.1858 -0.1256
 1485W        W17959   3.622  14.534  15.896 -0.1880 -0.2564 -0.0871
 1486W        W17960   0.565   7.125  12.278  0.1936 -0.1910  0.1267
 1487W        W17961   4.419  17.567   5.580 -0.3320  0.0331  0.2562
 1488W        W17962  13.573   4.421   1.950  0.3093  0.4423 -0.0135
 1489W        W17963  12.302  11.498  12.544 -0.0369 -0.0626 -0.3461
 1490W        W17964   0.771  11.822   4.495 -0.2587  0.0332  0.2446
 1491W        W17965   6.078   7.255  13.381 -0.0229 -0.1777  0.0232
 1492W        W17966   1.262  12.490  14.493 -0.2262 -0.1522 -0.2780
 1493W        W17967  15.009   7.372   3.901 -0.1202 -0.1363 -0.0597
 1494W        W17968   4.730  14.848   3.782  0.2088 -0.1347  0.3057
 1495W        W17969   1.146  16.463   5.485 -0.3357  0.1667 -0.3950
 1496W        W17970   7.411   0.594  15.041 -0.1542  0.4112 -0.0541
 1497W        W17971   0.838  12.018  13.346 -0.3184  0.1579 -0.1832
 1498W        W17972   6.469   5.196  14.817 -0.1488 -0.0987 -0.0453
 1499W        W17973  13.568  15.153   3.052 -0.0128 -0.0559  0.3646
 1500W        W17974   9.543  15.026   3.568  0.0910 -0.1750  0.3583
 1501W        W17975  12.443   7.483   2.902  0.3184 -0.1746  0.2160
 1502W        W17976  15.956   9.766  14.901 -0.0181  0.0960  0.5720
 1503W        W17977  13.195   4.838   0.761  0.1889  0.4435 -0.0052
 1504W        W17978  15.708  11.124  16.041  0.3539 -0.0866 -0.0389
 1505W        W17979  13.202   5.426   1.403 -0.2462 -0.1769 -0.1272
 1506W        W17980   9.177  12.949   5.592  0.2011 -0.1103  0.1437
 1507W        W17981  17.285   9.863  15.220 -0.0785 -0.2663  0.0555
 1508W        W17982   2.758   6.184   2.959  0.2065 -0.2796 -0.0499
 1509W        W17983   2.860   6.720   0.238  0.0808  0.2710  0.1464
 1510W        W17984   1.359  12.461   4.801  0.0546  0.0071  0.1624
 1511W        W17985  11.589   9.634   2.847 -0.0552  0.1639  0.0735
 1512W        W17986   0.793   8.196   3.242 -0.0133 -0.0988 -0.2523
 1513W        W17987   7.449  15.405   0.431  0.1420  0.1556 -0.0885
 1514W        W17988  12.934  16.482   4.741 -0.0469 -0.0641  0.2286
 1515W        W17989   6.624  10.813   1.146 -0.0313 -0.1370  0.3724
 1516W        W17990  12.898  16.020  13.519 -0.0637  0.0328  0.0458
 1517W        W17991   3.773   7.718   5.406  0.1771 -0.0977  0.1398
 1518W        W17992   0.297   9.033   3.516 -0.1458 -0.0439  0.0095
 1519W        W17993  13.145   6.638   4.511 -0.1456 -0.0081 -0.2421
 1520W        W17994  10.849  11.488   6.168  0.0357  0.0049 -0.1459
 1521W        W17995   2.617   8.089   5.227 -0.0273  0.2203 -0.0046
 1522W        W17996   6.535  16.528   3.848 -0.1208 -0.1101 -0.0114
 1523W        W17997   8.872   2.836  14.569 -0.0268  0.0995  0.3569
 1524W        W17998   0.542  17.353  15.614 -0.0376 -0.1541  0.1011
 1525W        W17999   2.098   4.484   4.184 -0.0897 -0.1583  0.0564
 1526W        W18000  15.548  15.419   1.629  0.1654  0.0331 -0.2307
 1527W        W18001   5.416   4.346   4.250  0.0378  0.2403 -0.0027
 1528W        W18002   1.778  11.469  11.315 -0.0171 -0.0669 -0.1782
 1529W        W18003   5.498  16.393  15.874  0.1402  0.1159 -0.1831
 1530W        W18004   3.394  13.463  11.831  0.0191 -0.0577  0.2644
 1531W        W18005   8.284  17.036   4.224 -0.2438 -0.2560  0.2375
 1532W        W18006  16.602  17.178   5.518 -0.0703 -0.0241 -0.1014
 1533W        W18007   1.297   5.271   3.248 -0.0180  0.3639  0.1176
 1534W        W18008  12.865   9.393  15.974  0.0922  0.0145  0.1541
 1535W        W18009   7.599  14.329   2.886  0.1641  0.0542  0.0656
 1536W        W18010   0.384  12.040   4.242  0.4675 -0.1415 -0.0290
 1537W        W18011   4.510   3.988  16.116 -0.1718  0.3306  0.1117
 1538W        W18012  14.600   5.930   5.921  0.3810 -0.0909  0.0521
 1539W        W18013   6.566  16.904  11.740  0.0903 -0.0971  0.1752
 1540W        W18014  12.500  16.987   4.190 -0.0452  0.2561  0.1786
 1541W        W18015   9.935  17.764  16.576 -0.0258  0.0222  0.2716
 1542W        W18016   8.487   3.612   3.466  0.0561  0.2737  0.0199
 1543W        W18017   1.388  14.050  13.442  0.0621 -0.0745 -0.0818
 1544W        W18018   8.899   2.351  12.688 -0.0046 -0.0670 -0.1072
 1545W        W18019  17.280   0.607   3.950  0.0520  0.0937  0.3324
 1546W        W18020  13.253  14.097   5.118  0.2037 -0.1758 -0.0722
 1547W        W18021  10.674   7.525  14.656 -0.1355  0.0458  0.0566
 1548W        W18022   7.114  15.859  16.583 -0.0222  0.0354 -0.0310
 1549W        W18023   2.641  13.043   3.655 -0.5937 -0.0356 -0.0156
 1550W        W18024   8.714   0.886   4.993  0.0873  0.0891 -0.0145
 1551W        W18025   1.321   9.949  13.130  0.1072 -0.0680  0.0805
 1552W        W18026   6.734  11.187   0.821  0.0581 -0.0204  0.0551
 1553W        W18027   1.947  16.799  13.720  0.3140 -0.1102  0.1836
 1554W        W18028  13.512  15.435   0.196  0.1090  0.1255 -0.0743
 1555W        W18029   0.615   7.443   1.125 -0.0489 -0.0006  0.0722
 1556W        W18030  14.150  16.921  13.741  0.1291 -0.0517  0.0707
 1557W        W18031  14.192   7.680  12.810 -0.2080  0.2104  0.0993
 1558W        W18032   8.796  15.157  11.778  0.2622 -0.2107 -0.2310
 1559W        W18033  17.721  11.071  12.614 -0.0484  0.2400  0.0434
 1560W        W18034   2.027  17.709   2.562  0.1229  0.0712 -0.1701
 1561W        W18035  13.492   8.983  13.889 -0.0151 -0.4209  0.2767
 1562W        W18036   8.072  15.958  13.894 -0.1142  0.1008 -0.1128
 1563W        W18037   0.008  10.901  14.162  0.0362 -0.1684 -0.1640
 1564W        W18038   2.045   1.285  15.701 -0.0345  0.4379  0.0422
 1565W        W18039   4.870   9.958   4.237 -0.0434  0.1086 -0.2386
 1566W        W18040   0.933   9.732   0.871 -0.3128 -0.1355  0.2191
 1567W        W18041  13.101  15.353   3.485 -0.0800  0.0129  0.0551
 1568W        W18042  15.997   6.844   2.785 -0.1269 -0.2186  0.0088
 1569W        W18043  10.960  16.326   2.816 -0.0932 -0.2239 -0.0836
 1570W        W18044  15.995  14.098   3.605 -0.1132 -0.0640  0.2575
 1571W        W18045   8.355   6.665  13.307  0.1531  0.0226 -0.1607
 1572W        W18046  14.686  13.937  12.660 -0.0435  0.2145  0.0312
 1573W        W18047   5.065  10.875   5.523 -0.0416 -0.0485 -0.1417
 1574W        W18048   4.641   2.169   1.808 -0.2831 -0.2235 -0.1538
 1575W        W18049  16.103  14.228   4.097  0.2768  0.0976  0.0068
 1576W        W18050  16.691   5.338  15.684 -0.1946 -0.1337 -0.3126
 1577W        W18051   2.485  16.526  11.251  0.1680  0.3619  0.0461
 1578W        W18052  12.997   7.487   2.907 -0.1661  0.2403 -0.1667
 1579W        W18053   7.892  15.778  11.843  0.2183 -0.1442 -0.1468
 1580W        W18054  15.642  16.040  13.713 -0.2593 -0.3344 -0.2597
 1581W        W18055   9.353  10.248  16.156  0.2094  0.1567 -0.0632
 1582W        W18056  16.772   2.613  15.120  0.0390  0.0478  0.1040
 1583W        W18057  12.370  16.114   0.225 -0.0874  0.0108  0.1533
 1584W        W18058   3.996   6.384   0.691  0.3414 -0.2012 -0.3440
 1585W        W18059  11.668   5.960  15.032 -0.0617  0.1161 -0.3285
 1586W        W18060   5.725  11.293  11.791  0.2781 -0.1058  0.0877
 1587W        W18061  11.732   1.308  13.032  0.0377  0.1779 -0.0785
 1588W        W18062   9.845   4.882  11.690  0.0040  0.2664 -0.1485
 1589W        W18063   4.893   0.415   4.157  0.1288 -0.2554 -0.1011
 1590W        W18064  15.437  17.333   2.367 -0.0880 -0.0947 -0.2478
 1591W        W18065   3.027  12.379  11.464  0.0404 -0.1041 -0.0419
 1592W        W18066   5.439  14.611   2.063 -0.0206  0.2547  0.0183
 1593W        W18067   7.426  11.192  15.237 -0.2784 -0.0753 -0.0832
 1594W        W18068  11.251  11.828  13.811  0.1574 -0.1622 -0.0326
 1595W        W18069  14.956   4.958  13.690  0.0821  0.1838 -0.0758
 1596W        W18070  17.575  10.188  12.993  0.3051  0.0472 -0.2024
 1597W        W18071   0.826   7.531  16.322 -0.2208 -0.0093 -0.1823
 1598W        W18072   5.784  10.658  16.906  0.0571  0.0346 -0.0573
 1599W        W18073  15.426   6.106  15.183 -0.0731 -0.0434  0.1161
 1600W        W18074   9.899  13.625  12.555 -0.0544  0.0963  0.1153
 1601W        W18075   9.704  17.086  12.084  0.3137  0.0487 -0.2442
 1602W        W18076  13.158  14.429   3.270 -0.0233 -0.0197 -0.2610
 1603W        W18077  14.702   5.014   2.252 -0.2841 -0.2305  0.0490
 1604W        W18078   5.616   9.686  16.456  0.0750 -0.1732  0.0867
 1605W        W18079   7.764   4.356  10.673  0.1740  0.2374 -0.0893
 1606W        W18080   5.611   1.595   1.294  0.1462 -0.0660  0.1012
 1607W        W18081  14.410   3.784   5.050  0.0394  0.2212  0.2707
 1608W        W18082   2.362  13.827   2.232  0.0631  0.2293  0.2500
 1609W        W18083  14.885  16.710  15.265  0.1284 -0.1036  0.0536
 1610W        W18084   3.835  16.799  11.601  0.3085  0.0584 -0.3081
 1611W        W18085  14.820  17.708   5.844  0.0234 -0.2981  0.0233
 1612W        W18086  12.980   3.058   2.607  0.1672 -0.0829 -0.0870
 1613W        W18087   4.868  14.629  16.916  0.0149  0.1295 -0.1176
 1614W        W18088   2.713   0.168   3.630 -0.1322 -0.2639 -0.0953
 1615W        W18089  14.781   0.460   0.314 -0.0626 -0.0515 -0.1681
 1616W        W18090   6.649  13.454  10.834 -0.0179  0.0115  0.0273
 1617W        W18091  13.429  17.646   0.980 -0.2411 -0.0389  0.0467
 1618W        W18092   1.816  12.371   2.806  0.3075  0.0369 -0.0671
 1619W        W18093   4.685  13.310  16.296 -0.0864  0.0394 -0.2925
 1620W        W18094   7.227  11.189   0.910 -0.3894  0.0758 -0.0406
 1621W        W18095  10.542   9.077  12.593 -0.0009  0.0040 -0.1788
 1622W        W18096  11.966   3.558  16.575 -0.1692 -0.1626 -0.0335
 1623W        W18097   4.149  14.562   3.423 -0.2166  0.2831  0.4647
 1624W        W18098  11.632  15.973  16.424  0.2551 -0.0625  0.2741
 1625W        W18099   3.921   4.452  15.903  0.0988 -0.1332 -0.1214
 1626W        W18100  15.807  12.284   2.862 -0.0056 -0.2553 -0.1899
 1627W        W18101  14.476   5.887  15.092  0.0885  0.0873 -0.0521
 1628W        W18102   4.671   3.168   2.762  0.0455 -0.1435  0.2770
 1629W        W18103   2.288  16.492  12.491 -0.1189 -0.1387 -0.2773
 1630W        W18104  13.242   6.892  16.134  0.0048  0.1057 -0.1653
 1631W        W18105   6.235  16.068  12.341  0.2220 -0.1593  0.1256
 1632W        W18106  14.036   5.018  12.741  0.0378 -0.2516  0.2974
 1633W        W18107  13.188  12.439   4.447 -0.1646 -0.0990 -0.0388
 1634W        W18108  11.858   3.165  14.278 -0.0473 -0.1713  0.0204
 1635W        W18109  12.935  12.994  14.694 -0.0435  0.3864 -0.1129
 1636W        W18110   7.118   3.223  12.176 -0.1005 -0.2034 -0.0201
 1637W        W18111  15.430  16.015  11.798 -0.1508 -0.3516 -0.0413
 1638W        W18112   5.680   4.755  14.866 -0.1045 -0.1674 -0.1736
 1639W        W18113   6.808   7.993  12.977 -0.1593 -0.1822  0.0801
 1640W        W18114   9.520  10.616  12.454  0.0991  0.0863 -0.1605
 1641W        W18115   7.480   7.616  14.815  0.0543 -0.0887  0.2395
 1642W        W18116   7.630  16.479   2.622 -0.2501 -0.1131 -0.1615
 1643W        W18117  16.230  14.112   2.632  0.0352  0.1935 -0.0228
 1644W        W18118  11.644  17.618   1.031  0.2126 -0.0042 -0.0840
 1645W        W18119  11.194   0.827   0.948 -0.2851 -0.0823 -0.0891
 1646W        W18120  16.650  16.449  13.074 -0.0099 -0.1672  0.0229
 1647W        W18121   7.010  13.975   2.346  0.0161 -0.2268  0.0254
 1648W        W18122   1.725   9.937  14.924  0.3432  0.0120  0.2658
 1649W        W18123   1.464  11.453  13.817 -0.3099  0.0597 -0.1701
 1650W        W18124   4.451   6.119   0.735  0.0418 -0.3467 -0.2732
 1651W        W18125   2.490   4.437  12.187 -0.0227 -0.1896 -0.0481
 1652W        W18126   1.452   5.991  15.473  0.1928 -0.0322  0.1859
 1653W        W18127  12.919  15.061  14.146  0.2468 -0.1380  0.1707
 1654W        W18128   6.191   5.893  12.464 -0.2179 -0.1196  0.2383
 1655W        W18129  10.207  11.477   0.317  0.1083 -0.1430 -0.0498
 1656W        W18130  12.727   4.661   2.093 -0.0624  0.1417 -0.1162
 1657W        W18131   3.500   9.246  12.960  0.0790  0.0636  0.2063
 1658W        W18132   0.227  11.790   0.090  0.0004  0.0762 -0.1945
 1659W        W18133   4.185   1.238   3.760  0.2963  0.0909  0.0494
 1660W        W18134   0.766   7.740   3.592 -0.0799  0.1516 -0.0076
 1661W        W18135   7.116   4.894  13.382 -0.0143 -0.1317  0.1219
 1662W        W18136   6.577  12.425   1.881  0.2608 -0.0577  0.0041
 1663W        W18137  15.331   8.095  14.824 -0.1209 -0.2177 -0.1138
 1664W        W18138   7.732   2.084   4.674  0.1578  0.2381  0.4617
 1665W        W18139   9.947   5.841   3.207 -0.0977  0.2300 -0.2805
 1666W        W18140   1.246  15.949  15.521 -0.3003 -0.1243  0.0657
 1667W        W18141   6.999   0.542  13.500  0.1249  0.3087  0.1204
 1668W        W18142  16.048   5.684   3.699  0.0161  0.0420  0.1392
 1669W        W18143   3.674  13.081   2.056  0.0505 -0.0918  0.3204
 1670W        W18144   2.158   8.666  12.213 -0.2058  0.0737 -0.1361
 1671W        W18145  10.138   6.626  16.792 -0.2648 -0.2250 -0.1301
 1672W        W18146   9.067  14.855   0.036 -0.3496  0.0775  0.2985
 1673W        W18147   2.021  14.179   4.242 -0.0535  0.1188 -0.2278
 1674W        W18148  13.438   8.772  11.378 -0.1337 -0.1913 -0.1613
 1675W        W18149   4.483  10.791  13.438 -0.0889  0.0227 -0.0981
 1676W        W18150   5.791   5.496   4.915 -0.2223  0.0386  0.0994
 1677W        W18151  15.020   4.659   1.972  0.0279 -0.2782 -0.1006
 1678W        W18152   8.017  11.447   4.215 -0.0089 -0.1383 -0.2984
 1679W        W18153  17.008   1.626  12.639 -0.1099 -0.0710 -0.0893
 1680W        W18154   6.357  13.975   3.727  0.0721 -0.1050  0.0602
 1681W        W18155  10.171   7.794  11.786 -0.0974  0.2243 -0.0544
 1682W        W18156  16.601  13.877  11.654  0.1922  0.0309  0.0218
 1683W        W18157  12.715   6.258   3.225  0.0060  0.0398  0.1082
 1684W        W18158   5.899  17.799   0.432  0.2401  0.1543  0.0255
 1685W        W18159  17.448  14.304  16.616 -0.0707 -0.1633 -0.0665
 1686W        W18160   5.709   1.909   0.342 -0.2472  0.0458 -0.0971
 1687W        W18161   5.644   2.228  14.445  0.1325 -0.0061  0.1757
 1688W        W18162   9.818   9.407  13.261 -0.3386 -0.1980  0.0577
 1689W        W18163   8.428  12.866  14.821  0.0414  0.2131 -0.0065
 1690W        W18164   5.747   5.926  12.209  0.2536  0.3877  0.2296
 1691W        W18165   6.876   3.866   5.323  0.0475 -0.0507 -0.0539
 1692W        W18166  12.560   6.064   2.106 -0.0896  0.0336 -0.1375
 1693W        W18167  13.691   9.731   4.970  0.1149  0.0585 -0.1566
 1694W        W18168  10.214  14.239  13.546  0.0543  0.0110  0.1279
 1695W        W18169   9.555   6.977  12.764  0.0498 -0.0555  0.3474
 1696W        W18170   4.491  12.591   1.251 -0.0701 -0.1844 -0.0230
 1697W        W18171   4.670   7.078   3.786 -0.2428  0.1571  0.1764
 1698W        W18172  10.779  16.242  12.588 -0.3491  0.2394  0.2591
 1699W        W18173  13.008   1.829  13.498 -0.0357  0.0879 -0.0195
 1700W        W18174  10.230   2.033   3.072 -0.5283 -0.1279 -0.2481
 1701W        W18175  11.154  13.189  14.502 -0.1624 -0.1160 -0.3013
 1702W        W18176   1.146   5.115   0.912  0.2418 -0.0206  0.2485
 1703W        W18177  14.293  12.608   4.892 -0.3040 -0.0181 -0.0584
 1704W        W18178   3.697  14.684  14.754  0.4958  0.2136  0.1400
 1705W        W18179  14.546   9.841   1.976 -0.0156 -0.1059 -0.1090
 1706W        W18180   1.521   3.644   5.643 -0.0448 -0.0317 -0.0542
 1707W        W18181  13.974   7.937  16.165 -0.0101 -0.1055 -0.0361
 1708W        W18182   8.049   1.001  14.291 -0.2344 -0.1932  0.1581
 1709W        W18183   8.224  15.065  16.111 -0.0522 -0.0540 -0.2040
 1710W        W18184  11.828   2.448  14.941 -0.1625 -0.0064 -0.1514
 1711W        W18185   4.961  11.551  14.764 -0.0285 -0.1748  0.4382
 1712W        W18186  14.134   5.796  14.251 -0.0774 -0.0719  0.3923
 1713W        W18187   0.161   7.403  16.718  0.1557  0.3035  0.1495
 1714W        W18188   2.156   5.959   3.000  0.0757  0.0154  0.0249
 1715W        W18189   8.360  14.006   2.362 -0.0841  0.2353  0.0077
 1716W        W18190  17.413   9.848  12.164  0.0416 -0.1659  0.0532
 1717W        W18191   6.284  15.049  15.832  0.0163  0.0297  0.4292
 1718W        W18192  16.377   7.721   3.798 -0.2161 -0.0184 -0.3662
 1719W        W18193  15.174   8.031   5.384 -0.1591  0.1319  0.1328
 1720W        W18194  15.778  13.254  12.263 -0.3102  0.0615  0.2664
 1721W        W18195   2.882   2.100  13.007 -0.0354  0.0305 -0.0069
 1722W        W18196  15.044  10.435  13.489 -0.1726 -0.2379 -0.1301
 1723W        W18197   8.021  10.274   5.865 -0.2297  0.1474  0.0343
 1724W        W18198   7.266  11.933  13.658 -0.1772 -0.0542  0.2329
 1725W        W18199  13.191  15.011   2.628  0.1498 -0.2038  0.3628
 1726W        W18200  10.126   5.404   0.385  0.1062 -0.0653 -0.4060
 1727W        W18201  16.965   3.626   1.063  0.0807 -0.0379  0.0966
 1728W        W18202   0.386  14.515  15.576  0.2274 -0.1074  0.1331
 1729W        W18203  15.615  14.435   3.414 -0.0402 -0.2943 -0.0244
 1730W        W18204   3.510  14.746  12.672 -0.0147  0.1377  0.2458
 1731W        W18205  10.480  12.654   4.806  0.0233 -0.5281 -0.0735
 1732W        W18206  15.909  16.902  16.625  0.2771  0.1803 -0.0305
 1733W        W18207   7.808   6.595   5.595  0.0082  0.1029 -0.1060
 1734W        W18208  10.501   3.706   2.323  0.0998 -0.1460  0.1723
 1735W        W18209  15.380  16.730  13.007 -0.0022  0.1965  0.2647
 1736W        W18210   8.999  10.169  15.718 -0.0783 -0.1709 -0.0348
 1737W        W18211   9.707   7.827   1.940  0.2184 -0.0048 -0.0902
 1738W        W18212   6.011   9.779  11.702 -0.0685 -0.0772  0.2034
 1739W        W18213   4.257   7.601   5.523 -0.2880 -0.1056 -0.2017
 1740W        W18214  16.232   7.427  12.485  0.2168  0.2054 -0.1030
 1741W        W18215   8.500  16.391   0.168  0.1190  0.1094  0.0636
 1742W        W18216   7.592   8.081  15.227 -0.0864 -0.1246 -0.0842
 1743W        W18217  11.010  15.794  13.868  0.1874 -0.1572 -0.1800
 1744W        W18218  10.089  16.815  13.260  0.2992  0.2229 -0.1724
 1745W        W18219  15.504  13.799  13.223  0.0143  0.0180 -0.0806
 1746W        W18220   9.924  17.405   4.841  0.0837  0.0097 -0.0699
 1747W        W18221   7.663   7.775   0.229  0.0110  0.0655 -0.3125
 1748W        W18222   0.171  16.103  13.238  0.0793  0.0409  0.2000
 1749W        W18223   8.094  17.584  16.253 -0.1168  0.0965 -0.0487
 1750W        W18224   7.985   9.900   0.273 -0.3092  0.0949  0.3217
 1751W        W18225  13.160   3.236   1.059 -0.2205 -0.1270  0.0860
 1752W        W18226  12.981  10.796   2.112 -0.0003 -0.0489 -0.0159
 1753W        W18227   0.361  12.475  11.167 -0.3842 -0.1271  0.1105
 1754W        W18228   9.853  10.873  14.204 -0.2063  0.0488 -0.0500
 1755W        W18229   8.388   7.055  14.807  0.0263  0.0735 -0.0722
 1756W        W18230   2.822   5.918   4.249 -0.1406  0.2828  0.2033
 1757W        W18231   8.441   3.237  16.121  0.1219  0.3353  0.1219
 1758W        W18232  17.270  12.967  16.380  0.3575  0.3774 -0.0969
 1759W        W18233   6.608  16.824   1.397  0.0588  0.3417  0.0964
 1760W        W18234  10.238   1.259   4.294 -0.1255 -0.0565  0.1375
 1761W        W18235   4.293   3.622   1.087  0.2152 -0.2606 -0.0025
 1762W        W18236   3.154  10.027  12.028  0.0485  0.1326  0.2344
 1763W        W18237  14.991  13.077  16.032  0.3574  0.0576 -0.0094
 1764W        W18238   4.448   4.160  15.080  0.1261 -0.1483 -0.1382
 1765W        W18239   8.815  12.618  12.753  0.0888 -0.0641 -0.1092
 1766W        W18240  16.569  10.292  12.786 -0.1423 -0.0487  0.0688
 1767W        W18241   3.305  13.189  13.983  0.0647 -0.1464  0.2226
 1768W        W18242   8.025   0.263  16.234 -0.4300  0.2345 -0.1375
 1769W        W18243   5.343  12.706  12.552  0.0254 -0.0918  0.2021
 1770W        W18244  13.770   9.313  12.965  0.3012 -0.2567  0.0188
 1771W        W18245   8.005  13.439  15.349  0.2788  0.3174  0.1905
 1772W        W18246   8.327   1.381  15.660 -0.1353 -0.0549  0.1201
 1773W        W18247   8.265  12.120  16.050  0.1610  0.3329 -0.0531
 1774W        W18248  12.671  13.422  10.916 -0.1170 -0.0172 -0.0428
 1775W        W18249   9.737  14.039  13.498 -0.3560 -0.2988 -0.2394
 1776W        W18250   2.458  16.721  12.914  0.2927  0.0785  0.1643
 1777W        W18251  11.090   6.945  12.349  0.1840  0.2008 -0.2088
 1778W        W18252   8.557   1.404  12.135  0.0972 -0.2397  0.1541
 1779W        W18253   4.447   9.750   0.426  0.0769  0.1200 -0.0859
 1780W        W18254  15.464   2.659  15.029  0.2192  0.3645  0.1948
 1781W        W18255   0.718   4.489   1.765 -0.1126 -0.0998  0.1626
 1782W        W18256   8.910  16.577   3.197 -0.0364  0.0791  0.0320
 1783W        W18257   8.690  17.748   4.201 -0.2228 -0.1320  0.0020
 1784W        W18258   2.464   4.883  15.963  0.0285 -0.1748 -0.0750
 1785W        W18259   3.346   1.247   5.167 -0.0327 -0.1751 -0.1588
 1786W        W18260  13.333   7.450  12.612 -0.2573 -0.0252 -0.1233
 1787W        W18261   8.190  10.370   0.030  0.1496  0.2949 -0.0773
 1788W        W18262   3.624  14.884   4.613  0.0973 -0.2012 -0.2232
 1789W        W18263   5.546   5.889  14.438  0.0884 -0.1197  0.0906
 1790W        W18264   5.350   0.209  14.963 -0.1800 -0.3752 -0.1162
 1791W        W18265   6.736  10.353  14.102  0.1535  0.0120 -0.0225
 1792W        W18266  14.323   0.719   3.360  0.2515  0.1774  0.3155
 1793W        W18267  13.706  14.694  14.855 -0.2577 -0.1664  0.0114
 1794W        W18268   5.757   5.275   5.370  0.2980  0.0916 -0.0932
 1795W        W18269   8.909   8.808   4.404 -0.0841 -0.1914 -0.0166
 1796W        W18270  11.135  10.751   5.212  0.1671 -0.1183 -0.1501
 1797W        W18271   8.634   6.685   2.160 -0.1242 -0.0969  0.0861
 1798W        W18272  15.353  16.755   2.291  0.1916  0.0219 -0.1320
 1799W        W18273  11.543   7.551  13.241  0.0570  0.0990 -0.1917
 1800W        W18274   5.830  15.897   0.009  0.1923 -0.1262 -0.0992
 1801W        W18275   6.400   6.383   5.059 -0.0211 -0.2310  0.0709
 1802W        W18276   3.897   1.991   5.341 -0.1089  0.2079  0.2321
 1803W        W18277  17.154   5.563  15.629  0.3663  0.2754 -0.1481
 1804W        W18278   6.659   6.704   3.435  0.1198 -0.0907 -0.0654
 1805W        W18279   8.780  11.428   2.449 -0.0240 -0.0623 -0.2938
 1806W        W18280  15.190   8.275  11.683  0.3136  0.2853  0.1018
 1807W        W18281   3.252   3.300   1.057 -0.0065 -0.1243  0.3642
 1808W        W18282  16.754   0.985   1.023  0.1297  0.2223  0.0643
 1809W        W18283   3.007   2.366  16.431  0.0984  0.0922  0.2143
 1810W        W18284   6.119   7.131   0.290 -0.0132 -0.0845  0.2927
 1811W        W18285   4.829   0.994   5.110 -0.0082 -0.0034  0.5300
 1812W        W18286  12.427   0.565   5.102 -0.1308  0.0730  0.1385
 1813W        W18287   8.327   5.228   2.305 -0.0727  0.3009  0.3120
 1814W        W18288   9.958  13.594   5.326  0.0317 -0.1570  0.1894
 1815W        W18289  17.740  17.231  12.690  0.0550  0.0803  0.3115
 1816W        W18290   9.335   7.036   0.568 -0.0914  0.0798  0.1475
 1817W        W18291   8.389  15.280   0.555 -0.4586 -0.0715 -0.0223
 1818W        W18292   8.301  10.264  11.538  0.1392 -0.1444 -0.1647
 1819W        W18293   2.099   6.730  13.750  0.1814 -0.1236  0.1730
 1820W        W18294   1.403   5.818  14.140 -0.0496  0.0910  0.3068
 1821W        W18295  11.365  11.642  14.929  0.0319  0.2804 -0.0992
 1822W        W18296  13.980   1.091   2.171 -0.0183  0.2074 -0.0116
 1823W        W18297   8.042  12.932   0.162  0.1259 -0.3102 -0.1023
 1824W        W18298  15.378   9.806  11.643 -0.1661 -0.0234 -0.0091
 1825W        W18299  14.423   9.804  16.005 -0.1104 -0.1671  0.2879
 1826W        W18300   1.201  15.231   0.890 -0.1934 -0.1273 -0.1194
 1827W        W18301   4.671   6.255  16.388  0.4743  0.1227 -0.0377
 1828W        W18302   6.974  16.704  11.316  0.0544  0.0489 -0.1854
 1829W        W18303  12.524  15.608   1.882 -0.0648  0.0529  0.2127
 1830W        W18304  14.752   2.515   5.568  0.0706 -0.2297 -0.2254
 1831W        W18305   2.240  15.647   5.700  0.2650  0.0466  0.1336
 1832W        W18306   6.937  11.108   2.540  0.1642  0.0315 -0.1054
 1833W        W18307   2.558  17.528   1.355 -0.1047 -0.0183 -0.0026
 1834W        W18308  12.221  12.057  12.341 -0.0291 -0.0650 -0.1637
 1835W        W18309  10.987  11.175   2.293  0.2140  0.3621  0.1079
 1836W        W18310   8.587   6.395  13.007 -0.0471 -0.0470  0.1616
 1837W        W18311   7.773   8.716   4.748  0.0718 -0.0696 -0.3143
 1838W        W18312  10.930   5.390   5.427 -0.1013 -0.2084  0.0613
 1839W        W18313  16.992   4.814   5.239  0.0757 -0.1124  0.0634
 1840W        W18314  13.950   9.304  12.045 -0.2035  0.1621  0.0161
 1841W        W18315   0.110  14.597   3.903  0.0127  0.0656  0.0688
 1842W        W18316   3.802  16.711  14.804  0.2099 -0.0974  0.3288
 1843W        W18317  13.814   7.836  14.365 -0.1935 -0.2762  0.0245
 1844W        W18318   6.394   7.830   1.368 -0.0791 -0.2034 -0.1225
 1845W        W18319   7.431  16.526   5.407  0.2065  0.3439  0.4333
 1846W        W18320   6.388   1.871   2.651 -0.1602 -0.2186 -0.3627
 1847W        W18321   8.994  13.436   0.037 -0.3082 -0.0252  0.0130
 1848W        W18322  11.202  15.431  13.513 -0.0673  0.0787 -0.0584
 1849W        W18323  13.980   4.015  13.604  0.0509 -0.0006  0.0819
 1850W        W18324  12.164  12.356   5.895  0.0676  0.2377 -0.2130
 1851W        W18325   4.257  10.034  15.578 -0.0095 -0.0355 -0.1063
 1852W        W18326  13.789  16.043  14.633 -0.2395 -0.1122  0.1405
 1853W        W18327   8.075  14.790   5.311 -0.1903  0.1865 -0.1176
 1854W        W18328  16.433  12.113   2.350  0.0081 -0.1548  0.0965
 1855W        W18329   1.207   3.635   1.665 -0.2232 -0.2854  0.0717
 1856W        W18330   0.119   8.046  14.238  0.0522  0.0395  0.4150
 1857W        W18331   6.609   6.447  13.808  0.1504 -0.0400 -0.0746
 1858W        W18332   1.943  10.888   5.122 -0.1685 -0.0559 -0.0254
 1859W        W18333   1.542   5.901   3.911 -0.0609 -0.2145  0.1660
 1860W        W18334  13.204   4.566  13.979  0.1334 -0.0406  0.2060
 1861W        W18335  13.587   6.192   0.678 -0.2669 -0.1819 -0.0084
 1862W        W18336  15.112   1.520   2.681  0.2214 -0.1215  0.0491
 1863W        W18337   8.188   0.182  14.020 -0.1863 -0.1954 -0.1723
 1864W        W18338  15.525   1.031   4.481  0.1080  0.2681  0.1470
 1865W        W18339   7.308   1.753  12.800  0.0204  0.1918  0.0524
 1866W        W18340  10.280   2.535  11.345  0.1543 -0.0990 -0.2131
 1867W        W18341   5.227  15.954   2.663 -0.1466 -0.0506 -0.1245
 1868W        W18342  17.738   2.482  14.287 -0.1082  0.0296 -0.2220
 1869W        W18343   6.761  12.719  13.118 -0.1902  0.1757  0.3169
 1870W        W18344   4.543  16.186  15.968  0.1083 -0.1461  0.1973
 1871W        W18345   2.688   4.712   4.124 -0.1004  0.0550 -0.2473
 1872W        W18346  16.542  15.565   2.030  0.0025 -0.0463 -0.2305
 1873W        W18347   0.432   1.112   0.024  0.2306  0.1259  0.1348
 1874W        W18348  11.723   8.228   0.752 -0.3429  0.1005 -0.0716
 1875W        W18349   5.638  10.490  16.214 -0.0290  0.0311  0.0359
 1876W        W18350   7.358   2.621  12.653  0.0771 -0.1293  0.0900
 1877W        W18351   8.358   0.247  14.944  0.3908  0.0243  0.0664
 1878W        W18352   6.469   6.078  16.234 -0.0625 -0.2258  0.1227
 1879W        W18353   4.759   1.310   0.246  0.1109 -0.0057  0.0505
 1880W        W18354  17.581   7.597  12.895 -0.1718  0.1958  0.0808
 1881W        W18355   0.796   9.260  12.451 -0.0187 -0.0799  0.1733
 1882W        W18356   9.796  14.055  16.213 -0.1215  0.0136  0.0195
 1883W        W18357   1.865   7.452   3.723  0.3424  0.0274 -0.0879
 1884W        W18358   4.746   5.944  11.658  0.1093 -0.1482  0.1947
 1885W        W18359   5.107   9.727  12.979 -0.0086  0.0539  0.1668
 1886W        W18360   3.928   0.485   6.105 -0.0493  0.1612  0.1043
 1887W        W18361   3.072   4.164   3.649  0.0955  0.1100 -0.2840
 1888W        W18362   9.144  13.922   3.295 -0.1665  0.1473  0.1492
 1889W        W18363   2.005   2.365  13.334 -0.0038 -0.1403 -0.1829
 1890W        W18364  15.391  16.584   4.783 -0.1984 -0.1289 -0.4156
 1891W        W18365   7.484   4.221  12.276  0.0938  0.1015  0.0559
 1892W        W18366   7.504   2.797   2.617  0.2100  0.0783 -0.0417
 1893W        W18367  12.468  11.739  13.981 -0.2782  0.2654 -0.1067
 1894W        W18368   4.020   4.317   5.527  0.3126 -0.0770 -0.0202
 1895W        W18369  16.619  17.078   3.876  0.0368 -0.1428  0.1817
 1896W        W18370  16.219  15.200  12.296 -0.2174  0.1321  0.1041
 1897W        W18371   5.550  10.920  16.497 -0.0382 -0.0411  0.1144
 1898W        W18372  17.464   5.675  12.262  0.0095  0.0083 -0.1698
 1899W        W18373  15.896   3.032   0.860 -0.0652 -0.1704 -0.0988
 1900W        W18374   6.430   0.496   1.461 -0.0208 -0.0557 -0.0856
 1901W        W18375   5.351  13.041  14.799  0.0087  0.1183 -0.2445
 1902W        W18376   6.091   3.080   3.049 -0.0347 -0.0632  0.1110
 1903W        W18377   9.003   1.565   5.777  0.0271 -0.3045 -0.2516
 1904W        W18378   6.204   8.302   4.577 -0.0594 -0.1105  0.2052
 1905W        W18379  11.357   6.811   0.393  0.0648  0.0209  0.1766
 1906W        W18380  17.619   9.312  10.664 -0.0055  0.1638 -0.0048
 1907W        W18381   1.351   0.688   2.737  0.0939  0.0217  0.0032
 1908W        W18382   3.811  10.961   1.148  0.1577  0.1983 -0.1597
 1909W        W18383   5.072  15.226   3.820 -0.1872 -0.0422  0.1092
 1910W        W18384  15.793   0.784   5.827 -0.0908 -0.1771 -0.1292
 1911W        W18385  13.044  17.037  14.387  0.0261  0.0243 -0.0017
 1912W        W18386   8.208  13.718   1.188 -0.0520 -0.3428 -0.2184
 1913W        W18387  16.726  14.266  14.815 -0.0638 -0.0411 -0.0810
 1914W        W18388   5.526   7.847  13.306 -0.1366  0.3157 -0.1525
 1915W        W18389   1.945  16.383  15.313 -0.1273 -0.0409  0.1606
 1916W        W18390   1.265  12.720  14.051 -0.0076  0.0695  0.4673
 1917W        W18391   6.352   9.293  15.838  0.2186 -0.1981  0.1454
 1918W        W18392  15.513   8.289  16.533 -0.2542  0.4810 -0.0480
 1919W        W18393   3.723  10.147  11.448 -0.1671 -0.0472 -0.1881
 1920W        W18394  10.311   2.100  14.106 -0.3085  0.2682  0.2396
 1921W        W18395  11.065  16.866   5.394 -0.1490 -0.1847 -0.3233
 1922W        W18396   7.820   0.249  14.770  0.2344  0.1876 -0.1872
 1923W        W18397   2.911   9.563  14.003 -0.0927 -0.1501 -0.2749
 1924W        W18398   6.661  11.951   1.132 -0.0622 -0.1698 -0.2337
 1925W        W18399  10.734  14.919   3.750  0.4176  0.0091  0.0474
 1926W        W18400   7.165   2.946  15.712 -0.0431 -0.2856 -0.0024
 1927W        W18401   2.492   7.645   5.492  0.1953  0.0800  0.0118
 1928W        W18402  11.028  16.609  13.849 -0.2502 -0.0497 -0.1136
 1929W        W18403  11.611  12.019  13.020  0.1364  0.0658  0.2607
 1930W        W18404   4.464   1.361  16.059  0.0209 -0.0690 -0.0929
 1931W        W18405   6.544   7.762   4.166  0.0726 -0.3787  0.2529
 1932W        W18406   6.750  14.072  16.167 -0.1871  0.1389  0.0714
 1933W        W18407   6.835   1.316   4.869 -0.2825  0.1708 -0.1469
 1934W        W18408   9.046  16.511   6.115 -0.0527  0.1959 -0.1188
 1935W        W18409   3.505  15.216  13.677  0.1846 -0.4595  0.4466
 1936W        W18410   5.011   8.387  13.427  0.0495  0.1121 -0.2635
 1937W        W18411  12.417   0.177   3.421  0.1824 -0.1777  0.0366
 1938W        W18412  13.158  10.224  14.368 -0.2083 -0.0323 -0.0292
 1939W        W18413  15.523   1.059   5.505  0.1562 -0.0966  0.1259
 1940W        W18414  13.051   6.532  12.091  0.0574 -0.1680 -0.2492
 1941W        W18415  13.442   2.071   3.507 -0.1143  0.1969  0.2960
 1942W        W18416  13.130  10.587  11.735 -0.2487 -0.0131  0.0946
 1943W        W18417  13.753   9.385   5.485  0.0758  0.0525 -0.1557
 1944W        W18418   7.420   8.933  16.517  0.0596  0.3664 -0.1206
 1945W        W18419  10.448  16.010  15.021  0.0934 -0.0282 -0.1114
 1946W        W18420  10.992   4.950   2.187 -0.2206  0.0040 -0.1585
 1947W        W18421   1.158  11.032  13.780  0.2230 -0.0914 -0.2227
 1948W        W18422   8.863  17.765  16.762  0.4317  0.1257  0.2872
 1949W        W18423  14.710  10.910  12.335 -0.2170 -0.1563 -0.2067
 1950W        W18424  17.322   9.885   2.175 -0.2089 -0.0220 -0.0290
 1951W        W18425  11.692   9.552  12.441 -0.1977  0.1834 -0.1769
 1952W        W18426   7.831  11.686   2.628  0.4521 -0.0237  0.1982
 1953W        W18427  17.087  11.610   4.443 -0.0754 -0.2123  0.1272
 1954W        W18428   8.840  16.944  15.756  0.2146 -0.0253  0.0369
 1955W        W18429  14.733  17.708  15.124 -0.0647  0.0198  0.1217
 1956W        W18430  10.952   4.346  14.607  0.1244 -0.1539  0.0364
 1957W        W18431   3.980  10.717   1.515 -0.0640 -0.1864 -0.1439
 1958W        W18432   5.992  11.153  16.687  0.2389 -0.1667  0.0480
 1959W        W18433  13.015   3.863  14.487 -0.1433 -0.1491  0.2397
 1960W        W18434  13.132   1.508   2.502 -0.0250  0.0669  0.1760
 1961W        W18435  15.073   5.138  16.108 -0.1345 -0.0613  0.6413
 1962W        W18436   8.488  11.841  13.026 -0.1588  0.0000  0.0565
 1963W        W18437   8.620  16.741   2.766  0.0146  0.2469  0.2947
 1964W        W18438   2.553   1.342  15.538  0.1393  0.1465  0.0503
 1965W        W18439  10.614   2.588   5.823  0.2360 -0.2150 -0.1793
 1966W        W18440   0.583   8.822  10.686  0.4080 -0.0708 -0.0177
 1967W        W18441   2.080   6.553  13.180  0.3731  0.0667 -0.4563
 1968W        W18442  10.635   0.672  13.595 -0.1566 -0.0936 -0.0333
 1969W        W18443   6.536   4.794  11.706  0.3083 -0.1453  0.0064
 1970W        W18444   1.336   1.088  13.094  0.0320 -0.0270  0.1624
 1971W        W18445  17.678  12.735  14.996  0.2453 -0.1513 -0.1020
 1972W        W18446  12.987   8.524   2.233 -0.0267 -0.0787 -0.1941
 1973W        W18447   5.358  14.511   1.550  0.1096  0.1371  0.0537
 1974W        W18448   4.623   5.070   0.663 -0.2872  0.1356  0.2252
 1975W        W18449   1.878   3.411   5.300  0.2600  0.1139 -0.1015
 1976W        W18450   2.251   9.961   1.220  0.1345 -0.0777  0.1670
 1977W        W18451   9.554   7.748   4.432  0.3804  0.1802  0.0263
 1978W        W18452  10.761   5.941   4.797  0.0750  0.0938  0.3838
 1979W        W18453   0.533  11.033   0.902  0.0354 -0.2613 -0.0089
 1980W        W18454  17.691   0.182   2.661  0.0092 -0.2476  0.0185
 1981W        W18455   3.096  11.929  11.271 -0.0874 -0.3176 -0.1128
 1982W        W18456  15.321  13.747   0.558  0.0117 -0.0551  0.2212
 1983W        W18457   1.716   8.954  16.409  0.0596 -0.0435 -0.0449
 1984W        W18458  13.970  14.602   5.738 -0.1385  0.1461 -0.0431
 1985W        W18459   6.951  12.497  12.209 -0.1661 -0.1025  0.1838
 1986W        W18460   6.301  13.457   0.607 -0.1239 -0.0470  0.3021
 1987W        W18461  15.926  13.515  13.362  0.0237 -0.1661 -0.0536
 1988W        W18462  15.144   2.816   5.412  0.0683  0.2546  0.1730
 1989W        W18463   4.239  14.669  12.105 -0.3919  0.0183  0.1590
 1990W        W18464  12.121  17.769   3.811  0.0494 -0.5211  0.1320
 1991W        W18465   3.631  15.060  15.212 -0.0619  0.0161 -0.1369
 1992W        W18466   5.060  13.864  11.711 -0.0030  0.5462 -0.1443
 1993W        W18467   4.906  14.457   0.985 -0.4305  0.3366  0.0832
 1994W        W18468  10.489  12.781   4.327  0.2605 -0.1506  0.2464
 1995W        W18469  17.113   3.483  12.425 -0.1465  0.1130  0.0789
 1996W        W18470   3.266  13.465  15.932 -0.0369  0.2475  0.1575
 1997W        W18471  10.603  13.398  12.066  0.0235 -0.0226  0.1147
 1998W        W18472   6.299  10.251   3.404 -0.1164  0.2476 -0.2405
 1999W        W18473  13.306   6.581   0.554  0.0796 -0.0736 -0.0267
 2000W        W18474   9.705  12.084  14.467  0.2586 -0.1499 -0.2007
 2001W        W18475   9.209   3.594   2.853 -0.1598  0.2799  0.1172
 2002W        W18476  15.093   9.969  12.055 -0.2832  0.0106 -0.0304
 2003W        W18477   3.941   7.639  14.808 -0.0463 -0.1009  0.1065
 2004W        W18478   9.498   6.425  13.389  0.0265  0.0968 -0.1877
 2005W        W18479   4.211   2.102  13.581  0.1389 -0.1375 -0.1451
 2006W        W18480   7.530   6.595   3.533 -0.1150 -0.2566  0.0274
 2007W        W18481  14.006   9.523   3.983  0.0193  0.0494 -0.1966
 2008W        W18482  10.301   6.679   0.355  0.2510  0.0728 -0.1410
 2009W        W18483   1.969   4.441   5.413  0.0362 -0.3059 -0.2300
 2010W        W18484  17.575  16.392  14.863 -0.1018 -0.2169 -0.2074
 2011W        W18485   5.312  16.728   3.846 -0.1128 -0.0868 -0.1959
 2012W        W18486   5.428   2.088   4.610  0.0140 -0.0105  0.0321
 2013W        W18487  11.967   7.704   1.879  0.2017 -0.0947 -0.1874
 2014W        W18488   7.088  10.069   2.268  0.0837 -0.0882 -0.0952
 2015W        W18489   6.839  15.519  12.743 -0.2706  0.0250 -0.0674
 2016W        W18490  11.651   7.090  11.776  0.0698 -0.0775  0.1225
 2017W        W18491  10.658  13.333  14.533 -0.0309 -0.0879  0.1394
 2018W        W18492   3.406   6.489   4.207 -0.0430 -0.0182 -0.1978
 2019W        W18493   0.674  16.617  12.386 -0.0620 -0.3439 -0.1326
 2020W        W18494  10.117   2.514   2.344  0.2749  0.3444  0.0362
 2021W        W18495   6.844  16.327   3.019 -0.1147 -0.1447  0.1906
 2022W        W18496  12.917  17.380   0.408  0.2069 -0.0313  0.2142
 2023W        W18497  14.256  15.953  13.434 -0.2909  0.1730  0.2832
 2024W        W18498  12.043   9.224   5.198 -0.2605  0.0310 -0.2697
 2025W        W18499  14.904  15.343   1.547  0.0226  0.0167  0.0189
 2026W        W18500  10.542   3.550  16.792 -0.2734 -0.0299 -0.1079
 2027W        W18501   7.689  15.866   0.316 -0.0934  0.0676  0.0975
 2028W        W18502  16.484  13.316   1.799  0.2141 -0.1243  0.0379
 2029W        W18503   1.854  17.045   1.265 -0.1476  0.0588 -0.1963
 2030W        W18504  15.761   1.975  13.938  0.1001 -0.1261  0.1588
 2031W        W18505   3.024  11.244   0.119 -0.1831  0.3023 -0.1635
 2032W        W18506  10.364   1.345  12.268 -0.3901  0.0517  0.1178
 2033W        W18507  10.571   9.023   1.043  0.1133  0.1471 -0.0001
 2034W        W18508   1.014   9.927   0.416  0.1178  0.3280  0.6336
 2035W        W18509  10.946  16.479  11.294 -0.2414 -0.0434 -0.0485
 2036W        W18510   6.577  15.967  14.529  0.3198  0.0930 -0.1759
 2037W        W18511   5.870   1.116   3.232  0.0850 -0.0180 -0.2246
 2038W        W18512  10.918   3.561   4.467 -0.3302  0.2630  0.0161
 2039W        W18513   3.325   4.661   5.921 -0.0185  0.0246  0.1482
 2040W        W18514  12.247   6.946   3.024  0.0082 -0.2214 -0.0603
 2041W        W18515   6.443  15.437   0.326  0.0139 -0.0977 -0.1394
 2042W        W18516  12.358  14.221  11.619 -0.3449  0.0327 -0.1192
 2043W        W18517  14.904   6.082   0.388 -0.1720  0.3094 -0.2489
 2044W        W18518   3.427  16.760   2.771  0.4271 -0.0247 -0.0107
 2045W        W18519   8.082  13.275  14.817  0.1387 -0.0477  0.3598
 2046W        W18520   0.846  11.799   1.936  0.0741  0.0779  0.0521
 2047W        W18521   4.326   2.168  11.816 -0.2469  0.1233 -0.3234
 2048W        W18522   4.669   6.277  13.950  0.3299  0.0093  0.0463
 2049W        W18523  16.252   6.906  12.434  0.2298 -0.2946  0.1810
 2050W        W18524   5.693   5.045   2.455 -0.2686  0.2237  0.1014
 2051W        W18525   2.906   0.123   2.358 -0.1328  0.3892 -0.0237
 2052W        W18526   5.745   6.246  13.461 -0.1122  0.0367 -0.1516
 2053W        W18527  13.317  10.252   1.500  0.0396 -0.0818  0.0055
 2054W        W18528  17.689  17.752  15.817 -0.1673  0.1118 -0.1595
 2055W        W18529  12.616  11.930  16.256 -0.0199 -0.0924  0.1463
 2056W        W18530  16.095   3.854  14.739  0.0194  0.4765  0.0041
 2057W        W18531   5.078   4.870   0.622 -0.0854  0.2378  0.0618
 2058W        W18532  12.168   0.241  12.324 -0.0187  0.1206 -0.0029
 2059W        W18533   8.716   1.507  15.091 -0.1089 -0.2826 -0.0191
 2060W        W18534   1.127   6.818   3.805 -0.1137  0.1056 -0.1035
 2061W        W18535   7.574   0.837   5.255  0.2433  0.2208  0.0123
 2062W        W18536  15.063  14.771   5.520  0.1533 -0.0928  0.1140
 2063W        W18537   0.370   1.313  14.233  0.1724  0.0110 -0.0138
 2064W        W18538   2.956   5.378  15.366  0.1262 -0.1506 -0.2065
 2065W        W18539   4.784   7.647  14.447  0.1641 -0.2628  0.0619
 2066W        W18540   7.008  11.442  16.129 -0.1535  0.0183 -0.1278
 2067W        W18541  16.193   7.656  14.650  0.0534 -0.0815  0.3560
 2068W        W18542  14.613   1.258  12.055  0.1519  0.0014  0.2292
 2069W        W18543   4.000  14.699  15.244 -0.4199  0.0634 -0.3130
 2070W        W18544   2.960  16.735   4.011  0.0793  0.0079 -0.0931
 2071W        W18545   0.809  15.510   2.304 -0.0608  0.0890 -0.1545
 2072W        W18546  13.661   1.230   5.024  0.2201 -0.2593  0.0013
 2073W        W18547  15.495  11.034  16.710 -0.0870  0.0852 -0.1506
 2074W        W18548   5.616   5.488   3.930 -0.0123  0.0760 -0.0383
 2075W        W18549  14.329   7.169  14.195  0.0638 -0.0364 -0.0062
 2076W        W18550  15.690   3.042   4.898 -0.1885 -0.0077  0.4820
 2077W        W18551   8.529   6.314  15.307 -0.1578 -0.1300  0.3910
 2078W        W18552   9.672   8.307   1.738  0.0853 -0.1909  0.0550
 2079W        W18553   3.439   9.884   2.306 -0.1403  0.0790  0.2024
 2080W        W18554   5.740   8.696   2.748  0.0729  0.1016 -0.2153
 2081W        W18555   6.609   1.749  15.308 -0.1296 -0.1117 -0.2586
 2082W        W18556   0.091   2.430  12.977  0.1587 -0.0428  0.1142
 2083W        W18557   6.813   2.490   0.913 -0.0044  0.0821 -0.1199
 2084W        W18558   5.003  15.182   2.517 -0.0341  0.0628 -0.3506
 2085W        W18559  14.723  11.007  14.199  0.3181  0.0667  0.1321
 2086W        W18560   8.754  14.920  12.608  0.0488  0.1188 -0.1221
 2087W        W18561  13.408   7.608  15.729  0.0040  0.3341 -0.2669
 2088W        W18562  16.573  17.358  16.386 -0.2586 -0.1636  0.0179
 2089W        W18563  13.390   7.504  13.990  0.0651 -0.0685 -0.0609
 2090W        W18564  13.876  11.270   3.834  0.1491  0.0751  0.1872
 2091W        W18565  17.367  14.488   4.432 -0.2969 -0.1287 -0.2176
 2092W        W18566  14.486  13.472   2.207 -0.0657  0.1449  0.1774
 2093W        W18567  11.173  17.749  16.847 -0.2557 -0.1511  0.2977
 2094W        W18568   2.533   9.519   3.311 -0.2274  0.2175  0.0299
 2095W        W18569   9.827  16.442  14.722 -0.0287  0.0462  0.5647
 2096W        W18570  13.802   2.602   1.299  0.1614 -0.0261  0.1454
 2097W        W18571  11.741   3.012  10.656 -0.1186  0.1745 -0.2475
 2098W        W18572   8.313   7.262  12.583  0.2959 -0.2803 -0.0962
 2099W        W18573  12.831   3.191   4.795  0.0124  0.0383  0.0573
 2100W        W18574   9.114   6.613  16.653  0.0973 -0.2102 -0.2292
 2101W        W18575   1.640  16.869  15.187  0.2353  0.2175 -0.2291
 2102W        W18576   7.662   4.744   3.800 -0.2323  0.1176  0.1139
 2103W        W18577  16.316  16.197  14.526  0.1478 -0.1112  0.2834
 2104W        W18578   4.335   2.468  13.974  0.0354 -0.3125 -0.0333
 2105W        W18579  15.720   2.153   3.008  0.0836  0.1221  0.1033
 2106W        W18580   3.882   6.210  15.798  0.1815  0.2615  0.2888
 2107W        W18581   0.596  13.717   2.278 -0.0736 -0.3862  0.4091
 2108W        W18582  14.336   2.885   5.526  0.3306 -0.2764 -0.0968
 2109W        W18583   0.036  13.745  13.332  0.0112 -0.1153  0.3412
 2110W        W18584   2.470   9.838   2.946  0.0378 -0.0755 -0.1115
 2111W        W18585   3.126   0.462  16.665 -0.0672  0.4093  0.1106
 2112W        W18586   4.995   3.345   4.504 -0.1630 -0.5031  0.2440
 2113W        W18587  17.388   0.393   1.555 -0.0621 -0.3966  0.1619
 2114W        W18588   4.215  11.857  15.858 -0.0905  0.2859  0.3312
 2115W        W18589   9.959  16.407   4.131 -0.0982 -0.1206 -0.0536
 2116W        W18590  14.740  13.895   3.059  0.2666 -0.2740 -0.3890
 2117W        W18591   1.849  10.854  14.883 -0.1134  0.2246  0.1369
 2118W        W18592  11.143  13.379   1.278  0.0525 -0.2336 -0.0801
 2119W        W18593   4.674  13.817   2.936 -0.1521  0.0780 -0.0527
 2120W        W18594   4.557   6.330  11.996 -0.0446 -0.1598 -0.3715
 2121W        W18595   1.803  10.888   2.748  0.1005  0.0219 -0.0332
 2122W        W18596   0.113   8.513  16.898  0.0606  0.0540 -0.0201
 2123W        W18597   8.269  15.077   3.924 -0.0460 -0.3472 -0.0934
 2124W        W18598   0.910  16.658   4.421 -0.0812  0.0213  0.0642
 2125W        W18599   2.730   0.023  15.189  0.2699  0.2285 -0.0691
 2126W        W18600   3.353   1.194   4.052 -0.2440 -0.1246  0.1366
 2127W        W18601   1.452   2.212   3.477  0.2410  0.3959  0.1122
 2128W        W18602   4.377   1.539   0.541  0.5058  0.2639  0.1419
 2129W        W18603  16.471   9.749   3.785  0.1798 -0.0699 -0.0933
 2130W        W18604   7.143  11.636   1.689  0.2111  0.2138  0.0279
 2131W        W18605   2.213   1.460   1.699  0.2047  0.2786  0.1196
 2132W        W18606   4.141   7.446  15.613  0.2423  0.0107 -0.4286
 2133W        W18607  16.249  12.438   2.728  0.1147  0.4527 -0.0445
 2134W        W18608  13.336   2.260   4.637  0.1186  0.2476 -0.1930
 2135W        W18609   5.104   8.045  11.634 -0.0970 -0.0654 -0.1033
 2136W        W18610   6.394   7.725   0.030  0.1723  0.0364  0.0448
 2137W        W18611   5.534  11.407  16.609 -0.1180  0.1327  0.4139
 2138W        W18612  10.201   9.770  13.044  0.2131  0.0274  0.1006
 2139W        W18613  11.074  16.511   1.660  0.1979 -0.0812 -0.0398
 2140W        W18614  13.773  17.386   0.589  0.2148  0.0327 -0.0550
 2141W        W18615   0.520   7.777  14.099 -0.0912  0.0330  0.0874
 2142W        W18616   9.253   6.665  15.858  0.2516  0.1752 -0.0521
 2143W        W18617  10.698   9.953  13.389  0.0356  0.1731  0.0037
 2144W        W18618  15.138   7.603   2.026 -0.1971 -0.1356 -0.1328
 2145W        W18619  10.804   5.237   0.266  0.0256  0.1665 -0.1280
 2146W        W18620   0.532  11.596   0.994 -0.0650  0.0576  0.1528
 2147W        W18621   7.857   9.057   3.474 -0.1118 -0.2321 -0.1526
 2148W        W18622   1.199   5.490   4.184  0.0316 -0.2039 -0.4214
 2149W        W18623  16.930   9.261  16.309 -0.0847  0.0916  0.1477
 2150W        W18624   8.442  11.040  13.023  0.2842  0.1234 -0.0185
 2151W        W18625  14.038  14.753   2.640 -0.0281  0.0886 -0.1252
 2152W        W18626   1.468   4.987   5.870  0.2103 -0.1637 -0.1417
 2153W        W18627  10.768   2.768   0.311 -0.1104  0.1761 -0.1075
 2154W        W18628  15.409  15.173   0.847 -0.0135  0.0724  0.1690
 2155W        W18629   8.348   1.379   1.362 -0.1118  0.1849  0.0320
 2156W        W18630  17.443  17.030   0.544 -0.0479 -0.1204 -0.3417
 2157W        W18631  14.080  16.858   4.577  0.1240  0.0582  0.3149
 2158W        W18632   1.474  13.742  11.570 -0.0666  0.0004  0.2246
 2159W        W18633  14.512   1.601  15.431 -0.0323  0.1728  0.0287
 2160W        W18634  10.321  17.001   1.337 -0.1017  0.0015  0.0422
 2161W        W18635   8.458   3.116   3.382 -0.0685  0.0495 -0.1366
 2162W        W18636   2.694   5.254  12.152 -0.1795 -0.1077  0.4666
 2163W        W18637   6.453   7.605   4.974 -0.1289  0.2680  0.0952
 2164W        W18638   5.446  11.764  16.207  0.2663  0.1792  0.0423
 2165W        W18639   9.316  10.552  16.821 -0.3078  0.1949  0.0756
 2166W        W18640  12.114  17.240   2.905 -0.1808 -0.0449 -0.1628
 2167W        W18641  12.452   2.712  14.927  0.0406  0.1742  0.0414
 2168W        W18642  13.985   7.687   1.131  0.2553  0.1710 -0.3939
 2169W        W18643  16.135   7.759  15.430 -0.1377  0.2743  0.2104
 2170W        W18644   3.471  13.228  11.014  0.2455 -0.1756 -0.3129
 2171W        W18645  11.866   5.020  12.005  0.0530  0.0464  0.2229
 2172W        W18646   4.859  14.708   5.316  0.1846  0.0746  0.0902
 2173W        W18647   0.716  14.570   5.456 -0.1977  0.1950 -0.0184
 2174W        W18648  12.409   0.590  15.971 -0.0815  0.1016 -0.0455
 2175W        W18649   0.268   1.369   4.302  0.1046 -0.0926 -0.0580
 2176W        W18650   7.976  14.286  16.511  0.2112 -0.1058  0.0247
 2177W        W18651   2.214  15.755   4.030 -0.0738 -0.3744  0.0659
 2178W        W18652   8.558   9.921  15.795  0.0748 -0.0088  0.0365
 2179W        W18653   1.201   0.557  12.874  0.3581  0.1681 -0.1238
 2180W        W18654  12.237   6.298   1.817 -0.2229 -0.0863 -0.0753
 2181W        W18655  12.767  15.679  14.908 -0.1457 -0.1105  0.0535
 2182W        W18656  15.050  13.648  10.668  0.0399 -0.0906 -0.2043
 2183W        W18657  17.290   9.399  16.913  0.0689  0.2501  0.1682
 2184W        W18658  13.271   0.803  14.566 -0.0371  0.2289 -0.2908
 2185W        W18659  15.987   4.420  15.619  0.4965  0.2033 -0.0115
 2186W        W18660  13.070   2.600  16.083 -0.0086 -0.0675 -0.0877
 2187W        W18661   0.331  13.609   3.253 -0.0521 -0.2311 -0.1811
 2188W        W18662   0.784  12.408  13.710  0.1282  0.2685  0.1655
 2189W        W18663   1.790   4.729   0.020  0.2249 -0.2557  0.0438
 2190W        W18664  14.375   7.590   0.675  0.2628 -0.3298 -0.2630
 2191W        W18665   2.367   9.472  14.189 -0.3635 -0.0355 -0.2349
 2192W        W18666   8.136   4.633   3.646 -0.0667  0.0513 -0.0660
 2193W        W18667  10.414   3.549   4.478  0.1389 -0.0370  0.0679
 2194W        W18668  15.937  10.429  12.906  0.0551  0.3275  0.0402
 2195W        W18669   2.027   5.259  15.568  0.4508 -0.1549  0.1711
 2196W        W18670  11.422  14.469   1.839  0.0827  0.0397 -0.0986
 2197W        W18671   8.522   8.305  13.377 -0.1797 -0.2170 -0.3136
 2198W        W18672   2.071   3.243   0.857 -0.3287  0.0768 -0.2566
 2199W        W18673   5.575  15.944   1.677  0.2105 -0.1935 -0.0926
 2200W        W18674  16.118   4.398  13.416  0.0845  0.2188  0.1843
 2201W        W18675   8.413   0.202  13.538  0.1831 -0.1068  0.2210
 2202W        W18676  12.023  10.485   1.194  0.1775 -0.2628 -0.3522
 2203W        W18677  15.806  11.148  15.282  0.1884 -0.0150 -0.0555
 2204W        W18678   5.224  17.442   1.259 -0.0158 -0.4070 -0.0707
 2205W        W18679   5.849  10.287   0.254 -0.1876  0.0094 -0.2833
 2206W        W18680  15.468   5.508   6.014  0.1367  0.0516 -0.1723
 2207W        W18681   1.695  14.827  13.675 -0.0539 -0.3794 -0.0485
 2208W        W18682   0.301   8.447  12.487  0.1406  0.1239 -0.0173
 2209W        W18683  17.555   7.924   3.889  0.2118 -0.3480 -0.0915
 2210W        W18684  10.304  15.992  16.814 -0.0762  0.3138 -0.1354
 2211W        W18685  16.277  17.035   1.524 -0.1331 -0.0303  0.0222
 2212W        W18686  12.297   5.512  12.151  0.0430  0.0685 -0.0445
 2213W        W18687   2.428  17.437  13.198  0.0648  0.1022 -0.0232
 2214W        W18688  16.641  10.470  16.814  0.2052 -0.1509  0.1476
 2215W        W18689   0.507   1.551   2.061  0.2144  0.0117 -0.1424
 2216W        W18690  14.427  17.431   5.341 -0.1369  0.1183  0.4397
 2217W        W18691   6.487  11.307   0.354 -0.0708 -0.0034 -0.2500
 2218W        W18692   3.574   5.348   4.137 -0.1571 -0.0321 -0.3907
 2219W        W18693   1.361   0.797   4.456  0.1056 -0.2087 -0.0661
 2220W        W18694   2.216  17.634   4.304  0.2502  0.0666 -0.0187
 2221W        W18695   0.544   1.092   2.755 -0.1237  0.1525  0.1226
 2222W        W18696   6.686  16.856   5.389  0.1411 -0.0037  0.0403
 2223W        W18697  11.340  15.838   4.538  0.1007 -0.0532  0.0502
 2224W        W18698  15.860  12.681  13.023  0.0052  0.3670 -0.0410
 2225W        W18699   6.065  13.286  15.999  0.0405  0.0255 -0.4435
 2226W        W18700  17.135  10.412   2.041  0.1548 -0.2576  0.1859
 2227W        W18701   0.594   7.155  11.773 -0.3394  0.0988  0.3002
 2228W        W18702   8.983  14.405  16.068 -0.1012 -0.0799 -0.2346
 2229W        W18703   6.574  16.797   4.788 -0.1848  0.0230 -0.0349
 2230W        W18704   0.640   8.609  11.585 -0.0760 -0.1319 -0.1351
 2231W        W18705  15.866  12.166   3.359 -0.0801 -0.0465  0.1071
 2232W        W18706   0.180  16.809  15.934  0.3203  0.3212  0.3134
 2233W        W18707   7.266  15.714   4.784 -0.3993 -0.0137  0.1362
 2234W        W18708  13.892   8.757   3.349  0.1367 -0.0989  0.1647
 2235W        W18709  17.709   7.531  15.488  0.3178 -0.1011  0.1312
 2236W        W18710  11.005  14.794  11.593 -0.0182  0.4226 -0.0147
 2237W        W18711   4.476   4.538  12.387  0.1509  0.3570  0.1289
 2238W        W18712  14.592   0.536   1.701 -0.1394 -0.0048  0.0840
 2239W        W18713  16.727  14.547  15.796  0.0274  0.2931 -0.0463
 2240W        W18714  12.354   4.745  12.767 -0.1543  0.4634  0.0179
 2241W        W18715   5.398   3.642  13.584 -0.2620  0.0155  0.1575
 2242W        W18716   4.860   6.697  13.749  0.0453  0.0322 -0.0249
 2243W        W18717  10.889  10.031   3.995 -0.1041 -0.1682  0.2242
 2244W        W18718  12.690   6.138  15.649  0.1673  0.2419 -0.0532
 2245W        W18719   3.507   0.833   1.883 -0.0220 -0.0354  0.1440
 2246W        W18720   7.119  13.835  16.479  0.0413  0.1792  0.0176
 2247W        W18721   0.668   7.418   4.498  0.0797  0.1932 -0.0121
 2248W        W18722  16.104   3.267   3.439 -0.2889 -0.2380  0.3365
 2249W        W18723   2.739   0.988   1.141  0.0350  0.0726 -0.0957
 2250W        W18724   7.066  15.236   0.829  0.0533  0.1798  0.0008
 2251W        W18725   3.023   6.369  15.786  0.0293 -0.0429 -0.2141
 2252W        W18726   5.776   3.042  14.361 -0.0804 -0.3634  0.2546
 2253W        W18727   0.080   6.752  16.049  0.0951  0.3802  0.3393
 2254W        W18728   0.526   6.447   0.966  0.1752 -0.0094 -0.0337
 2255W        W18729   8.678  15.447   2.977  0.0104  0.0110  0.0777
 2256W        W18730   8.930   6.878   3.911  0.1364  0.4412 -0.0078
 2257W        W18731  10.898   8.683  12.501  0.1023  0.0668 -0.1138
 2258W        W18732   6.498   3.884  15.344 -0.1114  0.1940  0.0250
 2259W        W18733  14.305   1.931   2.110  0.3258 -0.2718  0.0892
 2260W        W18734   4.674  11.122  11.290  0.1691 -0.0465  0.2591
 2261W        W18735   5.768  17.140  15.801  0.0877  0.1882 -0.0807
 2262W        W18736  13.218   1.543  12.401 -0.0740 -0.0656 -0.1014
 2263W        W18737  14.766  14.854   1.419 -0.0436 -0.3183 -0.0241
 2264W        W18738  12.493   1.335   3.792  0.0789  0.0517 -0.0535
 2265W        W18739   5.333  10.126  16.356  0.0843  0.0182  0.2775
 2266W        W18740  15.093   1.476   0.403 -0.0274 -0.3959  0.4331
 2267W        W18741  15.306  11.873  16.133  0.0578  0.1436  0.0586
 2268W        W18742   8.151  17.724   0.478  0.0712 -0.1480  0.0072
 2269W        W18743  13.242  14.697  12.352 -0.1552  0.1388 -0.0857
 2270W        W18744   2.081   5.635  12.677  0.2362 -0.0726 -0.0794
 2271W        W18745   8.999   8.149  15.594 -0.0475 -0.2683  0.0574
 2272W        W18746  10.595   7.725  13.238  0.0577  0.1818  0.2769
 2273W        W18747   3.180  16.741  15.439  0.0559  0.3559 -0.0884
 2274W        W18748  10.917   1.936   3.196 -0.2124  0.0076 -0.0907
 2275W        W18749   9.733   0.669   3.496  0.1068  0.2489  0.3522
 2276W        W18750   4.058   4.142   4.584 -0.2728 -0.2317 -0.3286
 2277W        W18751  10.869   1.535   3.476 -0.1070  0.2909 -0.0901
 2278W        W18752   4.537   2.637  12.154  0.0512  0.0655  0.1851
 2279W        W18753   9.594  16.651  16.586  0.0298  0.1197 -0.1005
 2280W        W18754   2.925  15.897  15.250 -0.1774 -0.1425  0.0322
 2281W        W18755   9.358  15.037   1.873  0.0037 -0.1350  0.2168
 2282W        W18756  12.112  17.636   3.243  0.1273  0.0671  0.1079
 2283W        W18757   4.400   1.707   5.232 -0.0851 -0.2089 -0.4363
 2284W        W18758   0.287   3.273  16.502 -0.0285  0.2694 -0.1437
 2285W        W18759  11.050   1.843  11.988 -0.2623  0.0906 -0.0309
 2286W        W18760   9.213   6.412  10.983  0.1047  0.0209  0.2120
 2287W        W18761  11.725   4.872   4.941 -0.0757  0.2175 -0.0302
 2288W        W18762  17.171  14.997   1.464  0.1676  0.1124  0.0998
 2289W        W18763   8.550   2.190   4.932 -0.0941 -0.2331 -0.1334
 2290W        W18764   9.275  11.086  13.592 -0.2139  0.2184 -0.2229
 2291W        W18765   1.948   3.531  16.371 -0.1213  0.0013 -0.1640
 2292W        W18766   9.517   7.059  16.143 -0.0929  0.0294  0.3833
 2293W        W18767   0.681   1.817  13.309  0.1860  0.1302  0.1689
 2294W        W18768   6.515  14.585   1.338 -0.1205  0.0493 -0.1405
 2295W        W18769  14.498   2.665  16.035  0.1626 -0.0349 -0.0209
 2296W        W18770  14.621   9.426   5.042  0.0072  0.0165  0.1960
 2297W        W18771   0.315  17.794   0.442 -0.1112 -0.0545 -0.3135
 2298W        W18772   7.821   7.866   1.888 -0.0737 -0.3208  0.2744
 2299W        W18773   7.412   9.739  11.935  0.1596  0.0618 -0.0093
 2300W        W18774   9.375   2.344   0.750  0.1823 -0.0200  0.2235
 2301W        W18775   8.147   8.858  12.410  0.2369 -0.3603  0.0022
 2302W        W18776   9.710   6.971  15.019 -0.0543  0.0960 -0.0037
 2303W        W18777   5.581   9.305   5.343 -0.1019 -0.0031  0.2160
 2304W        W18778   2.258  17.751  14.388  0.1915 -0.1988 -0.2489
 2305W        W18779   8.290  17.042   2.595  0.2556  0.1719 -0.2980
 2306W        W18780   1.305   6.701   1.530  0.0526  0.0052 -0.1180
 2307W        W18781   2.646   4.339  13.776  0.1800  0.2744  0.1378
 2308W        W18782  16.767  16.551   5.989 -0.0171 -0.3314 -0.0513
 2309W        W18783  10.021   9.621   2.565 -0.3376  0.3104 -0.0043
 2310W        W18784   2.592   2.781  16.169 -0.0748  0.2026 -0.0849
 2311W        W18785  12.081   4.921  15.151  0.0445 -0.1527 -0.2380
 2312W        W18786  13.759  13.167   3.797  0.3228 -0.1149  0.2075
 2313W        W18787   3.802   3.802  13.450 -0.1771 -0.1963 -0.0063
 2314W        W18788   2.869   2.699   1.686 -0.1489 -0.1513  0.0416
 2315W        W18789  13.892  11.606  12.704  0.1506  0.1932  0.1082
 2316W        W18790  16.023   9.539   6.025 -0.0879 -0.1058 -0.2598
 2317W        W18791  13.477  12.220   2.397  0.1158  0.2258  0.1320
 2318W        W18792   3.213   5.610   4.477  0.0283  0.2742  0.1807
 2319W        W18793   2.223   9.130  13.490  0.3102 -0.0897 -0.2300
 2320W        W18794  10.652  11.691   1.068  0.0127  0.0211 -0.2701
 2321W        W18795   8.250   1.302  15.194  0.3742  0.1041  0.1223
 2322W        W18796  16.025  14.392  14.475 -0.1100 -0.0982 -0.0267
 2323W        W18797  14.543  10.493  14.278 -0.0126  0.1062 -0.2690
 2324W        W18798   4.906  14.528   4.518  0.1427 -0.2485 -0.1953
 2325W        W18799  10.431  12.657  15.045  0.3510  0.0979  0.0484
 2326W        W18800  10.411  17.794  15.218 -0.1422  0.2909  0.2396
 2327W        W18801  14.130   2.262   1.356  0.0617 -0.1058 -0.3583
 2328W        W18802  11.296  12.976  13.032 -0.3119 -0.2958 -0.0527
 2329W        W18803  15.212  17.683  15.430  0.3608 -0.0736  0.0690
 2330W        W18804  17.197   6.351  15.626  0.2892  0.1213  0.2917
 2331W        W18805   1.810   5.325   0.668 -0.2681 -0.1204  0.1244
 2332W        W18806  17.332   5.999   4.154 -0.1488  0.0925 -0.1632
 2333W        W18807   2.032   6.168   0.813 -0.1719 -0.0464 -0.0365
 2334W        W18808  16.365   0.081   4.278  0.1151  0.0050  0.0576
 2335W        W18809   8.203  17.523   3.931  0.1473  0.3597 -0.1248
 2336W        W18810   1.444   7.713  16.463  0.0817 -0.2082  0.2650
 2337W        W18811   5.868   4.067   2.316  0.0267 -0.1900 -0.0743
 2338W        W18812   9.605   7.188   2.265  0.1729  0.0503  0.3269
 2339W        W18813   7.526  17.086   4.272  0.1998 -0.1310  0.1952
 2340W        W18814   8.094   2.630  11.905 -0.0698 -0.1315  0.0454
 2341W        W18815   2.432   7.555   2.102  0.0529 -0.1699  0.0102
 2342W        W18816  12.504   0.571   1.691 -0.0744 -0.0008 -0.0227
 2343W        W18817   4.085  13.179   2.339  0.0581 -0.3873  0.1542
 2344W        W18818  10.992  15.445   0.330 -0.0034 -0.3738 -0.3186
 2345W        W18819   6.997  10.717  11.697  0.0111 -0.4464 -0.0602
 2346W        W18820   0.988  15.915   5.533  0.0050  0.0628 -0.0609
 2347W        W18821   7.953  16.507   3.320  0.0261 -0.0793  0.3378
 2348W        W18822   3.268   6.126   6.272  0.2275  0.2347  0.0943
 2349W        W18823  10.813   7.678  12.776 -0.0676  0.6867  0.1674
 2350W        W18824  10.671   6.674  11.943 -0.0405  0.0260 -0.0427
 2351W        W18825   4.715  12.444  11.764  0.1551 -0.0705 -0.0203
 2352W        W18826   3.990  17.526  12.261  0.2685 -0.0310 -0.3728
 2353W        W18827  12.777   1.621   0.423 -0.2336 -0.3107 -0.1061
 2354W        W18828  12.495   5.573  15.637 -0.0046  0.1471 -0.1520
 2355W        W18829   5.581   9.964   1.001  0.1153 -0.3114  0.0717
 2356W        W18830  15.675   4.097  14.885 -0.3320 -0.0748  0.0418
 2357W        W18831   4.610   7.314   2.345 -0.1283 -0.3796 -0.3861
 2358W        W18832  11.399  10.589  14.921 -0.1324 -0.0631  0.2126
 2359W        W18833   3.203  17.319   1.565 -0.2420  0.3705 -0.1762
 2360W        W18834   5.742   5.690  13.186 -0.2447  0.2463 -0.1791
 2361W        W18835  12.325   5.945  12.470  0.1971  0.1024  0.5166
 2362W        W18836   7.662  15.438  12.299 -0.1489  0.0043 -0.0872
 2363W        W18837  12.127   9.035   0.688  0.0424  0.0002 -0.0508
 2364W        W18838   3.371  17.127   5.451  0.1317 -0.4668  0.0699
 2365W        W18839   4.630  11.623  16.638  0.1393  0.1172  0.0523
 2366W        W18840   7.125   0.493   5.256  0.1122  0.0455  0.1591
 2367W        W18841   7.641  10.066  11.688 -0.2307  0.1364 -0.1327
 2368W        W18842   1.796   3.884  12.376  0.0438  0.1705  0.1318
 2369W        W18843  17.727   6.047   0.187  0.0756  0.0633 -0.0969
 2370W        W18844  15.706   0.251   1.555 -0.2727  0.0657  0.3781
 2371W        W18845  10.800  13.377  16.056 -0.0294 -0.2091 -0.1528
 2372W        W18846   0.976  11.015  15.314 -0.1679 -0.1510  0.0109
 2373W        W18847  16.657  11.536  14.863  0.2030  0.1837  0.0463
 2374W        W18848   8.592   4.442  12.254  0.3207  0.1184 -0.0648
 2375W        W18849  15.957   1.493   0.932 -0.2119  0.3830  0.0880
 2376W        W18850   0.977   2.764   5.146 -0.2468 -0.0609  0.0819
 2377W        W18851   1.638   7.272   4.413 -0.2280  0.0069 -0.0340
 2378W        W18852   7.286  12.276   4.053 -0.0755  0.1715  0.1505
 2379W        W18853   6.904  12.877  16.874  0.2044  0.3029  0.2085
 2380W        W18854  16.037  12.211  16.277  0.1293  0.1493 -0.0379
 2381W        W18855  14.766  17.333   4.087  0.2557 -0.3522  0.1276
 2382W        W18856  15.762   9.260  14.177  0.0462  0.4250  0.3125
 2383W        W18857  10.359   0.179   0.589 -0.1200  0.1766  0.0362
 2384W        W18858   9.422   0.545   0.955  0.2040  0.0495 -0.1430
 2385W        W18859   7.294   8.499  15.305 -0.2558 -0.0705  0.3325
 2386W        W18860  11.421   6.462  12.940 -0.2330 -0.0104 -0.3608
 2387W        W18861  13.407   3.531  13.593  0.3188  0.1028  0.0734
 2388W        W18862   4.829  15.990   5.334 -0.1213  0.1754 -0.0534
 2389W        W18863   6.873  11.628  14.333  0.1310  0.0453  0.0667
 2390W        W18864   0.411   8.277   2.898 -0.0088 -0.0030 -0.4070
 2391W        W18865  10.233   4.328   2.117  0.2190  0.0747  0.2547
 2392W        W18866   4.231  11.532  13.782 -0.4349 -0.1053 -0.0791
 2393W        W18867   8.265  10.766  12.646  0.1226 -0.2001  0.1714
 2394W        W18868  15.971   0.578   3.692 -0.0753  0.1479 -0.2059
 2395W        W18869  15.789   8.434  15.165 -0.1909  0.1015  0.0189
 2396W        W18870  14.662   4.702  14.468 -0.2774 -0.0719 -0.2598
 2397W        W18871   1.823   7.717  16.872 -0.1002 -0.0782 -0.1381
 2398W        W18872   3.780  12.295   4.253 -0.1110  0.0030  0.0300
 2399W        W18873   7.717   6.229   4.578  0.0355  0.3333  0.0774
 2400W        W18874  10.560   4.088  14.399  0.0882  0.0279 -0.0308
 2401W        W18875  15.798  11.510   2.548  0.1721  0.1325  0.1631
 2402W        W18876   4.056   4.256  13.756  0.2089 -0.0440  0.0692
 2403W        W18877   4.892  15.505  15.426  0.0419 -0.0588  0.0838
 2404W        W18878  11.514   5.594  14.515  0.0175  0.1711 -0.5283
 2405W        W18879   8.748   0.212   2.220  0.0604  0.4253 -0.1000
 2406W        W18880   1.135   5.646   4.690 -0.2685 -0.1419 -0.2168
 2407W        W18881  12.073   7.437   5.810  0.1236 -0.0394  0.1398
 2408W        W18882   2.636   4.559   6.310  0.1072 -0.3944 -0.1213
 2409W        W18883  10.556  16.876  14.809 -0.2028 -0.3861  0.0578
 2410W        W18884   5.939  14.394  14.997 -0.0448 -0.0578  0.1935
 2411W        W18885  14.048   1.578  13.660 -0.1104 -0.0556  0.0463
 2412W        W18886   4.964  12.599   3.422 -0.2731 -0.0668  0.0398
 2413W        W18887   9.828   7.771   2.538  0.3211  0.0475  0.1018
 2414W        W18888   6.642   2.429  11.993 -0.1083 -0.1180 -0.0174
 2415W        W18889  14.972   6.311  15.933  0.1500  0.0434  0.0720
 2416W        W18890  17.213   6.973   5.510 -0.2115  0.3078 -0.0512
 2417W        W18891   4.590  12.343  10.062 -0.0684  0.1896 -0.0656
 2418W        W18892   8.101   9.768  11.710 -0.3057  0.0573 -0.3462
 2419W        W18893   7.567  15.461  11.643 -0.1343 -0.0296 -0.1833
 2420W        W18894  16.608  10.949  12.233 -0.3025  0.1518  0.0284
 2421W        W18895  16.518   7.143   0.922 -0.1406 -0.1428  0.2278
 2422W        W18896   9.646  15.845  10.542 -0.0514 -0.1159  0.0246
 2423W        W18897   0.908   9.476  16.474  0.1260 -0.2897  0.1572
 2424W        W18898  13.414  15.162   3.782 -0.0588  0.3760 -0.1955
 2425W        W18899   4.353   5.823   2.885 -0.2770 -0.1534  0.1427
 2426W        W18900  17.260  11.668  12.517  0.0964  0.0871 -0.2591
 2427W        W18901  16.434   9.793  12.925 -0.0775 -0.0129 -0.1893
 2428W        W18902   9.240  11.883  16.444 -0.0114  0.2120 -0.2336
 2429W        W18903  17.461   4.841  11.802  0.2623 -0.0219 -0.2107
 2430W        W18904  17.547   7.476   1.975 -0.1112  0.1693  0.0617
 2431W        W18905   8.761   2.935   4.996 -0.0129 -0.1015  0.0674
 2432W        W18906   3.190  10.454   5.325 -0.0649  0.0968  0.2104
 2433W        W18907   8.880  10.910   3.152 -0.1511 -0.1261  0.4683
 2434W        W18908  11.655  12.950   0.225 -0.0658  0.1058  0.2272
 2435W        W18909   1.007   3.025   6.199  0.0094 -0.2402 -0.1838
 2436W        W18910   9.742  15.858  16.862  0.0873  0.0862  0.1279
 2437W        W18911   1.343  14.361  11.982 -0.0724  0.1381 -0.2295
 2438W        W18912   7.874  15.119   3.195 -0.0980  0.2137  0.3009
 2439W        W18913   4.595   7.453  13.449  0.1212  0.1226  0.0089
 2440W        W18914  13.889  12.574  13.870  0.4905  0.1428  0.0995
 2441W        W18915  17.067  10.249  12.887  0.1630  0.3288 -0.1622
 2442W        W18916  13.130  12.150  11.563  0.2160  0.1666  0.1079
 2443W        W18917  16.287  11.944   3.205 -0.0043 -0.0723  0.0632
 2444W        W18918   0.598  17.643   1.846  0.1656 -0.0099 -0.0504
 2445W        W18919   8.352  15.026   2.049  0.1050 -0.2077  0.0348
 2446W        W18920   7.476  10.189  14.417 -0.2776 -0.1821  0.2381
 2447W        W18921   4.781  10.275   2.565 -0.0795  0.2278  0.0218
 2448W        W18922  10.343   4.048  11.866 -0.1109  0.1134 -0.0050
 2449W        W18923   7.770   1.449   5.700 -0.1433  0.1014 -0.0631
 2450W        W18924   3.622  10.247  15.453 -0.1291 -0.1314  0.1276
 2451W        W18925   8.027   2.942  12.533  0.0277  0.0534 -0.1290
 2452W        W18926  15.996  14.349  15.878 -0.0261  0.2474 -0.1437
 2453W        W18927   0.551   2.890   0.422 -0.0463 -0.1108  0.2423
 2454W        W18928  14.129  10.324  12.854  0.1584 -0.2572  0.1100
 2455W        W18929   3.537  14.959  16.148  0.1793  0.0709  0.2222
 2456W        W18930   8.706  17.236   2.781 -0.0297 -0.0535 -0.0691
 2457W        W18931  15.399   5.852   0.372 -0.1285  0.0389 -0.1018
 2458W        W18932  14.235   8.365  12.556 -0.0124 -0.1049  0.0075
 2459W        W18933  13.814   8.127  12.669 -0.1278  0.0542  0.0561
 2460W        W18934  10.116  15.066   0.265  0.1301 -0.0110  0.2838
 2461W        W18935  14.016  12.028   4.899  0.1453  0.1828 -0.0170
 2462W        W18936   4.418  10.863  12.431  0.0818 -0.4064  0.4014
 2463W        W18937   2.458   5.621  13.296  0.2631 -0.0690 -0.1050
 2464W        W18938  17.506  13.389  12.389 -0.3113  0.1696 -0.1553
 2465W        W18939  11.068   7.968  16.600 -0.2110 -0.1482  0.1791
 2466W        W18940   7.523   2.711  15.412  0.0486 -0.0987 -0.0942
 2467W        W18941   8.306   6.886   1.115  0.1313  0.0678 -0.3081
 2468W        W18942  16.555   4.772  12.789  0.2904 -0.0241 -0.2144
 2469W        W18943  12.333  15.515   2.352  0.0690  0.0011 -0.0854
 2470W        W18944  14.475   1.198  12.601  0.1051 -0.2563 -0.2528
 2471W        W18945  12.768   7.480   1.485 -0.0384  0.0781 -0.0886
 2472W        W18946   4.347  14.137   5.322 -0.0018  0.1809 -0.2386
 2473W        W18947   1.396  17.087   1.519  0.1931  0.2978  0.0162
 2474W        W18948   1.422  14.595  14.912  0.0222 -0.2967 -0.0820
 2475W        W18949   0.593   7.296   1.601 -0.2613  0.2140  0.0055
 2476W        W18950   6.608  11.641   1.618 -0.0343 -0.3373  0.0186
 2477W        W18951   8.943  10.704  12.097  0.0965  0.1863 -0.0981
 2478W        W18952  10.034   2.605  13.539 -0.0478 -0.1267  0.1976
 2479W        W18953   8.552   5.965   4.759  0.3836  0.0299  0.2216
 2480W        W18954   2.129   0.226   0.180 -0.0491  0.1690  0.0476
 2481W        W18955  11.299   5.350   0.167 -0.3554  0.1328  0.3016
 2482W        W18956  11.953   0.673  12.413  0.1716  0.0902  0.2191
 2483W        W18957  10.027   8.239  14.684 -0.3505  0.4187  0.1326
 2484W        W18958  10.364  10.665  14.598  0.0790 -0.1033  0.0626
 2485W        W18959  17.405  15.620  16.613 -0.2848  0.0884  0.2558
 2486W        W18960  13.585  16.577  16.309  0.0977  0.3063  0.0560
 2487W        W18961   7.586  12.664   0.222 -0.0559  0.1534 -0.0346
 2488W        W18962   5.371   9.354   4.845 -0.2310  0.1312 -0.0004
 2489W        W18963   7.050   1.925  15.060 -0.1515 -0.2432 -0.0252
 2490W        W18964   3.518  17.758  11.930  0.2089 -0.1385  0.3186
 2491W        W18965  15.521   3.056   0.247 -0.0167 -0.0780  0.1294
 2492W        W18966   3.772   2.842   0.539  0.3240 -0.0270  0.0453
 2493W        W18967  14.839   7.477   3.426  0.2150  0.0915 -0.2695
 2494W        W18968   3.679   0.085  12.980  0.1076  0.1210 -0.2388
 2495W        W18969   9.919   5.750  12.990 -0.0249  0.2957 -0.0084
 2496W        W18970   9.892   4.669  13.447 -0.1707 -0.1221  0.0051
 2497W        W18971  16.086   6.851   4.531 -0.3198 -0.0635 -0.0231
 2498W        W18972   7.176  17.771  10.480 -0.0968  0.0398  0.0632
 2499W        W18973   6.390   3.603  10.364  0.0670 -0.2074  0.1328
 2500W        W18974   3.140   2.165  15.567  0.0286 -0.3768  0.1831
 2501W        W18975  10.805   9.053   3.590  0.2213 -0.3294 -0.2605
 2502W        W18976   7.630   4.276   2.837 -0.0014  0.0798 -0.5105
 2503W        W18977   4.301  16.735   3.280  0.4057 -0.1034  0.0978
 2504W        W18978   5.688   0.537  16.736  0.0767 -0.2406  0.0227
 2505W        W18979  16.801   7.819  13.160  0.0389  0.0300 -0.1632
 2506W        W18980   1.874   6.471   2.774 -0.2584 -0.0266  0.1749
 2507W        W18981   1.472  15.821   0.089  0.1168  0.4017 -0.2578
 2508W        W18982  13.384  16.226  16.586  0.2608 -0.0421 -0.0923
 2509W        W18983  17.698   5.766  16.103  0.0419 -0.2359 -0.1594
 2510W        W18984   7.938  15.091   4.847  0.1487 -0.2021  0.0531
 2511W        W18985  17.550   5.944  15.076  0.2948 -0.1658 -0.1092
 2512W        W18986   9.760  14.309  15.770  0.2960  0.3113  0.2551
 2513W        W18987  15.979   6.550  12.850  0.2995 -0.0720 -0.0451
 2514W        W18988   4.283  14.211   2.149  0.0895  0.0009 -0.0453
 2515W        W18989  10.839   0.491   3.911 -0.2852 -0.2384  0.1392
 2516W        W18990   5.951   7.250  12.181  0.1441 -0.1297 -0.1126
 2517W        W18991  17.234   1.773  16.751 -0.0723  0.2064  0.0915
 2518W        W18992   2.290  14.816   5.510  0.2010 -0.0776  0.2323
 2519W        W18993   7.209  15.646   1.931  0.2144  0.1649  0.1111
 2520W        W18994  14.635  15.955  14.829 -0.0746 -0.3222  0.1491
 2521W        W18995  15.208   1.349   4.678  0.0463  0.0232 -0.0120
 2522W        W18996  13.235   4.907   0.217  0.4182  0.4047 -0.1616
 2523W        W18997   5.157   5.952   1.431 -0.0125 -0.1083  0.2083
 2524W        W18998   0.757  14.620  11.723  0.1238  0.0951  0.0232
 2525W        W18999   4.667   1.185   3.882  0.1222 -0.0200  0.0785
 2526W        W19000  11.927   1.396  15.889 -0.0333 -0.0177  0.0738
 2527W        W19001   4.588  12.178   3.525 -0.1587  0.0044 -0.1318
 2528W        W19002  16.889   8.682   3.662 -0.1126  0.2641  0.1594
 2529W        W19003  14.723   7.792   3.804 -0.0267  0.0101 -0.0023
 2530W        W19004   5.042   9.527  11.677  0.3978  0.1093 -0.0675
 2531W        W19005  16.847   1.739  12.185 -0.0923  0.1156 -0.0464
 2532W        W19006  12.888   1.845   5.781 -0.2670 -0.1487  0.1440
 2533W        W19007   5.061  11.279  11.651  0.1147  0.1563  0.1548
 2534W        W19008   0.389   7.562   4.971  0.1332 -0.2466 -0.3183
 2535W        W19009   6.688   3.805   1.114  0.4990 -0.1920  0.2386
 2536W        W19010   9.396  13.350   6.427 -0.1801 -0.1849  0.1148
 2537W        W19011   1.407  15.352   4.718  0.0522  0.1671  0.2304
 2538W        W19012   0.402  15.386  13.721 -0.1815 -0.0932  0.0488
 2539W        W19013  14.123  15.871  12.457  0.3807 -0.0133  0.2238
 2540W        W19014  14.038  12.798  16.329 -0.0610 -0.1775 -0.1392
 2541W        W19015  17.359   4.209   2.824 -0.2138 -0.0258  0.5163
 2542W        W19016  15.038  14.442  11.654  0.2001  0.2234  0.1243
 2543W        W19017   1.671  13.430  16.171 -0.0269  0.0099  0.0937
 2544W        W19018  16.965   9.694  16.122 -0.2012 -0.0272  0.3810
 2545W        W19019   4.237  11.266   0.888  0.0786  0.1335  0.2225
 2546W        W19020  15.500  10.061   2.228 -0.1434 -0.1006  0.0367
 2547W        W19021  15.490   1.659  15.243 -0.3804 -0.3110  0.0593
 2548W        W19022   4.915   0.492  14.963  0.1613 -0.1264  0.0604
 2549W        W19023   9.625   5.474   1.387 -0.1267 -0.0418  0.2469
 2550W        W19024   9.880  10.139   2.335 -0.0478  0.0422 -0.1258
 2551W        W19025  13.559  16.936  14.336 -0.1433  0.2433 -0.1519
 2552W        W19026  13.123   1.946   4.251  0.0903  0.0941  0.2132
 2553W        W19027  14.049   6.618   1.581  0.1225 -0.3111  0.2967
 2554W        W19028  10.619   9.417  12.954  0.0754 -0.1305  0.0676
 2555W        W19029   4.302   0.261   5.474 -0.0834  0.2400  0.1148
 2556W        W19030   0.443   9.608  12.463  0.1573  0.0319 -0.0375
 2557W        W19031   1.629   1.270  15.291  0.0885  0.4095 -0.3294
 2558W        W19032  10.117  15.162   4.879  0.0177 -0.0617  0.5018
 2559W        W19033   2.639  13.217   5.274 -0.1631  0.2513  0.1034
 2560W        W19034  14.078   8.484  14.976 -0.1330 -0.0887  0.0642
 2561W        W19035   4.510   8.691  13.729  0.0465  0.0019  0.1154
 2562W        W19036  13.460   2.909   1.428  0.0557 -0.1328 -0.1163
 2563W        W19037   4.786  11.468  10.853  0.1473 -0.1059 -0.0807
 2564W        W19038   9.958   0.762   6.026  0.0698 -0.3412 -0.3617
 2565W        W19039  17.688   6.145  11.402 -0.0766  0.0851  0.1885
 2566W        W19040   0.338   4.591  14.531  0.3004 -0.2980  0.0892
 2567W        W19041   9.827  16.874   5.013 -0.0846  0.1896  0.1152
 2568W        W19042   8.245   6.913   4.746 -0.1796  0.2458 -0.2659
 2569W        W19043  13.653   9.581  15.377 -0.0175  0.2093 -0.0769
 2570W        W19044   2.282   7.628  12.611 -0.0002  0.0036  0.3257
 2571W        W19045  13.846  10.354   4.194 -0.3502  0.2193  0.1467
 2572W        W19046  16.598  14.181   4.011  0.1671  0.0777  0.0278
 2573W        W19047  17.139  13.765   1.618  0.0252  0.0608  0.2319
 2574W        W19048  14.918   3.144  12.812 -0.1805  0.1239  0.1532
 2575W        W19049  17.813  10.863   4.957  0.0337 -0.0958  0.0268
 2576W        W19050   9.526   9.952   4.760  0.0210  0.1303 -0.1921
 2577W        W19051  12.647   0.346  12.558 -0.1870 -0.2342 -0.2972
 2578W        W19052  11.862   8.944  11.759 -0.2564  0.2211 -0.3913
 2579W        W19053   9.531   5.625   2.326 -0.0431 -0.2950  0.1820
 2580W        W19054  17.583   9.153   4.294  0.1794  0.1718 -0.1804
 2581W        W19055   6.358   3.452  16.129  0.0671  0.1640  0.0854
 2582W        W19056  13.211  11.240  12.604 -0.2926  0.0215 -0.0374
 2583W        W19057  10.182  16.251  15.487 -0.0123 -0.2162  0.0664
 2584W        W19058   6.795  16.746  13.562  0.0261  0.0636 -0.1500
 2585W        W19059   5.537  15.197   0.020  0.0707 -0.4091 -0.1487
 2586W        W19060   8.934   1.722   3.516 -0.1689 -0.1702 -0.1146
 2587W        W19061  13.722   7.503  14.741 -0.0625 -0.2782 -0.0136
 2588W        W19062  13.636   5.064   6.278  0.1823 -0.0894 -0.2048
 2589W        W19063   8.672   8.530   6.022 -0.2715  0.0886  0.0879
 2590W        W19064  11.538  16.905  13.426 -0.3513 -0.3100  0.1499
 2591W        W19065  13.211   1.293   3.089  0.0104  0.2354  0.3843
 2592W        W19066   0.632  16.428  16.805 -0.3935 -0.0549  0.0068
 2593W        W19067  13.454   0.348  15.358  0.1822  0.2569  0.0011
 2594W        W19068   2.312   2.776   2.600 -0.2934 -0.0574  0.0574
 2595W        W19069  13.694  10.368  16.814 -0.1544 -0.1383 -0.2098
 2596W        W19070  14.793  12.584  15.768 -0.0129 -0.0208  0.0153
 2597W        W19071   2.481  12.511  13.704 -0.0624 -0.2403  0.2606
 2598W        W19072  13.660  13.955   2.375 -0.1876 -0.0082 -0.0380
 2599W        W19073   3.217  16.732  12.355  0.1163  0.0901  0.1751
 2600W        W19074   0.745   9.833  15.822 -0.2045  0.1231 -0.1978
 2601W        W19075  11.040   5.092  13.424 -0.0210 -0.1075  0.1017
 2602W        W19076  15.713   1.209   0.621  0.3027 -0.2236 -0.1397
 2603W        W19077  14.125  16.234  12.861 -0.1111  0.0794  0.0747
 2604W        W19078  16.863   6.885   4.000 -0.2340 -0.1101  0.1576
 2605W        W19079   2.964  15.779   3.187 -0.1138 -0.0778  0.0492
 2606W        W19080   5.864   1.771   3.236 -0.0616  0.2254  0.1593
 2607W        W19081   1.233  10.836   0.192  0.1412  0.1293 -0.0011
 2608W        W19082   2.857   6.011   2.464  0.1805  0.1350 -0.1323
 2609W        W19083   2.464   0.848  16.388  0.0417 -0.1315  0.0955
 2610W        W19084   0.614   7.085   4.887 -0.1447  0.1527 -0.1523
 2611W        W19085   6.256  17.525  14.927 -0.0352  0.1210  0.2985
 2612W        W19086  17.050  11.465  16.406  0.1521  0.2886 -0.0521
 2613W        W19087   5.634  16.385   1.369 -0.1087  0.0639  0.0063
 2614W        W19088  10.711  13.311   5.201 -0.0945  0.1601 -0.2450
 2615W        W19089  11.806   1.605   2.129 -0.0757  0.1284 -0.2826
 2616W        W19090  14.209   4.901   2.154  0.0760 -0.1532  0.0634
 2617W        W19091  12.474  11.646   3.367  0.0253 -0.0348 -0.0871
 2618W        W19092   3.507  16.966   1.579 -0.2261  0.0985 -0.2484
 2619W        W19093   5.756   0.339  12.161 -0.0376  0.0892 -0.0674
 2620W        W19094  17.224   0.316  16.621  0.0114  0.3606 -0.1778
 2621W        W19095   7.314  10.438  13.191 -0.3098 -0.0735 -0.0282
 2622W        W19096  14.961  16.422  12.879  0.0856 -0.1119 -0.1983
 2623W        W19097  14.478  14.873  15.192  0.0160  0.0160  0.0538
 2624W        W19098   7.774  15.029   3.756 -0.1902  0.0168 -0.1140
 2625W        W19099   9.583   5.258  15.508 -0.1388 -0.0151  0.1675
 2626W        W19100   9.631   6.080  13.820 -0.4292 -0.2955  0.1147
 2627W        W19101   8.112   3.907   0.733 -0.3368  0.0757 -0.1658
 2628W        W19102   0.710  13.864  16.021  0.0251  0.3348 -0.1789
 2629W        W19103  11.793   2.047   0.702  0.0036  0.2151  0.0898
 2630W        W19104   9.111   8.320  12.408  0.0407 -0.1423 -0.2429
 2631W        W19105   6.259   3.287   4.589 -0.0870 -0.2099 -0.1032
 2632W        W19106   5.090   4.392   0.371 -0.0486  0.0523 -0.2751
 2633W        W19107   7.583  16.771  14.254  0.0734  0.4631 -0.0018
 2634W        W19108   3.305  14.951   1.742  0.2081  0.1155 -0.1869
 2635W        W19109   9.096   1.377   2.025  0.0480  0.0273  0.1062
 2636W        W19110   3.687  10.199   5.192  0.1820  0.3870  0.1459
 2637W        W19111   9.413  13.118   2.417  0.2185 -0.3295  0.1749
 2638W        W19112  16.370   3.903   2.458  0.3054  0.2198 -0.1623
 2639W        W19113  14.311   4.639   4.735  0.0973  0.3814  0.0397
 2640W        W19114   6.149   9.659  13.863 -0.1016  0.1052 -0.0639
 2641W        W19115   8.137  17.107   4.944 -0.1587  0.1668  0.0582
 2642W        W19116   9.351   9.736  12.418  0.0582  0.0377  0.0724
 2643W        W19117   8.304  10.599   5.616  0.2084 -0.1014  0.1998
 2644W        W19118  10.771  15.841   3.009 -0.0513 -0.2058 -0.1224
 2645W        W19119  15.295  16.574  14.479  0.3851  0.0577  0.4548
 2646W        W19120  13.043  15.015  15.056  0.1314 -0.2670  0.0870
 2647W        W19121  12.269  14.395  13.810  0.1483 -0.2469  0.2407
 2648W        W19122  10.037  15.079  11.830  0.0876  0.1690 -0.0833
 2649W        W19123   3.100   0.230  15.674  0.5842  0.1924  0.0809
 2650W        W19124   0.329   3.759  16.155 -0.0005  0.0244  0.2064
 2651W        W19125   3.547  11.148  14.359 -0.3642 -0.1817  0.0431
 2652W        W19126  12.803  12.513   4.742 -0.1844  0.3474 -0.1296
 2653W        W19127  15.891  15.381   5.061 -0.4570  0.0763  0.1345
 2654W        W19128   3.196  15.507   2.845 -0.2460  0.0444 -0.1414
 2655W        W19129   2.424   4.031   2.053 -0.1337  0.0240 -0.2269
 2656W        W19130   4.108   5.864  11.837 -0.3791 -0.0226  0.1806
 2657W        W19131   4.779  12.074   1.271 -0.1237  0.1366 -0.2112
 2658W        W19132   2.654  11.928  11.488 -0.2481  0.2936  0.3229
 2659W        W19133  14.996   2.286  14.357  0.0092  0.0211  0.1630
 2660W        W19134   9.718   4.205   5.776 -0.0038 -0.0028  0.0696
 2661W        W19135  17.320   2.713  16.464 -0.0809  0.0638  0.0693
 2662W        W19136   6.795  12.999   4.612 -0.2320  0.1240 -0.1491
 2663W        W19137  16.455  15.496   5.918 -0.2978  0.0972 -0.1131
 2664W        W19138   0.014  10.168   2.428 -0.1410  0.0732  0.0958
 2665W        W19139   4.261  11.210  12.044  0.2086  0.1087 -0.1093
 2666W        W19140  12.779   8.030   2.085 -0.0503  0.2499  0.0236
 2667W        W19141   0.268   6.841   6.080  0.0468 -0.2522 -0.0721
 2668W        W19142  14.201   1.179   2.663  0.1156  0.1779  0.2255
 2669W        W19143  15.179  13.706  14.334  0.0382  0.1449  0.0619
 2670W        W19144   4.522  15.247  16.789  0.0823 -0.0720 -0.1636
 2671W        W19145  12.222  13.058   5.178  0.0478 -0.0079 -0.1951
 2672W        W19146   9.814   2.576   3.227  0.1028  0.2362 -0.0313
 2673W        W19147   7.322  15.679  12.554 -0.0539 -0.0408 -0.0252
 2674W        W19148   3.475  16.523  11.972 -0.0600  0.2052  0.0198
 2675W        W19149   9.082   6.011   1.827  0.0397  0.0400 -0.0636
 2676W        W19150   2.945  13.239  13.142 -0.0429 -0.0277 -0.1279
 2677W        W19151  14.039  14.413   0.335  0.1627 -0.0397  0.4366
 2678W        W19152   4.305   6.085  16.694  0.1188 -0.1061 -0.0288
 2679W        W19153  13.723  12.458  12.998  0.0675  0.0533  0.3861
 2680W        W19154   7.950  15.297   2.147  0.2955 -0.1769  0.0316
 2681W        W19155  15.409   3.317  13.448 -0.1038 -0.0977  0.1352
 2682W        W19156   3.766   4.298   5.101  0.1502  0.1572 -0.0483
 2683W        W19157  11.600   4.425   0.492 -0.1758 -0.2363  0.1972
 2684W        W19158  16.061   7.763   4.193 -0.1280 -0.2589 -0.1132
 2685W        W19159   1.064   9.746   5.009  0.1149  0.5162  0.0316
 2686W        W19160  15.308   3.208  15.011 -0.0396  0.3860 -0.0287
 2687W        W19161  15.093   3.148  16.311 -0.0209  0.1217  0.3606
 2688W        W19162   0.349   6.830   5.326 -0.0221 -0.0659  0.1065
 2689W        W19163  15.256   0.878   1.076 -0.1095 -0.2693 -0.0619
 2690W        W19164   8.640  13.366  15.639 -0.1244  0.0337 -0.0603
 2691W        W19165  15.359   8.587  15.019  0.0496  0.0339  0.0493
 2692W        W19166   7.829   9.784   4.840  0.1502  0.0316 -0.0116
 2693W        W19167   0.919   9.868  12.461  0.1847  0.0736  0.1644
 2694W        W19168   1.784   6.844   0.308 -0.1277 -0.0422 -0.2378
 2695W        W19169  14.277   7.835   3.493 -0.0976  0.2082  0.0565
 2696W        W19170   9.249   6.142  12.345  0.1532 -0.0195  0.0917
 2697W        W19171   9.195  10.625  15.877 -0.1434 -0.2060  0.0098
 2698W        W19172   4.994   7.831   5.215 -0.1179  0.1682  0.1224
 2699W        W19173   6.915   5.233  14.617 -0.0145 -0.1285  0.4174
 2700W        W19174   7.633  12.211   3.700 -0.0121 -0.1411 -0.1312
 2701W        W19175   5.318   7.420   5.192  0.0050  0.2153 -0.1857
 2702W        W19176  10.127   6.638  14.210  0.1236 -0.3098 -0.0103
 2703W        W19177  16.580   8.183   3.814 -0.3673  0.0242  0.1224
 2704W        W19178  17.417  17.012   3.581  0.0792  0.0208  0.0575
 2705W        W19179  14.812   8.498  12.612  0.1330  0.1557 -0.2804
 2706W        W19180  13.978   6.505  16.362 -0.1265  0.4203 -0.0430
 2707W        W19181   0.615   7.276   0.606  0.2455  0.0194  0.4377
 2708W        W19182  15.081   5.268   4.680  0.0616 -0.1721  0.0131
 2709W        W19183  13.530  17.439  16.531  0.1416 -0.2763  0.3076
 2710W        W19184   9.426  16.257  12.907 -0.2437 -0.1036  0.2776
 2711W        W19185   9.519   4.441   3.464 -0.1854 -0.0286  0.3806
 2712W        W19186   2.566   2.801   5.139 -0.1617 -0.0598 -0.1112
 2713W        W19187   5.475  14.130  11.534  0.1051  0.0366 -0.3465
 2714W        W19188  17.492  15.804  12.525 -0.1822  0.0263 -0.1173
 2715W        W19189   9.702   7.404  14.423 -0.2113  0.0663  0.1133
 2716W        W19190  10.793   6.228   3.842 -0.2523  0.2071  0.0454
 2717W        W19191   3.368   3.327  16.061  0.1380 -0.0163  0.1912
 2718W        W19192  15.585  12.426  15.057 -0.0600 -0.1735 -0.2397
 2719W        W19193   5.096  11.418  12.621 -0.2847  0.1615  0.1525
 2720W        W19194   7.644   0.752   0.024 -0.1021  0.2615  0.0138
 2721W        W19195  10.798  16.585  15.132 -0.0245  0.0184  0.2478
 2722W        W19196  11.078  16.827  11.635  0.1959 -0.1624 -0.0383
 2723W        W19197   0.119  16.061  14.933  0.1422 -0.2971  0.2169
 2724W        W19198  14.641   7.611   1.534  0.2011 -0.0416 -0.3733
 2725W        W19199   5.648   0.916   1.939 -0.3472  0.0351 -0.2470
 2726W        W19200   5.325   6.578  15.552  0.0235  0.1502  0.1789
 2727W        W19201   2.385   0.777  14.784  0.0450 -0.1338 -0.3412
 2728W        W19202   1.100  15.279  12.195  0.1358 -0.2847  0.1192
 2729W        W19203   9.327   1.953  12.692  0.1050  0.1481 -0.2431
 2730W        W19204   7.446   9.036   4.462  0.1104 -0.1352 -0.0282
 2731W        W19205  16.003  16.668  12.144  0.0895 -0.2222 -0.0367
 2732W        W19206   1.016   7.495  15.878  0.0970  0.1012  0.1165
 2733W        W19207   2.626   4.245   3.255  0.0778  0.0012 -0.0229
 2734W        W19208  12.870  14.650   4.364  0.1010 -0.0405  0.0404
 2735W        W19209  11.133   7.571   0.762 -0.2389  0.2461 -0.2605
 2736W        W19210   2.044   5.451   2.691 -0.1591 -0.2200  0.0476
 2737W        W19211   2.365  12.376   4.780  0.2710 -0.0590  0.0615
 2738W        W19212  12.605  17.072   0.129 -0.2870 -0.1380 -0.2695
 2739W        W19213   9.686   9.693  14.257 -0.0761 -0.0124 -0.2094
 2740W        W19214  17.572  13.025  11.405 -0.3446  0.1640  0.1881
 2741W        W19215  14.446  14.488  13.929 -0.0584 -0.2743  0.0680
 2742W        W19216   0.582   0.910  14.340 -0.0020  0.1902 -0.1374
 2743W        W19217   5.368   3.903  15.353  0.0689  0.0066  0.1151
 2744W        W19218   0.329  12.945   4.000 -0.0869  0.1264  0.1620
 2745W        W19219  14.490  14.891  12.348  0.0323  0.1329 -0.0273
 2746W        W19220   1.635  12.991  14.274 -0.2159 -0.0834 -0.1213
 2747W        W19221  13.103   8.983  12.252 -0.1192 -0.1286  0.1498
 2748W        W19222  16.417   7.679  10.699  0.0734 -0.0790 -0.1907
 2749W        W19223   3.079   5.373   5.609  0.3578  0.1008 -0.0521
 2750W        W19224   2.990   1.040   2.186 -0.0487 -0.1005  0.2460
 2751W        W19225   2.474   5.142  16.608 -0.0099 -0.1382  0.0320
 2752W        W19226   1.090  10.468  13.290 -0.0264 -0.3341  0.0522
 2753W        W19227   7.846  15.420   0.121 -0.2642  0.1573  0.0897
 2754W        W19228  13.515  17.776  13.052  0.0245  0.0954  0.0158
 2755W        W19229  13.379  12.232  14.728 -0.1501 -0.1299  0.0652
 2756W        W19230   7.864   5.210   2.535 -0.0807 -0.0307  0.0293
 2757W        W19231   3.331  16.003   2.818 -0.1025 -0.1009 -0.0917
 2758W        W19232  10.751  17.396   0.087 -0.0824 -0.1118  0.0986
 2759W        W19233  16.002   3.916  15.252  0.0604 -0.1510  0.0653
 2760W        W19234   0.459  16.847  11.954 -0.2051  0.0354  0.2823
 2761W        W19235   0.660   5.539   4.343 -0.1694  0.0087  0.1211
 2762W        W19236  17.704  11.451   2.187 -0.1990  0.0347  0.0878
 2763W        W19237   8.867  13.395   4.272 -0.0676 -0.1039 -0.2970
 2764W        W19238   9.008  12.395   4.730 -0.2984  0.0897  0.1010
 2765W        W19239   5.188  10.356   5.575 -0.1090  0.2702 -0.1598
 2766W        W19240   1.153   3.621  14.476 -0.1240  0.2445 -0.0544
 2767W        W19241   3.027  12.641  15.298 -0.2761 -0.1960  0.1691
 2768W        W19242  17.293   4.296  13.064  0.0127 -0.1236  0.0123
 2769W        W19243  15.301  14.434   0.896  0.0362  0.0308  0.2073
 2770W        W19244   3.013   1.615  13.145 -0.6396  0.1794  0.1490
 2771W        W19245   9.456  13.974  13.902 -0.3838  0.1106 -0.3309
 2772W        W19246  13.379   9.094  15.521 -0.1529  0.2596 -0.0772
 2773W        W19247   0.023  17.575  14.960  0.2213  0.1744 -0.0232
 2774W        W19248  16.911  13.297  13.276 -0.0957  0.3029 -0.2243
 2775W        W19249  12.753  11.038  12.823  0.4441  0.0775 -0.1640
 2776W        W19250  10.951  10.424  13.348  0.0409 -0.1124 -0.0895
 2777W        W19251   7.308   3.140  11.715 -0.0181  0.0089  0.0872
 2778W        W19252   2.714   1.790  16.550  0.0095 -0.2341 -0.4244
 2779W        W19253  11.339   2.038   2.835 -0.0846  0.2385 -0.0935
 2780W        W19254   0.343  15.461  14.734 -0.1403  0.1702 -0.1780
 2781W        W19255   0.661   0.223   4.931  0.1645 -0.0348 -0.2370
 2782W        W19256   0.110   5.454   3.621 -0.1060 -0.0132 -0.0116
 2783W        W19257  12.431   8.299   5.670 -0.0758 -0.1242  0.0182
 2784W        W19258   7.199   8.010   2.738  0.0166  0.0671 -0.1328
 2785W        W19259   2.979   2.947   4.336 -0.2194 -0.1236 -0.0111
 2786W        W19260  15.484   2.451  12.438  0.2824  0.1296 -0.0288
 2787W        W19261  16.259  15.724  13.120  0.1014 -0.1011 -0.0735
 2788W        W19262  14.594   4.909   1.797 -0.2983  0.2834  0.0618
 2789W        W19263  15.727  14.210   4.414 -0.1972 -0.0750 -0.0385
 2790W        W19264   6.443   3.930  14.547 -0.1226 -0.1093 -0.0892
 2791W        W19265   1.949   4.507   2.433 -0.0675 -0.1759  0.2254
 2792W        W19266   9.350  10.704   1.852 -0.3132  0.0519 -0.0552
 2793W        W19267   4.887   4.306   5.149  0.2346 -0.1321 -0.1075
 2794W        W19268   3.489  12.768  15.533  0.0518 -0.4066  0.2968
 2795W        W19269  17.722  14.976  12.328 -0.2677  0.2329 -0.3650
 2796W        W19270  15.024  17.656  13.152  0.0268  0.0787 -0.3204
 2797W        W19271   8.041   0.797   0.784 -0.4709 -0.1634 -0.1978
 2798W        W19272  16.037   4.947   3.427 -0.1098 -0.0462 -0.1652
 2799W        W19273  13.164  11.748   5.151 -0.0836 -0.4461  0.2289
 2800W        W19274  10.419  12.194  16.419 -0.2488  0.3211  0.1432
 2801W        W19275  14.444   1.280  16.363 -0.0714 -0.1683  0.0316
 2802W        W19276  12.663  10.470  15.793  0.1423 -0.0898 -0.0252
 2803W        W19277   2.722   3.470  12.318  0.2251  0.1514  0.0015
 2804W        W19278   4.037   0.133  13.293 -0.0045  0.0099  0.0154
 2805W        W19279   0.079   2.916  12.844 -0.1233  0.1318 -0.0267
 2806W        W19280  11.377  13.149   2.307  0.1577 -0.3410  0.0332
 2807W        W19281  16.957  12.422  16.369 -0.4023 -0.0416 -0.3176
 2808W        W19282  10.068  10.289   1.802  0.0517 -0.1342  0.1738
 2809W        W19283  14.417   6.398  15.040  0.0362  0.4476  0.0942
 2810W        W19284  15.604   8.863   1.955  0.1132  0.0291 -0.3629
 2811W        W19285  16.600  11.798  14.418  0.0274  0.2824  0.3932
 2812W        W19286  10.848   6.497   4.272  0.0237  0.0762 -0.2363
 2813W        W19287   3.312   3.990  12.629 -0.1121 -0.0957  0.1727
 2814W        W19288   0.960  12.703  16.672 -0.1092 -0.1416 -0.1716
 2815W        W19289   2.620  13.225  15.960 -0.1403 -0.0517  0.2085
 2816W        W19290   3.300  17.131  13.079  0.3001 -0.2197 -0.1540
 2817W        W19291  10.385  16.458  12.952  0.0592  0.0982  0.1418
 2818W        W19292   3.789   7.525   1.088 -0.2660  0.0571 -0.2123
 2819W        W19293   6.287   1.284  13.795 -0.1597 -0.2360  0.0252
 2820W        W19294   3.285  13.074  11.485  0.0724  0.1701  0.0074
 2821W        W19295   2.935   1.680  12.573  0.2560  0.2021  0.0775
 2822W        W19296   2.669  17.184   4.890 -0.0738  0.0505 -0.1214
 2823W        W19297  17.277   7.229   3.144  0.1964 -0.0384 -0.2285
 2824W        W19298   3.292  10.911   2.089  0.0681 -0.1474  0.3616
 2825W        W19299   3.970   2.394   5.114 -0.0001 -0.0541  0.1579
 2826W        W19300   7.777  10.928  14.968  0.0311  0.1210 -0.0994
 2827W        W19301  15.455  16.293   0.158  0.0831  0.1616 -0.1993
 2828W        W19302   7.030   6.184  13.740  0.1885  0.2121  0.2091
 2829W        W19303   8.883   1.401   4.894  0.1050 -0.0059 -0.0504
 2830W        W19304  17.442  13.963   5.550 -0.0977 -0.1284  0.0709
 2831W        W19305   8.124  16.907  14.189 -0.1138  0.3507 -0.2054
 2832W        W19306  14.150   2.517   4.694 -0.1825 -0.3328  0.1112
 2833W        W19307   9.308  11.939  13.203  0.0665  0.1410 -0.0924
 2834W        W19308  11.062   3.941  16.225 -0.2975  0.1091 -0.0408
 2835W        W19309   7.982  12.486  16.229 -0.0637 -0.0345 -0.0903
 2836W        W19310   9.309   3.077   0.033 -0.0438  0.3015  0.1354
 2837W        W19311  12.174   8.009   5.020  0.2253 -0.2705 -0.0095
 2838W        W19312  17.237   7.293   5.918  0.0765  0.0914  0.0025
 2839W        W19313   1.662   9.240  13.467 -0.1005  0.2595  0.0278
 2840W        W19314   5.585  16.101  16.542 -0.0139  0.1006  0.1318
 2841W        W19315  12.698  10.876  11.803 -0.1482  0.5526 -0.0407
 2842W        W19316   5.561   2.991  14.949 -0.0598  0.0625 -0.0661
 2843W        W19317   0.041   5.127   0.881  0.0939 -0.0136 -0.2979
 2844W        W19318  12.177  17.521  14.080 -0.0861 -0.0821  0.0625
 2845W        W19319   4.574   9.299  11.644  0.1211 -0.1131 -0.2650
 2846W        W19320   8.754   3.596  16.227 -0.0217 -0.0262  0.0337
 2847W        W19321  17.793  14.738  16.787 -0.3515 -0.3484  0.1194
 2848W        W19322  15.957  12.813   1.301 -0.1538 -0.0450 -0.2753
 2849W        W19323  11.035   9.073  12.808  0.1439  0.0345  0.1276
 2850W        W19324   1.805  12.066   2.406  0.3862  0.3595  0.2073
 2851W        W19325   0.072   2.500   5.396  0.0246 -0.0044  0.2122
 2852W        W19326  11.900  12.911  11.862  0.0621 -0.2594  0.2171
 2853W        W19327   1.560   5.150   0.151  0.3172  0.1162 -0.1977
 2854W        W19328   7.570   1.040   0.905 -0.4219  0.0153 -0.0203
 2855W        W19329   9.046   7.077   3.065 -0.2433  0.1557 -0.1171
 2856W        W19330  10.788  15.220  15.267 -0.0781 -0.3485 -0.0114
 2857W        W19331   3.589  13.418  14.854 -0.2775 -0.1062 -0.1526
 2858W        W19332   0.936  11.871  10.947  0.2922  0.0743 -0.1595
 2859W        W19333   5.998   5.811  16.291  0.1419  0.2106 -0.3731
 2860W        W19334   0.230   9.081  14.804  0.2097  0.0741 -0.2635
 2861W        W19335   4.697   3.437  13.338  0.1411  0.1200  0.0328
 2862W        W19336   1.873  15.338  12.849 -0.0704  0.0522 -0.0048
 2863W        W19337   5.380   2.118   4.108  0.0821 -0.4220 -0.0123
 2864W        W19338   1.935   7.253   1.668  0.2399 -0.0961 -0.0985
 2865W        W19339  10.682   6.999  16.054 -0.0053 -0.0039 -0.0370
 2866W        W19340   3.595  16.716   5.104  0.0483 -0.1793 -0.0017
 2867W        W19341  13.248   1.798   2.940  0.4037  0.1453 -0.1582
 2868W        W19342  17.299  11.770   3.969 -0.1990  0.0202  0.3001
 2869W        W19343   0.374   7.724  16.244  0.3459 -0.0515 -0.1837
 2870W        W19344  17.555   1.414  14.583 -0.0613 -0.0014  0.2335
 2871W        W19345   2.777   3.555   5.913  0.4616  0.2505 -0.2061
 2872W        W19346   4.655   9.190  12.425 -0.2543 -0.3638  0.2321
 2873W        W19347   5.348  17.035  16.488  0.1699  0.0593  0.1110
 2874W        W19348  17.272   7.430   5.205  0.2962 -0.1149 -0.1295
 2875W        W19349  17.509   1.028  11.875 -0.1963 -0.0557  0.1607
 2876W        W19350   1.716  15.229   0.746 -0.2959  0.0702  0.2912
 2877W        W19351  12.724   4.054   2.487  0.3466  0.0285 -0.1978
 2878W        W19352   5.065  12.447   4.854 -0.2570  0.1500  0.1186
 2879W        W19353   1.525   4.873   0.579  0.2417  0.1900  0.0292
 2880W        W19354   3.524   8.635  16.301  0.1740 -0.0807  0.1926
 2881W        W19355   6.283  13.386   5.267  0.3350 -0.0266  0.2586
 2882W        W19356  11.918   0.446   3.550 -0.1474 -0.3206 -0.1000
 2883W        W19357   5.921  17.357  11.842 -0.1450  0.2298  0.0707
 2884W        W19358   4.406   2.073   5.611  0.1645 -0.0819 -0.0238
 2885W        W19359   7.037   2.921   2.881 -0.0197  0.1596  0.0710
 2886W        W19360   0.382   9.482  16.740  0.1718  0.0639  0.2151
 2887W        W19361   5.321  12.701  15.856  0.4182 -0.0389 -0.2982
 2888W        W19362  16.822   9.881  15.378  0.0032  0.0601  0.2498
 2889W        W19363   7.317   8.946  14.910 -0.0178  0.4390 -0.2159
 2890W        W19364  13.600   9.977   0.181 -0.0829  0.0514 -0.1163
 2891W        W19365  14.532   4.268  12.066 -0.0992  0.3787  0.2101
 2892W        W19366   3.186  15.842   5.044  0.0022 -0.1304 -0.3245
 2893W        W19367  17.299   7.529  16.292  0.1360  0.0280  0.0509
 2894W        W19368   4.918   1.708  15.508 -0.1858  0.0741  0.1185
 2895W        W19369   5.292  11.614   4.446  0.0674 -0.1015 -0.3519
 2896W        W19370  16.500  17.489   0.914 -0.1294  0.0830 -0.0813
 2897W        W19371  17.545  12.991  14.600  0.2071 -0.0990 -0.0231
 2898W        W19372   2.502  10.570   4.443  0.1808  0.4052  0.0389
 2899W        W19373  12.478   4.989   3.761  0.1375 -0.0311 -0.0097
 2900W        W19374  12.091   5.970   0.828  0.0050 -0.0143 -0.3441
 2901W        W19375   6.578   2.061  14.927 -0.0030 -0.3556 -0.1666
 2902W        W19376  15.166   5.694   5.606  0.1553  0.0459  0.1289
 2903W        W19377   2.802  12.291   3.843  0.2228  0.0678  0.1100
 2904W        W19378  12.133   8.411  11.842  0.0004  0.2114  0.0357
 2905W        W19379  14.860   5.259   3.731  0.4777  0.1490  0.0709
 2906W        W19380  14.587  17.589   4.453 -0.1053 -0.3163  0.0379
 2907W        W19381   5.269  11.836  13.921 -0.0614  0.1153 -0.0128
 2908W        W19382   9.155  16.871   4.389  0.2393  0.3339  0.0030
 2909W        W19383  15.127  15.779   5.701  0.3000  0.2397  0.0948
 2910W        W19384   1.371  16.179   3.861  0.1468  0.2529  0.1222
 2911W        W19385  14.602  10.710   3.797  0.0711 -0.2307 -0.3111
 2912W        W19386   0.340   1.561  16.380  0.0788 -0.0081 -0.0256
 2913W        W19387   2.784  11.954   0.734  0.1870  0.0579  0.3173
 2914W        W19388   4.769  17.455  12.322 -0.1681  0.1216  0.2870
 2915W        W19389  12.349   7.436   4.441  0.0064 -0.0325 -0.1960
 2916W        W19390  17.273   4.221   5.692 -0.1888 -0.1818 -0.0270
 2917W        W19391  17.569  17.749  13.472 -0.1422  0.0249 -0.0275
 2918W        W19392   2.778   0.462   3.107  0.1335  0.5060  0.1973
 2919W        W19393   5.155   9.277   5.653  0.1551  0.2654 -0.0289
 2920W        W19394   2.089   7.850   4.126 -0.0486 -0.2608 -0.0560
 2921W        W19395  15.750   6.360   5.712 -0.0552  0.1164 -0.0941
 2922W        W19396   1.643   6.545   0.679 -0.4238 -0.0323  0.0639
 2923W        W19397   3.319   2.856   0.649  0.0363 -0.1587  0.1548
 2924W        W19398  14.889   9.554  16.067  0.2191 -0.4119  0.1679
 2925W        W19399  15.824   4.515  13.865 -0.2623 -0.1460 -0.2941
 2926W        W19400   8.944   9.693  15.543 -0.0770  0.0140  0.5310
 2927W        W19401   5.663   0.380   5.147 -0.0223  0.0383 -0.0468
 2928W        W19402   1.653   6.532  12.824  0.0208  0.1961 -0.0247
 2929W        W19403   0.027  11.631  11.665 -0.2507  0.2505  0.3323
 2930W        W19404  13.353  14.317   2.008  0.2857  0.1956  0.2057
 2931W        W19405  10.999  10.691  16.367 -0.0258  0.0066  0.2182
 2932W        W19406   0.023   4.120   0.079 -0.0259 -0.0748  0.0170
 2933W        W19407   9.882   9.743   4.372  0.0065 -0.0095 -0.0870
 2934W        W19408   3.879  16.726   2.477  0.1116 -0.1148 -0.0045
 2935W        W19409   3.214   0.502   2.208  0.0978 -0.1224  0.2340
 2936W        W19410   6.045   6.657  16.267 -0.1897  0.2532  0.0428
 2937W        W19411   5.937   5.303   0.851 -0.1522 -0.3620  0.0954
 2938W        W19412   1.191   4.761   3.146 -0.0120 -0.0660 -0.1481
 2939W        W19413   6.409  10.029   1.781  0.1986 -0.0392  0.4160
 2940W        W19414   7.057  14.784  13.710 -0.1289  0.0089  0.1681
 2941W        W19415   7.734   6.824   4.770  0.1291 -0.2323  0.0300
 2942W        W19416  16.795   8.038  12.596 -0.3376 -0.2603 -0.0994
 2943W        W19417  14.563  12.181   4.769  0.3740  0.1694  0.3007
 2944W        W19418  12.424   1.256   0.106  0.1865 -0.0621 -0.0286
 2945W        W19419   9.052   3.562   0.016  0.0725  0.3107 -0.1519
 2946W        W19420   9.300   1.051   2.796  0.1868  0.0164 -0.1019
 2947W        W19421   8.888   7.573  13.753  0.2769  0.1349  0.1985
 2948W        W19422   5.355  12.886   2.181 -0.0995  0.1034  0.0873
 2949W        W19423  13.795   9.934  13.652  0.2625  0.3347 -0.0244
 2950W        W19424  11.707  14.498   1.412  0.1899 -0.0307 -0.0067
 2951W        W19425   1.655   3.058   2.142  0.3183 -0.0877 -0.0850
 2952W        W19426   9.072  15.713  12.353  0.0592 -0.0783  0.1241
 2953W        W19427  12.165   2.088   2.781  0.0289 -0.0194  0.1785
 2954W        W19428  11.178  13.350   5.462 -0.3426  0.0603  0.0510
 2955W        W19429  15.604  17.179  14.729 -0.0464  0.4018  0.0248
 2956W        W19430  12.046   5.817  16.317 -0.1955 -0.0587 -0.0922
 2957W        W19431  14.482   4.419  16.394 -0.1465  0.0628 -0.0697
 2958W        W19432  10.260  17.015  12.725 -0.2385  0.1249  0.2565
 2959W        W19433   1.555   3.095   3.171  0.1164 -0.1474  0.1699
 2960W        W19434   7.775   3.311  13.329 -0.1665  0.3295  0.0513
 2961W        W19435   2.188   9.478   2.010  0.3085 -0.1510  0.0745
 2962W        W19436  11.576   3.397   0.484 -0.0075 -0.1485  0.0844
 2963W        W19437  14.510   2.045   5.437  0.0821 -0.1752 -0.1746
 2964W        W19438   3.901  11.742   1.449 -0.3739  0.2045  0.1594
 2965W        W19439  15.623  14.506  11.791 -0.0228 -0.0866  0.2944
 2966W        W19440  10.185   1.405  11.766 -0.1276  0.0901  0.0019
 2967W        W19441  12.252  16.929  14.074 -0.0997 -0.0516  0.1865
 2968W        W19442   3.963  13.217   3.850 -0.3407  0.2066 -0.1414
 2969W        W19443   9.033  15.762   3.225  0.0749 -0.1876  0.1026
 2970W        W19444  15.376   2.168  15.233 -0.1175  0.1024  0.1232
 2971W        W19445  12.192   9.402   3.200 -0.3273 -0.4428 -0.1762
 2972W        W19446  10.853   1.982  14.483  0.1230 -0.1445  0.0918
 2973W        W19447  11.506  15.467  12.315 -0.1510  0.1006  0.1894
 2974W        W19448  16.792   8.614   5.336 -0.1115  0.2934  0.0015
 2975W        W19449   4.416   2.708  16.616 -0.0200  0.0109  0.0815
 2976W        W19450  13.821   7.395  16.532 -0.0722  0.1447  0.0240
 2977W        W19451   7.425   5.449   2.619 -0.0376 -0.0388  0.0289
 2978W        W19452   5.330  15.088  12.660 -0.3878  0.0855  0.1234
 2979W        W19453   4.144  14.148   4.898 -0.0586  0.0774  0.0820
 2980W        W19454   9.003   9.011  12.301 -0.0227  0.2737  0.3895
 2981W        W19455   9.762  13.892   5.676  0.0178  0.0160 -0.0240
 2982W        W19456  13.659   5.067   0.527 -0.1230  0.1535  0.0871
 2983W        W19457   5.147  11.223   0.565  0.2068  0.0069  0.1537
 2984W        W19458   8.576   5.209   1.400  0.0726 -0.2300 -0.2627
 2985W        W19459   7.021  10.971  16.475 -0.2164  0.2714 -0.0368
 2986W        W19460  12.267  11.821  15.358 -0.1288 -0.4433 -0.1359
 2987W        W19461  17.733  16.300   2.091  0.1176  0.1025  0.1974
 2988W        W19462  12.088   4.050   1.739  0.1722  0.0836 -0.1740
 2989W        W19463  13.436  10.823   4.961 -0.0205  0.1269 -0.0021
 2990W        W19464   2.299  15.055  12.615  0.0358  0.0099 -0.1568
 2991W        W19465   8.177   3.442   0.520 -0.0901 -0.1749  0.0470
 2992W        W19466  15.689  15.051  12.518  0.1136  0.1690  0.1881
 2993W        W19467  17.228   2.918   4.064  0.1787 -0.0692 -0.1628
 2994W        W19468  13.600   8.049  15.754 -0.1947  0.0407  0.0907
 2995W        W19469  16.952   2.442   2.851  0.0057  0.2374 -0.0505
 2996W        W19470  15.633   8.085  13.857 -0.1173  0.1242  0.0872
 2997W        W19471   2.394   8.139   3.396 -0.0333  0.1846  0.2594
 2998W        W19472  10.080  15.990  14.589  0.0791 -0.1373  0.0133
 2999W        W19473   0.746  13.828  13.818 -0.1337  0.2363 -0.0296
 3000W        W19474  10.840  14.938  13.439 -0.0748  0.0909 -0.0221
 3001W        W19475  10.099   0.591   4.096 -0.0383  0.1636  0.1350
 3002W        W19476   0.963   5.790  13.823  0.0984 -0.1281 -0.0385
 3003W        W19477  10.324   0.227  14.741 -0.0091  0.0494  0.2678
 3004W        W19478  11.351  14.063   2.897  0.0335  0.1253  0.0830
 3005W        W19479  10.503   9.128   5.039 -0.0564 -0.1883  0.1961
 3006W        W19480   2.023   0.205   4.633  0.2268  0.1135 -0.0528
 3007W        W19481   9.369  13.846   0.227  0.0257  0.1494 -0.1788
 3008W        W19482  12.913  15.704  15.388 -0.0959 -0.0490  0.0109
 3009W        W19483  14.026   3.832   6.270 -0.2321  0.1265  0.3347
 3010W        W19484   8.631   6.107   3.047  0.0846 -0.2104 -0.0506
 3011W        W19485  17.648   3.032   3.602 -0.3136 -0.3067  0.1220
 3012W        W19486  12.238  15.906  15.955  0.3444  0.4332 -0.1558
 3013W        W19487   9.485  16.823   5.399 -0.0067 -0.0994  0.0718
 3014W        W19488   5.098  14.912  16.573 -0.1622  0.0729  0.0379
 3015W        W19489   0.559  12.479  16.928 -0.1464 -0.1322  0.0584
 3016W        W19490   7.744   9.000  12.094 -0.1362  0.1705 -0.3270
 3017W        W19491   0.413  16.046   1.113  0.0350 -0.0098 -0.0408
 3018W        W19492   7.640  12.260  14.411  0.1789  0.5380 -0.3318
 3019W        W19493  14.491  12.842  13.193  0.2949  0.1023  0.0060
 3020W        W19494   1.979   7.811  14.006 -0.1385 -0.0702 -0.1138
 3021W        W19495   9.622   9.492   5.543  0.3432  0.1677 -0.0294
 3022W        W19496   7.998  14.811  16.474 -0.2767  0.1937 -0.0518
 3023W        W19497  12.185   2.599   1.746 -0.3473 -0.0894 -0.1025
 3024W        W19498   7.381   9.704  13.699  0.0150 -0.1688  0.3950
 3025W        W19499   5.693  17.414   3.843 -0.4145 -0.0010 -0.0533
 3026W        W19500   4.124  13.037   1.820  0.1177  0.2096 -0.1862
 3027W        W19501   4.113   1.527  16.419 -0.0615 -0.0441  0.0464
 3028W        W19502  12.881   5.233   5.504 -0.1816 -0.0613  0.3916
 3029W        W19503   3.389   0.807   4.819  0.2046  0.1434 -0.0387
 3030W        W19504  15.379   6.766   0.671 -0.1461 -0.1264  0.1623
 3031W        W19505  17.157  17.663   5.345 -0.1976 -0.2309 -0.2200
 3032W        W19506  15.207  15.778   3.897 -0.0838 -0.0176  0.1459
 3033W        W19507   7.083  10.900   1.741 -0.1744  0.3062  0.1890
 3034W        W19508   6.114   7.146  16.460  0.3719 -0.0883  0.2277
 3035W        W19509   8.699  12.762   4.862  0.1438 -0.0262  0.1191
 3036W        W19510   8.650  16.257   3.899  0.1740  0.0163 -0.1733
 3037W        W19511   6.942  16.215   3.526  0.1418 -0.0155 -0.2170
 3038W        W19512  11.048  11.886   0.278  0.0076  0.1212  0.2483
 3039W        W19513   6.944   3.918   4.839  0.0049  0.0035  0.3865
 3040W        W19514  11.714   5.390   4.057 -0.1034  0.1534  0.1137
 3041W        W19515   2.977   6.152  14.813  0.1149  0.0384  0.0195
 3042W        W19516   7.560   8.986  12.539 -0.1817  0.1798  0.0612
 3043W        W19517  15.745   1.023  12.136  0.3473  0.0174  0.0173
 3044W        W19518  13.179   2.710   2.255 -0.0160  0.2251  0.1413
 3045W        W19519  17.468   8.857  15.637 -0.0178 -0.0905 -0.1740
 3046W        W19520  13.266   9.676  14.387 -0.0612  0.1239 -0.1249
 3047W        W19521   4.690   4.989   2.808  0.0772  0.1587 -0.1772
 3048W        W19522  14.147   9.347   0.829  0.3355 -0.0905 -0.0564
 3049W        W19523   5.843  12.596   3.680 -0.0049 -0.0911  0.1700
 3050W        W19524   7.871  11.761   1.032  0.1475  0.0177  0.0848
 3051W        W19525  16.976   7.803  15.120  0.0156  0.2193 -0.2166
 3052W        W19526   7.167  12.851   4.934  0.0588 -0.1056 -0.0023
 3053W        W19527  14.745  14.772  11.900  0.2202  0.2844  0.0432
 3054W        W19528   0.059   4.296  14.844  0.0924 -0.1732  0.2690
 3055W        W19529   1.024   6.086   4.954  0.0430 -0.0343  0.0103
 3056W        W19530   6.567  11.298  10.388 -0.1455  0.0394 -0.1192
 3057W        W19531  11.621  16.020   1.996  0.1788 -0.1471  0.1577
 3058W        W19532  16.169  13.477  13.784 -0.0487 -0.1211 -0.1537
 3059W        W19533   2.760   8.265   0.005 -0.0873 -0.0532 -0.0501
 3060W        W19534  10.371  16.920   3.429 -0.0869  0.0095 -0.1449
 3061W        W19535  12.859  16.655   5.175 -0.0755 -0.1265  0.1913
 3062W        W19536  15.632   2.713   3.115  0.0839  0.1734  0.1229
 3063W        W19537  11.327  16.281   4.109  0.0008  0.1786  0.1001
 3064W        W19538  10.028   4.006   3.172 -0.0246 -0.2017 -0.0704
 3065W        W19539   6.243   5.303  13.877  0.0126 -0.2189  0.1493
 3066W        W19540   6.721   0.078  13.644 -0.2048 -0.1715  0.0541
 3067W        W19541  11.074  17.265   6.288 -0.0096 -0.0400  0.1460
 3068W        W19542   5.955   5.797   2.514  0.3320  0.0123  0.2461
 3069W        W19543   7.254   7.694  13.062 -0.1623  0.1783 -0.1579
 3070W        W19544  15.387  16.238   4.066 -0.1422  0.0841 -0.2011
 3071W        W19545   4.736   5.453  13.982 -0.0678 -0.3694 -0.1436
 3072W        W19546  17.208   6.611  12.158 -0.1328 -0.2996 -0.1039
 3073W        W19547   6.514   9.262   2.932 -0.0125  0.1556  0.0262
 3074W        W19548   9.736  14.849  14.920  0.0639 -0.1158 -0.1697
 3075W        W19549  13.348  14.687  16.762  0.0289 -0.2062  0.0097
 3076W        W19550  17.421  16.504   1.342 -0.0540  0.0944  0.0568
 3077W        W19551   0.860  14.723   1.681 -0.1763  0.0010  0.0736
 3078W        W19552   4.632  15.995   4.204 -0.0037 -0.0520 -0.2972
 3079W        W19553   8.715   1.467   0.730 -0.1151  0.2142 -0.0953
 3080W        W19554   5.626   0.104   1.658  0.3413  0.0519  0.0660
 3081W        W19555   7.059   9.227  13.715 -0.0418  0.0459 -0.1064
 3082W        W19556   3.809  17.418   1.444 -0.1306  0.0735 -0.1973
 3083W        W19557  10.779   0.076   1.502 -0.0665  0.1106  0.0875
 3084W        W19558  10.631   5.419  15.702  0.0047 -0.0359 -0.0172
 3085W        W19559  11.851   0.856  13.437  0.1688 -0.0035  0.3297
 3086W        W19560  11.938  15.813   0.898  0.5693  0.1354 -0.2338
 3087W        W19561  16.432  12.162   4.469 -0.1454  0.2545 -0.1327
 3088W        W19562   7.238  17.063   3.146  0.0746  0.1133  0.1093
 3089W        W19563  16.749  10.511  13.163 -0.0037 -0.1237 -0.2845
 3090W        W19564   7.519   4.574   5.629 -0.0913 -0.0289  0.0797
 3091W        W19565  11.658  10.318   3.627  0.0442 -0.1961 -0.0489
 3092W        W19566   6.136  17.697   0.939  0.1889  0.0369 -0.0130
 3093W        W19567   5.466   0.191   0.732 -0.0371  0.1826 -0.0086
 3094W        W19568   4.956   7.449   4.021 -0.0805  0.1094  0.2952
 3095W        W19569   6.975   0.819   4.643 -0.0655  0.4947  0.2516
 3096W        W19570  14.246   2.596   0.426  0.0880  0.1389  0.0616
 3097W        W19571  15.867  16.746  15.708 -0.0331  0.0195 -0.5052
 3098W        W19572   2.185  12.465  14.339 -0.3099  0.0596 -0.0908
 3099W        W19573  13.716  14.910   4.800  0.1002  0.0962 -0.0093
 3100W        W19574   4.698   0.929   3.018 -0.0974  0.0105  0.1318
 3101W        W19575   1.174   7.325  16.746  0.0679  0.1006 -0.0358
 3102W        W19576   3.380  11.709  15.290  0.1797 -0.2627  0.2477
 3103W        W19577  15.613  12.637   0.887  0.1287 -0.1256  0.2434
 3104W        W19578  14.212   7.610   4.119 -0.0291 -0.0711 -0.2762
 3105W        W19579   8.722   2.750   3.581  0.1522  0.2032 -0.3530
 3106W        W19580  15.566   7.497  13.993  0.0969 -0.0397 -0.1210
 3107W        W19581   0.115  17.344   1.303 -0.1528  0.4726 -0.0373
 3108W        W19582   9.376   0.969  11.186  0.1845  0.2122 -0.1020
 3109W        W19583   2.795  14.075   3.618  0.2662  0.0154 -0.0544
 3110W        W19584   0.884   2.582  13.607 -0.1965 -0.2308 -0.0962
 3111W        W19585  15.610   1.983   1.742 -0.1520 -0.0423 -0.3099
 3112W        W19586   2.211  16.500   5.391  0.1609 -0.0448  0.2108
 3113W        W19587  10.443  10.868  12.819  0.0296 -0.2222  0.2441
 3114W        W19588   9.374  10.988  16.391  0.2221  0.0384 -0.3032
 3115W        W19589  14.340   6.586  13.467  0.1656 -0.1055 -0.0273
 3116W        W19590  11.459   8.651   0.029  0.4649  0.2566  0.0057
 3117W        W19591   3.384  16.054   4.601  0.0380  0.1381 -0.0980
 3118W        W19592   9.957   0.471  14.292 -0.2656  0.0281 -0.3332
 3119W        W19593   2.243   8.189  14.874  0.0436 -0.1461 -0.2886
 3120W        W19594   0.771   1.914  15.619 -0.0036 -0.1477 -0.1172
 3121W        W19595  12.077  16.339  14.644  0.1092 -0.1522  0.1743
 3122W        W19596  15.458  10.951  15.627 -0.0053  0.0901 -0.1253
 3123W        W19597  16.575   5.701   5.259 -0.1274  0.1917 -0.0275
 3124W        W19598   7.270  11.921   0.301  0.0188  0.1710  0.1374
 3125W        W19599   4.701   9.566   4.538 -0.2380  0.1220 -0.2489
 3126W        W19600  13.562  11.938  12.381  0.1368 -0.0984 -0.0934
 3127W        W19601   6.683  15.561   0.850  0.1617 -0.0956 -0.0789
 3128W        W19602  14.155   2.542  12.891  0.0620  0.1726  0.0644
 3129W        W19603   7.232   2.773   3.952 -0.0257 -0.1330 -0.0001
 3130W        W19604   4.549   9.152  14.176 -0.0620 -0.0757  0.2098
 3131W        W19605  13.226  16.073  15.537  0.0571  0.0384  0.3918
 3132W        W19606  17.384  14.104   0.401  0.1786  0.1946 -0.2137
 3133W        W19607  14.983   2.532  15.003 -0.0865  0.0823 -0.0421
 3134W        W19608  13.982   1.621   4.289  0.1059 -0.0647 -0.1311
 3135W        W19609  17.609   0.620   1.957  0.2018  0.0286 -0.2524
 3136W        W19610  16.788   1.058  13.191 -0.2131 -0.0276  0.3637
 3137W        W19611   9.728   4.710   5.428 -0.1771  0.4252  0.2276
 3138W        W19612   8.514  15.557  15.361  0.0414  0.2651 -0.0722
 3139W        W19613   3.250  15.910   3.624 -0.1030  0.1380  0.2015
 3140W        W19614   2.743  16.932   5.290  0.0722  0.2202 -0.1819
 3141W        W19615  17.194  12.685  12.042 -0.0064  0.0888 -0.1066
 3142W        W19616  10.429  17.441   1.587  0.2598 -0.1035 -0.0411
 3143W        W19617  11.523   3.301  12.461 -0.0117 -0.1283 -0.0041
 3144W        W19618   2.451   9.519  13.723  0.2185  0.0274  0.0978
 3145W        W19619   0.567  17.793  13.961  0.2914 -0.1773  0.1358
 3146W        W19620  11.664   0.449   2.102  0.1442  0.2553  0.1470
 3147W        W19621   3.704   7.111  15.921 -0.0105 -0.0451  0.0631
 3148W        W19622   0.844  14.212  12.072 -0.0814  0.0294  0.0447
 3149W        W19623  16.900   3.056   1.453  0.2673 -0.0535 -0.0623
 3150W        W19624   0.960   2.004   4.121 -0.4185 -0.2726  0.0365
 3151W        W19625   1.598  13.665  16.662 -0.0975 -0.0009  0.2512
 3152W        W19626   9.702  13.243  12.921 -0.3574 -0.2559 -0.0405
 3153W        W19627  11.010  11.989   3.325 -0.1269  0.1412 -0.0051
 3154W        W19628   2.827  11.212  15.201  0.2672  0.1789 -0.3793
 3155W        W19629  17.793   9.759  12.604  0.0066 -0.4117  0.1322
 3156W        W19630   9.515  11.289   3.947 -0.2164  0.1660  0.1488
 3157W        W19631   2.669   2.353  13.740  0.0647  0.4181 -0.1786
 3158W        W19632  15.334  11.898   1.351  0.2668  0.1823 -0.1118
 3159W        W19633  14.483  12.363  14.775 -0.1960  0.2831  0.1394
 3160W        W19634   0.435   2.683  13.903 -0.0194  0.0172 -0.0269
 3161W        W19635   6.881   2.983   1.915  0.0539  0.1296  0.3889
 3162W        W19636   6.457  11.763  11.819  0.0996 -0.0041  0.1701
 3163W        W19637   9.786   1.019   2.735  0.1339  0.0021  0.1436
 3164W        W19638  14.949   3.832   4.234  0.1449  0.2744  0.0614
 3165W        W19639   1.973  16.234  11.086  0.0617  0.2905  0.2664
 3166W        W19640   9.483   5.601   0.922 -0.1423 -0.2835 -0.1371
 3167W        W19641   9.080  16.056   5.011 -0.0388  0.1473 -0.0148
 3168W        W19642  14.982  10.871  11.554 -0.2829  0.1371 -0.0585
 3169W        W19643   7.817  10.127   1.656  0.1241 -0.0185 -0.1704
 3170W        W19644   1.795   9.682   1.148 -0.2130  0.0344 -0.1086
 3171W        W19645   5.780  10.488  15.023  0.1259  0.0104  0.4261
 3172W        W19646  11.072   7.908   2.886 -0.1893  0.0156  0.0480
 3173W        W19647   8.983  10.922  16.756  0.0593 -0.1097 -0.2064
 3174W        W19648  10.557   1.769   4.491 -0.0278  0.0680  0.3045
 3175W        W19649   6.369  10.172  13.267  0.0340 -0.0352  0.1576
 3176W        W19650  17.549  10.604   2.174  0.0344 -0.0567  0.0582
 3177W        W19651   4.700   0.500  14.269 -0.2151 -0.3736 -0.0369
 3178W        W19652   4.341  11.718  12.242 -0.2377 -0.1065 -0.0354
 3179W        W19653   7.032  10.210   4.985  0.0501  0.0167 -0.1184
 3180W        W19654  15.458  14.941   2.581 -0.2895  0.1137  0.3441
 3181W        W19655   5.805   6.804  14.353 -0.2264  0.0104  0.3072
 3182W        W19656   0.156  17.722  10.899 -0.3577 -0.0748 -0.3067
 3183W        W19657   2.696  12.060   1.734  0.1473 -0.4438  0.0931
 3184W        W19658   5.925  12.982   4.589 -0.0963 -0.1569 -0.0207
 3185W        W19659   5.845   4.071  15.385  0.0477 -0.3123 -0.0656
 3186W        W19660   3.300  12.966   2.419  0.0856  0.2168 -0.1387
 3187W        W19661  14.480   1.076  15.422 -0.1213  0.0283 -0.3027
 3188W        W19662   7.215   9.460   5.256  0.1257  0.1866  0.1982
 3189W        W19663   0.965   8.451   4.605  0.2423 -0.1915  0.2405
 3190W        W19664  13.948   9.177  15.503  0.2544  0.1349 -0.3870
 3191W        W19665  15.182   3.973   0.457 -0.3622  0.0479  0.0853
 3192W        W19666   9.611  14.609  12.724  0.1848  0.0122 -0.2006
 3193W        W19667   2.605   4.769  11.861  0.2658 -0.1501 -0.0808
 3194W        W19668  10.638   7.360  15.677 -0.1410  0.1896 -0.2327
 3195W        W19669  12.761   6.616  14.897 -0.1527 -0.2107  0.1239
 3196W        W19670  14.218  12.250   2.978  0.1991  0.0489 -0.1699
 3197W        W19671   0.526  15.603   1.335  0.2736  0.4023  0.1591
 3198W        W19672   3.586  17.356  16.765 -0.3546 -0.1691 -0.1050
 3199W        W19673   4.866   2.723   2.620  0.0530  0.0680  0.0243
 3200W        W19674   7.126   9.315  15.598  0.0433 -0.0082 -0.3081
 3201W        W19675   2.887   4.998   2.343 -0.2062  0.2587 -0.2581
 3202W        W19676  17.520  14.740   5.876 -0.0493  0.0788 -0.0899
 3203W        W19677   1.401   9.074   2.980 -0.3863 -0.0275 -0.0242
 3204W        W19678  13.375  14.714  12.959  0.0375 -0.5006  0.0760
 3205W        W19679  16.154   0.369   3.142 -0.1886  0.1115 -0.1507
 3206W        W19680   5.737   7.330   3.183  0.0237 -0.2538  0.3274
 3207W        W19681  11.806   4.445   3.350 -0.0939  0.1300 -0.1003
 3208W        W19682  16.544   2.337   0.340 -0.1261  0.2949 -0.1116
 3209W        W19683  16.536  14.947  11.882 -0.1129  0.2306 -0.0139
 3210W        W19684   8.668  14.173  15.112 -0.0172  0.0809 -0.0549
 3211W        W19685   6.022   4.465  13.550 -0.0737  0.0058  0.0528
 3212W        W19686   1.806   4.927   4.844 -0.0113 -0.0709  0.3402
 3213W        W19687  16.531   2.540   3.599 -0.1966 -0.1156 -0.2044
 3214W        W19688  11.138  13.702  14.437 -0.4594 -0.0304  0.1715
 3215W        W19689  14.490   0.575  12.761  0.0974 -0.1378 -0.1752
 3216W        W19690   0.369   4.252  13.389  0.2610 -0.1894 -0.0872
 3217W        W19691  17.374  13.167   0.399  0.2647  0.0086  0.1581
 3218W        W19692   2.749  10.590  15.740  0.2264 -0.1977 -0.5005
 3219W        W19693  10.042   0.007   1.890  0.1540  0.0305 -0.0069
 3220W        W19694  15.556  16.425  12.173 -0.1531 -0.0646  0.1769
 3221W        W19695   4.352   8.409   5.437  0.2595 -0.2054 -0.3074
 3222W        W19696   2.438  10.176   2.231  0.0214 -0.1220 -0.2269
 3223W        W19697   2.157   4.901   5.433 -0.2932 -0.0638  0.0996
 3224W        W19698   2.757  12.637  14.103  0.0719 -0.1805 -0.1924
 3225W        W19699  17.218  16.307   2.108  0.1314 -0.2550  0.3596
 3226W        W19700  12.699  12.497  13.013 -0.1475 -0.0231  0.1651
 3227W        W19701   0.348   4.454  13.899 -0.2193  0.0326 -0.0882
 3228W        W19702   4.714  10.965   2.062 -0.0817  0.0630  0.1350
 3229W        W19703   6.504  16.749  15.096  0.1534  0.0439  0.2618
 3230W        W19704  10.470   4.530  12.019 -0.1114 -0.1704  0.0634
 3231W        W19705  10.782   3.284  14.338  0.0574 -0.3545  0.3552
 3232W        W19706   3.366   9.424  16.078 -0.3239 -0.0098  0.1388
 3233W        W19707   7.095   1.019   6.182 -0.1895  0.1414  0.0354
 3234W        W19708  17.303  17.556   4.411  0.3952 -0.0643 -0.1643
 3235W        W19709   7.793  14.527   1.525 -0.0754  0.0334 -0.2295
 3236W        W19710  10.814   6.920   2.443 -0.0675 -0.1040 -0.1550
 3237W        W19711   2.029   6.135   2.480  0.0499  0.2255  0.2086
 3238W        W19712   7.818  10.006   5.447 -0.2373 -0.4000  0.2053
 3239W        W19713   0.085  12.841  12.960 -0.2729 -0.2534 -0.1758
 3240W        W19714  16.577  11.878  15.735 -0.0221  0.0908  0.0536
 3241W        W19715   3.328   4.660   1.177  0.2212 -0.0579 -0.0727
 3242W        W19716  16.192  17.699   2.879  0.1851 -0.1930  0.2231
 3243W        W19717   8.921  17.288  11.466 -0.1974 -0.1645  0.0001
 3244W        W19718   3.914  15.805   4.373 -0.1437  0.1895  0.0678
 3245W        W19719   0.783   6.743  13.782 -0.0348  0.0565  0.3307
 3246W        W19720   3.409   4.699   5.052 -0.0032 -0.0446 -0.1443
 3247W        W19721  13.551   1.420  12.834  0.0357  0.0459  0.5668
 3248W        W19722  10.477   9.645   4.934 -0.0494  0.2376  0.0789
 3249W        W19723   5.481  10.660   3.501  0.2473  0.0506  0.0806
 3250W        W19724   0.158   1.919  13.331 -0.2598  0.0883  0.0437
 3251W        W19725   8.894  15.230   3.368  0.0340 -0.1662  0.0133
 3252W        W19726   2.364   6.577   2.048  0.0882 -0.1546 -0.3170
 3253W        W19727  15.572   6.943   4.503  0.2498 -0.2919 -0.1204
 3254W        W19728   5.338   9.052   2.094 -0.3518 -0.0251 -0.2375
 3255W        W19729   6.071  14.381   0.607  0.1385  0.0995  0.0895
 3256W        W19730  17.525  17.545   1.507 -0.1948  0.0259 -0.0617
 3257W        W19731  14.644   8.118  11.796  0.1086  0.0882 -0.2272
 3258W        W19732   9.852  12.153   1.820  0.3766  0.1134  0.1616
 3259W        W19733  10.633  12.193  15.537  0.0235 -0.1004 -0.0214
 3260W        W19734   3.723  14.857   2.182  0.2192  0.0119  0.1550
 3261W        W19735   9.363   9.253  16.712 -0.1780 -0.2171 -0.1386
 3262W        W19736  16.715   8.967  14.278  0.2017 -0.0584 -0.0709
 3263W        W19737   8.692  10.662   5.297  0.0226 -0.0910 -0.1935
 3264W        W19738  17.506  15.954   0.465  0.2231 -0.0905  0.0245
 3265W        W19739  12.322  12.403   1.889 -0.1398 -0.0037 -0.1358
 3266W        W19740   0.858  12.752  14.531 -0.1815  0.2641  0.1536
 3267W        W19741   3.945   5.523   2.981  0.1947 -0.2397  0.2647
 3268W        W19742   0.419   4.185   5.633 -0.1404 -0.0438  0.3645
 3269W        W19743  15.571  17.281  15.691  0.1783 -0.0014 -0.0844
 3270W        W19744  11.301   4.411  12.488 -0.1030  0.3195  0.1462
 3271W        W19745   3.049  12.704   5.202 -0.2007  0.2287 -0.0329
 3272W        W19746   7.263   0.847  13.165  0.0951 -0.0705  0.1807
 3273W        W19747   0.938   5.069  13.460  0.0887 -0.0401  0.0723
 3274W        W19748  11.284   2.957   5.188 -0.1277  0.1074 -0.1326
 3275W        W19749  14.951   4.422   0.612  0.0622  0.0198 -0.0881
 3276W        W19750   3.796  15.727  16.722  0.2190  0.0401 -0.0567
 3277W        W19751   8.857   7.977  13.151  0.0057 -0.0448 -0.0881
 3278W        W19752   3.316  10.163   4.215  0.1339  0.3984  0.0691
 3279W        W19753  16.961  17.146   3.436  0.2812 -0.2929  0.0189
 3280W        W19754  10.488   8.438  13.321  0.2129  0.2947 -0.2258
 3281W        W19755   7.484   7.442   3.093 -0.2343  0.1919 -0.0004
 3282W        W19756  14.675   7.522   4.284  0.2139  0.0906  0.0300
 3283W        W19757   1.258   7.456  15.418  0.1449 -0.2675  0.2677
 3284W        W19758   5.075  11.085   2.400  0.0997 -0.0476  0.0969
 3285W        W19759   7.498  16.028   2.249  0.0491  0.2347 -0.1856
 3286W        W19760   7.061  13.369  12.156  0.3602  0.2510 -0.1805
 3287W        W19761   8.577   1.023   2.024  0.1335  0.0590  0.3694
 3288W        W19762  13.752   1.596  15.683  0.1016  0.0313  0.0050
 3289W        W19763  17.525   4.179   0.505 -0.0187  0.0050  0.2066
 3290W        W19764  16.462   0.542   4.564 -0.0573  0.0657 -0.0754
 3291W        W19765   9.092   9.161  14.703 -0.3770  0.0930 -0.0330
 3292W        W19766   4.256   9.928   1.886 -0.1519 -0.1915  0.4349
 3293W        W19767  10.132   4.671   5.086  0.1342 -0.0437 -0.0100
 3294W        W19768   3.313  11.367   3.904 -0.0343 -0.0298  0.1074
 3295W        W19769   9.848   1.362  12.168 -0.2871  0.1542  0.1186
 3296W        W19770   5.230  12.135  15.671 -0.3070 -0.0171 -0.4094
 3297W        W19771  11.286   0.550   4.351  0.0277 -0.2241 -0.0337
 3298W        W19772   1.296   5.773  13.424  0.1473  0.0227  0.3468
 3299W        W19773   0.877  12.711   5.007  0.3778  0.1724 -0.0784
 3300W        W19774  16.463  17.306  12.616  0.0698  0.1040 -0.0737
 3301W        W19775  15.219  13.496   1.363 -0.1229  0.0065 -0.0729
 3302W        W19776   5.966   5.744  14.626  0.0639  0.1325  0.2721
 3303W        W19777   9.347   3.059  11.695 -0.4327  0.0498  0.1925
 3304W        W19778   4.941  13.576   3.428 -0.0645 -0.1998  0.2111
 3305W        W19779  14.880   7.220  11.812 -0.0672  0.0015 -0.1423
 3306W        W19780   5.468   4.946  16.193  0.0261  0.0537  0.3051
 3307W        W19781  10.262  13.011  12.132  0.1593 -0.0015 -0.3929
 3308W        W19782  16.285  17.350   5.207 -0.0870  0.3574 -0.2230
 3309W        W19783   5.795   3.260   3.412 -0.2997 -0.1386  0.0648
 3310W        W19784   3.718   1.599  13.009 -0.2328  0.1102  0.0491
 3311W        W19785   5.070   4.025  10.610 -0.0443 -0.0908  0.0083
 3312W        W19786  15.032  14.436  13.515  0.1259 -0.3036  0.0056
 3313W        W19787  14.666   9.522  12.440 -0.2753  0.2618 -0.2531
 3314W        W19788   9.100   0.775   5.300  0.3183  0.0365  0.0279
 3315W        W19789  10.782   1.115  15.357 -0.3322  0.0520  0.0652
 3316W        W19790   4.665  13.811  15.926 -0.0002  0.2959 -0.0488
 3317W        W19791  13.840   0.855   2.613 -0.1706  0.0186 -0.4099
 3318W        W19792   2.345  10.525  12.622  0.0118  0.0614 -0.1456
 3319W        W19793  12.286   9.467   4.853 -0.0304 -0.3013  0.1290
 3320W        W19794  14.766   3.378   1.453  0.0850 -0.0160  0.1073
 3321W        W19795   7.490  13.615   4.365 -0.0766 -0.3543 -0.3246
 3322W        W19796  13.275  10.998   2.474  0.1040 -0.3045  0.2895
 3323W        W19797   9.566   0.689   1.450  0.2571 -0.2525 -0.0217
 3324W        W19798  14.726   8.515   0.580  0.0193  0.2037  0.1144
 3325W        W19799  14.530  11.215   1.888 -0.1981 -0.0398  0.2189
 3326W        W19800  17.099   6.898   2.707  0.2353  0.0818 -0.0320
 3327W        W19801  11.945  15.887  12.608  0.1950  0.0948  0.0125
 3328W        W19802  12.601   4.526   3.402 -0.0183 -0.0889 -0.2030
 3329W        W19803  10.542   1.216   3.850  0.1678 -0.1942 -0.1149
 3330W        W19804   2.601  13.813   1.229  0.1883  0.0017 -0.2403
 3331W        W19805  10.926   9.678  14.722 -0.1874 -0.1785  0.0842
 3332W        W19806  13.705   3.665   6.664 -0.2037 -0.0278  0.1683
 3333W        W19807   3.786   7.473  15.224  0.2751 -0.0786 -0.3060
 3334W        W19808  14.029  13.985   0.592 -0.1090 -0.0619 -0.0021
 3335W        W19809  15.586   9.433  12.203  0.0380 -0.0268  0.2055
 3336W        W19810   3.640  12.895   2.791  0.0981  0.0137  0.0616
 3337W        W19811   0.084   8.167   1.104  0.0386 -0.3989 -0.2103
 3338W        W19812  17.671   4.224  15.327 -0.0815  0.0425 -0.0641
 3339W        W19813  14.060   8.631   4.761 -0.0756 -0.1769 -0.1234
 3340W        W19814   8.688  12.879   1.391 -0.1321  0.0434  0.1097
 3341W        W19815  14.711  12.353   2.850 -0.0960 -0.0503  0.1500
 3342W        W19816  10.755   4.458  16.044 -0.0983  0.2744  0.1753
 3343W        W19817   7.651   7.084  16.751 -0.1219 -0.2739 -0.0304
 3344W        W19818   7.394  13.288  15.943 -0.3404 -0.3512  0.0791
 3345W        W19819  10.979   0.698  15.188 -0.2582  0.1049  0.1350
 3346W        W19820  12.747  12.181  14.028 -0.1290  0.0878  0.0512
 3347W        W19821   9.639  14.925   4.851 -0.0776  0.0933 -0.2208
 3348W        W19822   4.797   7.030   0.592  0.1889  0.0278  0.1303
 3349W        W19823   7.159   2.260  13.533 -0.2454  0.0527  0.2814
 3350W        W19824   4.911   8.444  12.903 -0.1524  0.0088 -0.1237
 3351W        W19825   6.727  16.469  16.608 -0.1069  0.3313 -0.2315
 3352W        W19826   7.919  14.837  15.773  0.0931 -0.0499 -0.3103
 3353W        W19827   4.234   3.213  13.350  0.0036  0.3714 -0.1931
 3354W        W19828  11.117   6.515  12.040 -0.1575  0.0337 -0.2569
 3355W        W19829  16.650   6.704  16.252  0.0089  0.1188  0.0114
 3356W        W19830   1.481  17.614   2.536 -0.1777  0.0321  0.0930
 3357W        W19831  13.276  11.106   0.309 -0.4280  0.1438  0.1866
 3358W        W19832  12.938   8.297  15.477 -0.0427 -0.4805 -0.0599
 3359W        W19833   8.261   7.107  16.730  0.0170  0.0252 -0.3207
 3360W        W19834  17.464   2.562   2.172  0.0388  0.0442 -0.0143
 3361W        W19835  14.088  16.716   6.493  0.1528 -0.0703  0.1376
 3362W        W19836   2.361   0.434   5.018  0.0955  0.1629 -0.0694
 3363W        W19837   0.819   4.632  13.670  0.0926  0.1648  0.2463
 3364W        W19838  16.674   6.850  13.597  0.1418  0.4638  0.2589
 3365W        W19839   8.508  15.430  12.546 -0.2170  0.1007  0.0569
 3366W        W19840   0.414  16.423  14.676  0.1575 -0.0817 -0.0433
 3367W        W19841   5.124   2.312   1.649  0.0910  0.2342 -0.1067
 3368W        W19842   8.203   3.547   0.012 -0.2207 -0.0979 -0.4630
 3369W        W19843   8.965  14.490   3.061  0.0818 -0.0216 -0.0869
 3370W        W19844   6.097   8.404  13.820  0.3536  0.3743  0.3682
 3371W        W19845   3.192  12.318   4.533  0.3074  0.0566 -0.2174
 3372W        W19846  13.663  14.456   4.301 -0.0962  0.0533  0.0248
 3373W        W19847   9.556  12.794  11.786  0.2050  0.0342 -0.1901
 3374W        W19848   3.648  16.062  14.387 -0.0067  0.1406 -0.1320
 3375W        W19849   4.895  10.369  14.163  0.4177 -0.0676 -0.0286
 3376W        W19850  16.800   4.334   4.036 -0.0153  0.1019 -0.3927
 3377W        W19851  17.153  13.478  16.319  0.1102  0.1796 -0.3728
 3378W        W19852   6.659  10.690  16.666  0.0204  0.1729  0.0344
 3379W        W19853   7.066  10.651   1.255 -0.0508  0.1892  0.1154
 3380W        W19854   3.449   1.730  15.828  0.1299 -0.0661 -0.3176
 3381W        W19855   4.585  11.425   1.866 -0.2491 -0.1625 -0.2824
 3382W        W19856  13.753  16.620  11.052  0.1510  0.1433  0.0523
 3383W        W19857   4.398  10.577   4.497  0.0883  0.1243  0.1181
 3384W        W19858   7.787   4.223  15.752  0.2336 -0.0962  0.0795
 3385W        W19859   8.997  14.751   4.103 -0.2969 -0.1367  0.3583
 3386W        W19860  15.277  10.957   4.764 -0.1405  0.2503  0.0109
 3387W        W19861   4.449   0.635  14.959  0.1236  0.1818  0.1528
 3388W        W19862   9.713   6.562  13.917  0.3549 -0.1190 -0.2842
 3389W        W19863   0.225   5.143  11.278 -0.0890 -0.0835 -0.2388
 3390W        W19864  11.734  10.994  14.828 -0.1037 -0.1125  0.1515
 3391W        W19865  11.637  14.152   3.759 -0.1317 -0.0350 -0.0007
 3392W        W19866  17.324   3.207  14.063  0.1795 -0.0245 -0.1523
 3393W        W19867   7.069  14.852  16.693  0.1635 -0.0371  0.0279
 3394W        W19868   6.792   0.599   6.216  0.1303  0.1227  0.1555
 3395W        W19869   0.372  12.611   2.411 -0.0078  0.2033 -0.2491
 3396W        W19870   7.957   7.513  16.766 -0.0623  0.2220  0.0768
 3397W        W19871  10.531  14.613   1.486  0.1193 -0.1641  0.2104
 3398W        W19872   1.725   4.194   0.857  0.2557  0.0189  0.2107
 3399W        W19873   7.939  12.637   2.898 -0.1311  0.0219 -0.0914
 3400W        W19874  17.059  15.023   5.867 -0.1995 -0.0013  0.0669
 3401W        W19875   3.228   9.726  12.824 -0.0077  0.0656  0.0170
 3402W        W19876   8.380  16.174   5.470  0.1927  0.0486  0.1655
 3403W        W19877   7.821  12.782   3.373 -0.4632  0.0865 -0.0687
 3404W        W19878   7.194  16.152  12.326 -0.3501 -0.0356  0.0062
 3405W        W19879   7.948   2.630  13.758  0.0037 -0.0269 -0.2848
 3406W        W19880   4.822  12.441  12.563 -0.3161 -0.0372  0.1509
 3407W        W19881   6.386  15.237  13.241  0.0259 -0.1067 -0.0840
 3408W        W19882   4.502   6.643   3.452 -0.3045 -0.3092  0.0034
 3409W        W19883   3.581  13.015   1.110  0.1410 -0.0776 -0.1700
 3410W        W19884   3.389   4.286  11.559  0.1349  0.2327 -0.4412
 3411W        W19885  15.655  14.229  13.545 -0.2632  0.0858  0.2459
 3412W        W19886   3.382  13.327  15.462 -0.0726 -0.0666 -0.1103
 3413W        W19887  14.916  11.838  12.446 -0.0951 -0.0323 -0.1115
 3414W        W19888  11.338   0.376   5.241 -0.0920 -0.1639 -0.3269
 3415W        W19889  14.078   4.798   0.530  0.1304  0.0447 -0.0150
 3416W        W19890   9.916   3.930   2.021  0.3059  0.0427  0.1318
 3417W        W19891  15.513   3.558   0.306 -0.1736 -0.0466  0.1336
 3418W        W19892  15.675   3.355   5.298  0.0247  0.0741  0.0082
 3419W        W19893  12.370   3.113   1.919  0.0100 -0.1255  0.1292
 3420W        W19894   1.272  13.737  13.017 -0.4104  0.0365 -0.0736
 3421W        W19895  10.726  14.558  16.777  0.0493 -0.2377 -0.1717
 3422W        W19896  10.603   0.195  12.705  0.3788 -0.2508  0.1546
 3423W        W19897   1.288  17.473   4.703 -0.0527 -0.0368  0.1286
 3424W        W19898   5.071  10.923  13.545  0.2778 -0.1190 -0.2251
 3425W        W19899   7.227  11.972  14.202  0.0299 -0.1521  0.1607
 3426W        W19900   9.081   6.946  15.314 -0.0169 -0.0924 -0.1197
 3427W        W19901   5.047  15.998  14.684  0.0852  0.3566  0.0955
 3428W        W19902   1.327   9.685  16.519  0.0453 -0.0656 -0.1033
 3429W        W19903   8.996   1.996   3.071  0.4944 -0.0831 -0.0371
 3430W        W19904  14.402  10.105  15.571  0.1894  0.0455  0.0946
 3431W        W19905  10.241  14.599  14.042  0.1325 -0.3881  0.0580
 3432W        W19906  11.466  11.627  12.163  0.1231 -0.1131 -0.0207
 3433W        W19907   9.170   3.694   5.621 -0.1230  0.1269 -0.1357
 3434W        W19908   5.180   3.879  15.811 -0.0828 -0.0023 -0.3412
 3435W        W19909  13.980   3.902  15.247 -0.0250 -0.5712 -0.3368
 3436W        W19910  15.917  17.648  12.835  0.5275 -0.2761 -0.2750
 3437W        W19911  12.875  10.477   3.814 -0.0286  0.0277  0.1235
 3438W        W19912  16.457   8.624  13.117 -0.2239  0.1204  0.0723
 3439W        W19913   3.500  15.578   4.437 -0.4528  0.3033  0.3109
 3440W        W19914   1.758  13.867  13.820  0.1753 -0.0405  0.1365
 3441W        W19915   4.539   4.623  13.916  0.1034 -0.2317 -0.1894
 3442W        W19916   8.126  14.919  13.237 -0.1513 -0.2515  0.3123
 3443W        W19917  12.336  11.414   2.309  0.0853  0.1323 -0.4427
 3444W        W19918   2.729   9.987  15.237 -0.2989 -0.0734  0.0817
 3445W        W19919   8.347   4.365   5.061 -0.0703  0.0179 -0.0249
 3446W        W19920  12.339   0.421   3.851  0.4186 -0.1290  0.1076
 3447W        W19921  17.176   8.066  13.395 -0.2432  0.2733 -0.0820
 3448W        W19922   4.231   1.952  15.045  0.1487 -0.2172  0.0344
 3449W        W19923   0.804  12.980  15.546  0.1016  0.0866  0.0656
 3450W        W19924   3.965   8.108   2.229  0.3073  0.3139  0.3448
 3451W        W19925   1.531  15.655   3.042  0.3058  0.0895 -0.0782
 3452W        W19926   4.464  10.225   3.336  0.0648 -0.1489  0.2521
 3453W        W19927  10.335  16.555  16.836 -0.1283  0.1643  0.0689
 3454W        W19928   1.370   6.456   2.772  0.1838 -0.0237  0.0166
 3455W        W19929   7.589   5.533   0.540 -0.0840 -0.1216  0.0924
 3456W        W19930   4.048   3.246  14.239  0.2705  0.0426 -0.1467
 3457W        W19931   4.576   5.613   0.555  0.1430 -0.1010  0.3798
 3458W        W19932  12.183   9.794  13.074  0.0207 -0.0109  0.1241
 3459W        W19933   3.241   4.758   2.102  0.0866  0.1011  0.0846
 3460W        W19934  13.505  12.993  15.977  0.1860  0.2605  0.0201
 3461W        W19935  11.885   4.137  12.614  0.2426  0.0088 -0.0492
 3462W        W19936  13.210  16.671   0.536 -0.0858  0.0023 -0.1590
 3463W        W19937   3.581   6.257   3.094  0.0114 -0.4383 -0.0606
 3464W        W19938   2.348  10.672   2.014  0.0653  0.0071 -0.0263
 3465W        W19939   5.947  13.356   2.592  0.0930 -0.1037 -0.3296
 3466W        W19940   7.460   2.475   1.626 -0.0453  0.2661  0.3882
 3467W        W19941   8.587  16.185  14.723  0.1644 -0.0058  0.0376
 3468W        W19942  17.779   1.272   6.433 -0.3366 -0.0587 -0.1177
 3469W        W19943  13.708   2.382  14.828  0.0296 -0.1300 -0.0401
 3470W        W19944   8.299   1.567   0.497  0.0195 -0.0564  0.2817
 3471W        W19945  11.621   6.908   4.379  0.0254  0.0901 -0.1079
 3472W        W19946  14.186   5.736   4.158 -0.1340 -0.3529  0.1953
 3473W        W19947   1.133  17.290  13.471 -0.0805 -0.3597  0.0410
 3474W        W19948   7.482   7.418   3.856 -0.0632 -0.0832  0.0459
 3475W        W19949   5.521  15.796  14.731 -0.0129 -0.0460 -0.2650
 3476W        W19950  14.922   0.860  12.719  0.1900 -0.1366  0.0226
 3477W        W19951   5.041   0.499   3.176 -0.2899 -0.0098  0.0058
 3478W        W19952   8.310   7.291   6.106  0.2526 -0.1800 -0.0058
 3479W        W19953   4.648   4.575   0.350  0.1800  0.1827 -0.0605
 3480W        W19954   4.697   0.033   5.237 -0.2381  0.0385  0.2199
 3481W        W19955  16.960  16.132  15.226  0.1346 -0.4216 -0.1143
 3482W        W19956   7.170  16.680   2.796 -0.1713 -0.3226  0.1433
 3483W        W19957   0.557  13.656  15.573  0.1382  0.1094  0.1757
 3484W        W19958  17.558  17.376   3.986 -0.1185 -0.1234  0.5459
 3485W        W19959   9.074   9.174  13.657  0.3782 -0.1191 -0.1883
 3486W        W19960   0.380  13.635  12.582 -0.0434  0.0929 -0.1366
 3487W        W19961   7.993   8.335   4.560  0.2652  0.0661  0.2824
 3488W        W19962  13.985  16.712   3.931 -0.1668 -0.4163  0.2591
 3489W        W19963  14.154   7.092   5.840 -0.1102 -0.1935 -0.0187
 3490W        W19964   0.601   8.860   4.584  0.0104 -0.2376  0.0016
 3491W        W19965  15.307  15.102  16.136 -0.1486 -0.2643  0.1009
 3492W        W19966   7.810  10.033  13.608 -0.1111 -0.0621  0.1653
 3493W        W19967   2.906  13.803   3.196  0.3442 -0.0042 -0.2985
 3494W        W19968  12.258  10.732   4.402 -0.0380 -0.1438 -0.2308
 3495W        W19969   2.023   4.093  14.857 -0.0896 -0.0855 -0.2801
 3496W        W19970  13.043   0.511   2.603  0.0348 -0.0724 -0.0500
 3497W        W19971   3.194  12.367  12.870 -0.1391  0.0039  0.1615
 3498W        W19972  10.746   6.170   1.117 -0.1095  0.3811  0.0861
 3499W        W19973  15.114   7.445   5.447  0.0323 -0.0358 -0.2149
 3500W        W19974  17.291   8.031  16.167  0.0961  0.2189 -0.0534
 3501W        W19975   8.543   9.040  12.125  0.0638 -0.2794  0.0176
 3502W        W19976   2.514   5.146  15.511 -0.0047 -0.1293 -0.0860
 3503W        W19977  13.504  11.916  11.841 -0.0372  0.1188  0.0813
 3504W        W19978   8.725   7.202   1.169  0.0473 -0.2297 -0.0459
 3505W        W19979   5.043  13.431   4.350 -0.3795  0.0865 -0.2190
 3506W        W19980   7.574   5.731   3.159 -0.2626  0.1299  0.0881
 3507W        W19981  12.382  13.588  14.429 -0.1658 -0.1187  0.0800
 3508W        W19982  13.499   2.389   2.027 -0.0837  0.2843  0.0279
 3509W        W19983   0.939   6.156  15.629 -0.0644  0.3469 -0.1735
 3510W        W19984  16.371  16.749   2.558 -0.0002 -0.2632  0.1599
 3511W        W19985   4.247  15.406  12.985  0.2458 -0.0017  0.0144
 3512W        W19986  14.146   8.367  16.477 -0.0818 -0.0696 -0.0041
 3513W        W19987  14.573   2.198  12.613  0.0718  0.0428 -0.1804
 3514W        W19988  15.296   0.472   2.576  0.1273 -0.2610 -0.1701
 3515W        W19989  12.400   4.653   0.200 -0.1592  0.1422 -0.1067
 3516W        W19990   1.300  12.286  10.905  0.2569 -0.0710 -0.3595
 3517W        W19991   9.702  15.612  14.482 -0.0875 -0.2319  0.1693
 3518W        W19992   1.092  15.271   4.347  0.0175 -0.1234 -0.0942
 3519W        W19993  16.357  11.566   4.200  0.1770 -0.1374 -0.0354
 3520W        W19994   0.056   1.358  15.994  0.1619  0.0202 -0.0563
 3521W        W19995   9.603  15.384   0.931 -0.2666  0.0884  0.0753
 3522W        W19996  17.774  12.284   2.377 -0.3448 -0.0545 -0.0120
 3523W        W19997  16.008  10.736  13.926 -0.1483 -0.1334  0.0168
 3524W        W19998  15.566  17.061   4.585  0.4446  0.1422  0.0414
 3525W        W19999   9.687   4.404  13.026 -0.1713 -0.3023 -0.1788
 3526W        W20000  13.410   4.363  16.316  0.1368 -0.2230  0.1379
 3527W        W20001  10.065   8.003   1.554 -0.1511 -0.1964  0.0999
 3528W        W20002  14.161  16.855   5.117  0.1356  0.0106 -0.1608
 3529W        W20003   1.061  12.830   2.057 -0.1972  0.2860 -0.0871
 3530W        W20004  10.778  16.943   4.994  0.0210 -0.0642 -0.3102
 3531W        W20005   3.267  14.824  14.415  0.1279  0.0294  0.2178
 3532W        W20006   1.651   4.129   2.480  0.0538 -0.0709 -0.2911
 3533W        W20007  14.471  14.528   0.045 -0.0002 -0.2259  0.0987
 3534W        W20008  12.117   3.450   1.240  0.0651  0.1916  0.0750
 3535W        W20009   0.138  13.028   4.569  0.2388 -0.1943  0.1773
 3536W        W20010  17.653  15.221  13.978 -0.0485 -0.1001  0.0026
 3537W        W20011   3.713  13.287   0.643  0.0382  0.1527 -0.1341
 3538W        W20012   7.490  14.731  14.754  0.0995 -0.3377 -0.2187
 3539W        W20013  14.441   9.430   1.284  0.2350  0.2010  0.0197
 3540W        W20014   4.872  12.529  15.647 -0.0334  0.0766 -0.1893
 3541W        W20015   1.854  17.732   5.557  0.1756  0.1625  0.0626
 3542W        W20016  11.841  11.009   4.982  0.0531  0.3365 -0.0527
 3543W        W20017  17.494  10.206   5.482 -0.0576 -0.1772 -0.1286
 3544W        W20018   2.733   3.632  13.256  0.1063 -0.2062 -0.2661
 3545W        W20019   7.609   1.453  12.498 -0.0996 -0.0486  0.2260
 3546W        W20020   5.212   6.356  13.837  0.4110  0.3292  0.0337
 3547W        W20021   6.508   1.022  14.672  0.1499 -0.4999  0.0213
 3548W        W20022   6.288   0.498   3.280 -0.1548 -0.1565  0.0315
 3549W        W20023  15.920  14.689   4.259 -0.2759 -0.2584 -0.5126
 3550W        W20024   8.996   3.376  12.510 -0.0423 -0.1247  0.2662
 3551W        W20025   1.577  17.333   0.904 -0.1239 -0.0008  0.0702
 3552W        W20026  16.445   2.994  14.458 -0.1816  0.2610 -0.1347
 3553W        W20027  16.425   9.252   2.902 -0.3040  0.1239 -0.0793
 3554W        W20028  17.655   1.654  16.346 -0.0825  0.0312 -0.2504
 3555W        W20029   8.081   1.413  16.216 -0.2884 -0.2016  0.0910
 3556W        W20030   2.790   5.561  12.917  0.2239 -0.2596 -0.2404
 3557W        W20031   2.517  12.999  13.799 -0.0820  0.1161  0.0471
 3558W        W20032  16.515   5.027   2.086 -0.2794 -0.0217  0.2163
 3559W        W20033   5.461   2.370   0.339  0.0836  0.5833 -0.3793
 3560W        W20034  10.208   2.028   2.368 -0.3126  0.4639  0.0463
 3561W        W20035   6.732   2.200  14.386 -0.1020 -0.0111 -0.0781
 3562W        W20036   1.500  14.510   5.005 -0.3840  0.0324 -0.0645
 3563W        W20037  13.974   2.702   5.198  0.0111  0.0329 -0.1895
 3564W        W20038  15.160   8.101  15.318  0.1224 -0.0182 -0.1867
 3565W        W20039   5.085  11.447   4.000  0.1175 -0.1187  0.1061
 3566W        W20040  17.805  10.754  16.387 -0.0776  0.1030 -0.1572
 3567W        W20041   4.126  17.499   5.952  0.2347  0.1354 -0.0312
 3568W        W20042   6.476  17.102  13.342 -0.4782 -0.0139 -0.0156
 3569W        W20043   0.937  14.436  12.912  0.0730  0.0509 -0.0092
 3570W        W20044   5.233   1.125   2.353  0.1812 -0.0497 -0.1417
 3571W        W20045  17.153  10.084  11.626  0.4155  0.2775 -0.0266
 3572W        W20046   3.367  12.632  14.251 -0.3370  0.0640 -0.0110
 3573W        W20047  14.639  15.662  13.653 -0.2548  0.0371 -0.1106
 3574W        W20048  11.569   7.950  16.695  0.0952 -0.1937  0.1056
 3575W        W20049   6.058   3.047  12.974  0.0078  0.0456  0.1687
 3576W        W20050   4.582   3.336   3.735  0.5461 -0.2261 -0.2305
 3577W        W20051   7.746  12.971   4.343  0.1298  0.1544 -0.1608
 3578W        W20052   7.631   9.098   3.982  0.2106 -0.1609  0.1768
 3579W        W20053   1.833   0.112  14.103  0.1509 -0.0392  0.0473
 3580W        W20054   4.539  12.224  12.988  0.0729  0.0375  0.0228
 3581W        W20055   1.580   2.607   1.298 -0.1697 -0.1269  0.0716
 3582W        W20056   1.364  12.467  12.631  0.2435  0.1053 -0.1157
 3583W        W20057   2.694   1.242  16.087 -0.1381  0.1572  0.1309
 3584W        W20058  14.323  14.115  16.477  0.1199 -0.0395  0.3548
 3585W        W20059  14.192   6.501  13.004 -0.0101  0.0202  0.0652
 3586W        W20060  11.030   3.076   3.201 -0.1925 -0.0142  0.0155
 3587W        W20061  16.793  17.622   3.508 -0.0964  0.5789  0.0477
 3588W        W20062   0.991  15.698   0.610  0.2980  0.1709 -0.1923
 3589W        W20063   7.439   6.925   4.358  0.0993  0.1915  0.2189
 3590W        W20064   9.783   2.800   4.989 -0.2515 -0.1499 -0.0979
 3591W        W20065   6.955  12.712   2.389  0.2214 -0.1396  0.3129
 3592W        W20066   5.433   0.604   1.580 -0.0476  0.2333 -0.2098
 3593W        W20067  12.009  16.551   4.520 -0.1298 -0.2223 -0.2792
 3594W        W20068   9.959   8.769  14.615 -0.4088  0.0384  0.0788
 3595W        W20069   1.025  16.723  14.297 -0.0421 -0.4800 -0.1344
 3596W        W20070  10.906  12.498  15.102  0.3726 -0.0851  0.0097
 3597W        W20071  16.905  14.386   0.449 -0.0496 -0.0485  0.0715
 3598W        W20072  17.757   6.476  13.308 -0.2792 -0.2528 -0.1139
 3599W        W20073   5.976  11.564   1.646 -0.1097 -0.3743  0.1167
 3600W        W20074  16.830  14.355  13.051 -0.1494 -0.1145  0.0563
 3601W        W20075  15.914   5.221  14.820 -0.1794  0.1138 -0.1258
 3602W        W20076   2.163   6.222   1.784 -0.0990  0.0209 -0.0924
 3603W        W20077  11.369  16.733   0.006 -0.0299 -0.1658  0.3058
 3604W        W20078  11.071  12.047   1.347  0.0479 -0.1502 -0.0171
 3605W        W20079  14.902  14.417   0.179 -0.0421 -0.1471 -0.0902
 3606W        W20080   0.911  11.281   3.696  0.0816  0.1403  0.0884
 3607W        W20081   6.706   0.843  16.016 -0.0269  0.0582 -0.0654
 3608W        W20082  13.136   2.429   4.123 -0.3764  0.0530 -0.3198
 3609W        W20083  11.185   4.413   4.732  0.1622  0.0981  0.0823
 3610W        W20084  10.526  10.211  14.629 -0.3143  0.0668 -0.2948
 3611W        W20085   6.463   0.639   3.872 -0.1410 -0.0459 -0.2427
 3612W        W20086   6.808   6.598  15.446 -0.3141  0.1483 -0.0744
 3613W        W20087   4.359  15.060  15.594 -0.2581  0.0704  0.0994
 3614W        W20088  12.316   1.419   3.309  0.0219 -0.0513 -0.0238
 3615W        W20089  14.674   1.815  12.128 -0.3400 -0.0083 -0.1598
 3616W        W20090  15.589  11.747  12.763  0.0226 -0.1217 -0.0243
 3617W        W20091   9.913  11.155  16.323 -0.2457 -0.1930 -0.3228
 3618W        W20092   4.361  12.286   2.204  0.2434  0.2247 -0.2870
 3619W        W20093   8.587  14.077  16.013  0.0844 -0.0181 -0.1249
 3620W        W20094   1.642   9.830  12.038  0.1915 -0.1190  0.1746
 3621W        W20095   5.342   2.217  11.939  0.1274  0.1664  0.1419
 3622W        W20096   3.477   5.054   3.735 -0.1523 -0.1354  0.0575
 3623W        W20097  13.001   4.185   6.363  0.2090  0.0348  0.1400
 3624W        W20098   8.243   5.962   2.420  0.1046 -0.0729 -0.1832
 3625W        W20099  13.860   7.337  14.152  0.2396  0.0147  0.1249
 3626W        W20100  10.407   6.100  13.316 -0.2451 -0.2800 -0.0253
 3627W        W20101   4.086  10.336  11.208  0.3689 -0.2637 -0.2147
 3628W        W20102  16.374  15.003   2.763 -0.1398  0.2769  0.0249
 3629W        W20103   2.777  14.580   4.731  0.0733 -0.2027  0.1391
 3630W        W20104   4.264  17.198   0.820 -0.1598  0.3321 -0.3102
 3631W        W20105   0.351  11.103  10.913  0.0525 -0.0996  0.0902
 3632W        W20106   9.913   8.567   6.246  0.0250  0.2485 -0.2573
 3633W        W20107  12.473  10.056   2.049 -0.1460  0.0373  0.2862
 3634W        W20108  13.798  10.354  13.185 -0.1394 -0.1763  0.1053
 3635W        W20109  13.876   5.751   3.743 -0.2143  0.1954 -0.1191
 3636W        W20110  12.932   3.652   1.330  0.1177 -0.0257 -0.0183
 3637W        W20111  14.665   6.956   5.983  0.2567 -0.0597  0.0119
 3638W        W20112  11.609   1.227  16.750 -0.1064 -0.1154  0.0632
 3639W        W20113   3.231  16.103  12.459  0.1924  0.0259 -0.0782
 3640W        W20114  12.887  12.484   0.336  0.1925 -0.1935  0.1462
 3641W        W20115   4.704   0.806  16.868 -0.0093  0.1180  0.2739
 3642W        W20116  10.313   4.505  12.464  0.2859 -0.1817 -0.2532
 3643W        W20117   6.187   3.708  14.946 -0.0164  0.2337 -0.0388
 3644W        W20118   7.999  10.186   3.376 -0.3954 -0.0802 -0.0875
 3645W        W20119   0.202   2.265  12.533  0.0591 -0.0744  0.2773
 3646W        W20120  12.124   5.005   2.738 -0.1427 -0.0106 -0.1656
 3647W        W20121   5.514  14.151  16.427 -0.0956 -0.1102  0.2180
 3648W        W20122   1.210   2.716   0.373 -0.0672  0.1531 -0.2069
 3649W        W20123   5.371  17.553  15.084  0.0550 -0.1450 -0.5156
 3650W        W20124   0.316  12.673  12.496 -0.0640  0.4642 -0.0476
 3651W        W20125  11.187   1.120   0.047 -0.1558 -0.3107 -0.0817
 3652W        W20126   9.685   4.096  14.830  0.0134 -0.0502  0.0370
 3653W        W20127   6.829   0.601   2.390  0.0250 -0.1027 -0.0822
 3654W        W20128   4.972  12.948   4.127 -0.0257  0.0175  0.1508
 3655W        W20129   6.512  12.795  12.675  0.0817  0.3400 -0.3094
 3656W        W20130   3.977   9.950   3.269 -0.0906  0.0364 -0.1217
 3657W        W20131   5.451  12.628  11.213 -0.0237 -0.0647 -0.1197
 3658W        W20132  11.486   3.383   3.933 -0.1692  0.1917  0.1390
 3659W        W20133   7.699  10.536   6.199 -0.0059 -0.5449  0.1190
 3660W        W20134   1.687   5.818  13.733  0.3528 -0.1173  0.0088
 3661W        W20135   8.019  14.679   6.144 -0.0220 -0.1442 -0.0413
 3662W        W20136  15.378   7.238  13.168  0.0304 -0.1581 -0.2334
 3663W        W20137  10.680  15.242  13.048 -0.2139  0.0318  0.3260
 3664W        W20138  14.253  14.952   0.161 -0.2101 -0.0175  0.2428
 3665W        W20139  16.287  13.614   4.695 -0.1026  0.2723  0.2298
 3666W        W20140   3.699  17.062   3.224  0.2856 -0.0233  0.1213
 3667W        W20141   2.693   5.622  11.382 -0.0525  0.2443 -0.0127
 3668W        W20142   7.429   9.411  14.999  0.2294 -0.0382 -0.1922
 3669W        W20143  16.410   5.243  16.750  0.1493 -0.3212  0.1910
 3670W        W20144  13.208  11.135  14.645 -0.2020 -0.1322 -0.1582
 3671W        W20145  17.634   2.568   4.944 -0.1001 -0.1377 -0.2387
 3672W        W20146   6.596  14.853   5.259 -0.0325  0.0343 -0.0416
 3673W        W20147   2.428   4.329  13.360 -0.0056  0.0890  0.1916
 3674W        W20148  13.574   2.641  16.396 -0.0026 -0.5669 -0.2369
 3675W        W20149   4.646   8.900   2.964  0.1436  0.0928  0.2581
 3676W        W20150  12.431   4.584  16.629 -0.0092 -0.2684 -0.1011
 3677W        W20151  12.736  12.137   1.238  0.1615 -0.0732 -0.3759
 3678W        W20152   9.326   5.021   1.272 -0.1747 -0.0828  0.3019
 3679W        W20153   0.888   6.896   5.438  0.2539 -0.0557  0.2415
 3680W        W20154   5.297   3.929   1.733  0.2436  0.1527 -0.1920
 3681W        W20155  13.689  13.736  14.801 -0.3335  0.0344  0.0011
 3682W        W20156   4.035   5.689   0.388 -0.4142  0.3485 -0.2349
 3683W        W20157   6.251  10.303  15.070  0.0875 -0.1288  0.3145
 3684W        W20158   0.155  14.484  13.550  0.1463  0.1649 -0.0338
 3685W        W20159  13.297  12.699   4.021  0.0500 -0.1027  0.3431
 3686W        W20160  14.362   1.272   4.401  0.0334 -0.2045 -0.0566
 3687W        W20161   5.473  13.273   4.596 -0.1760  0.2130 -0.1797
 3688W        W20162   0.063   6.868  16.693 -0.0998  0.0963 -0.0332
 3689W        W20163  17.126   5.844   5.816  0.2086 -0.1663 -0.1612
 3690W        W20164  16.122   8.413   1.383 -0.2432  0.1035 -0.3049
 3691W        W20165   6.756  15.410  15.935 -0.0871  0.0364 -0.0542
 3692W        W20166  17.035   4.350   0.461 -0.1819 -0.1630 -0.0232
 3693W        W20167  13.937   4.947   5.881 -0.1901 -0.0136 -0.0575
 3694W        W20168  12.110   6.791   3.997 -0.1163  0.1865  0.1944
 3695W        W20169  12.949   4.155   1.358  0.0774 -0.0053 -0.0615
 3696W        W20170   2.785   2.579  12.782 -0.1884  0.1848  0.2651
 3697W        W20171   9.313  15.165  15.795 -0.3868  0.2556 -0.0371
 3698W        W20172  10.378  12.537  12.982 -0.1222  0.2494 -0.1080
 3699W        W20173   0.985   3.157   0.221 -0.0611 -0.0751 -0.0260
 3700W        W20174  14.217   6.843  15.182  0.1521 -0.2702  0.0342
 3701W        W20175  10.326  15.870  11.631 -0.1673 -0.2750  0.2980
 3702W        W20176   5.614  14.632   4.100 -0.1241 -0.1823  0.0291
 3703W        W20177   8.011   7.579   0.555 -0.1099  0.2100 -0.0666
 3704W        W20178   4.182   6.036  13.468  0.0647  0.0481 -0.0080
 3705W        W20179  15.955  11.013   5.261 -0.1072  0.0214 -0.3250
 3706W        W20180  12.005  16.287  16.877 -0.0800  0.0324 -0.1195
 3707W        W20181   9.947  11.858   0.913 -0.0292 -0.0607 -0.1229
 3708W        W20182   1.279  15.781   2.048 -0.1511  0.0112 -0.2184
 3709W        W20183   7.161   9.584   2.221 -0.0847  0.0358 -0.1753
 3710W        W20184   8.868   0.865   4.547  0.3053  0.0359 -0.0529
 3711W        W20185  10.509   6.183  13.960  0.0309  0.1700 -0.2752
 3712W        W20186  13.738   7.608   4.546 -0.1109  0.0216  0.0441
 3713W        W20187  17.023   3.592  16.517 -0.3579  0.3250  0.1178
 3714W        W20188  14.590   6.849  13.099 -0.0685 -0.0906 -0.0036
 3715W        W20189   7.376  16.678  12.705 -0.0241 -0.0793 -0.0638
 3716W        W20190   8.728   6.654   1.226  0.0144 -0.1095  0.0393
 3717W        W20191  10.299   7.565  12.827 -0.0391 -0.1378 -0.1517
 3718W        W20192   6.268  15.659   3.634  0.0568 -0.0603  0.1934
 3719W        W20193  13.895   6.213   5.408  0.1433 -0.1176 -0.0806
 3720W        W20194  14.951  12.466   3.276  0.0579  0.2425 -0.1439
 3721W        W20195   3.977   4.763  12.419 -0.1423  0.0583  0.0613
 3722W        W20196   6.534   8.906   5.347  0.5355 -0.0785 -0.1684
 3723W        W20197  11.789   3.324  16.067 -0.2837  0.0385 -0.4741
 3724W        W20198   4.218  13.777   3.134  0.2712 -0.2857  0.1310
 3725W        W20199   2.184  14.287   1.948 -0.1992 -0.0287 -0.1214
 3726W        W20200   3.183  14.432  12.458  0.2033  0.0408 -0.1003
 3727W        W20201   4.717  17.115   0.030 -0.0803  0.2020  0.2120
 3728W        W20202   0.661   2.648   6.294 -0.2664  0.1826  0.0370
 3729W        W20203   4.715   2.265  13.729 -0.0624 -0.2675 -0.0292
 3730W        W20204   9.990   0.617   5.063 -0.0291 -0.0142 -0.0824
 3731W        W20205   7.043  12.868   3.844 -0.1959 -0.0783 -0.1733
 3732W        W20206  17.013  15.869   0.595  0.3708 -0.4924  0.2188
 3733W        W20207  16.274  10.338  11.459  0.0186 -0.2507  0.3202
 3734W        W20208  12.709   3.728   5.697 -0.0261  0.0528  0.1696
 3735W        W20209  15.072   5.046  14.318  0.2397  0.3990  0.0934
 3736W        W20210   3.735   7.016  15.403  0.0521  0.0148  0.0564
 3737W        W20211  16.198   8.512   6.089 -0.1081 -0.0311 -0.0470
 3738W        W20212   6.986  11.591   4.375  0.1185  0.2032 -0.0620
 3739W        W20213   5.326   5.142  14.907 -0.2246  0.1095  0.1466
 3740W        W20214   3.647   3.962  14.795  0.1489  0.0863 -0.1393
 3741W        W20215   9.326  15.968  13.276  0.1112 -0.3246 -0.2530
 3742W        W20216  13.883   6.287  14.364 -0.0141 -0.2095  0.0017
 3743W        W20217   1.158   6.358   0.778 -0.1094 -0.2193 -0.1056
 3744W        W20218   7.721   5.262  12.923 -0.3953  0.3714 -0.0029
 3745W        W20219   6.132   2.058  16.347 -0.1790  0.2976  0.0345
 3746W        W20220  10.637   0.749   4.804 -0.1341 -0.0604 -0.1086
 3747W        W20221  12.589  13.421   4.967  0.0334  0.1338  0.0110
 3748W        W20222   2.789  15.760   2.151 -0.1408  0.1518  0.0075
 3749W        W20223   0.635   9.383   4.489 -0.0880 -0.2720  0.2320
 3750W        W20224   1.748  12.896   1.200 -0.0584 -0.0363 -0.2325
 3751W        W20225   6.437  17.601  11.598 -0.2894 -0.0141  0.2926
 3752W        W20226   2.473  16.472   3.696 -0.0107 -0.2036 -0.3537
 3753W        W20227   7.862   7.414  10.986  0.2643 -0.3284 -0.1618
 3754W        W20228   4.575   2.620   0.186  0.1334 -0.1656  0.0402
 3755W        W20229   7.774  10.282   4.996 -0.3886 -0.1210  0.0602
 3756W        W20230   9.943   9.372   3.063 -0.2462  0.2148 -0.1832
 3757W        W20231   2.087   9.540   1.507  0.0076 -0.1954  0.0326
 3758W        W20232   6.468   0.040  16.707 -0.0131 -0.5043 -0.1588
 3759W        W20233  17.388  11.661  16.137 -0.2404  0.1785  0.0835
 3760W        W20234   0.181  13.757  11.670  0.0745  0.1740 -0.0621
 3761W        W20235   4.138  11.333  14.789  0.1033  0.1266  0.0307
 3762W        W20236   8.257  13.895   5.470  0.1750 -0.1385 -0.3174
 3763W        W20237  10.034  10.144  14.517  0.4716  0.1037 -0.0925
 3764W        W20238   1.301   1.781   0.871  0.0009  0.1069 -0.0431
 3765W        W20239   2.465  16.478   2.726  0.1681 -0.0906  0.1365
 3766W        W20240   8.211  15.244  10.656 -0.1418  0.0836  0.0548
 3767W        W20241  10.870   9.941  12.261 -0.1170  0.0103  0.0262
 3768W        W20242  12.890  16.902  13.116  0.0819  0.0683 -0.0400
 3769W        W20243   8.309   3.050  11.724 -0.2137 -0.2267  0.0233
 3770W        W20244  16.588  15.862  15.485  0.0765  0.0122 -0.3768
 3771W        W20245   5.746   4.348  13.968  0.0237  0.1512  0.1722
 3772W        W20246   7.328   8.952   1.614  0.2511  0.0868 -0.2095
 3773W        W20247   5.988  16.079  15.903 -0.2142 -0.3184  0.0711
 3774W        W20248  12.492   7.803  12.895 -0.1916  0.1471 -0.1997
 3775W        W20249   1.741  11.976  11.026 -0.0707 -0.0271 -0.3076
 3776W        W20250   2.227   8.074   2.082 -0.0271  0.0025 -0.2809
 3777W        W20251   4.772   1.004   2.263 -0.1778  0.2094 -0.0313
 3778W        W20252  15.503   2.093  16.882 -0.0225 -0.1444 -0.0102
 3779W        W20253  15.407   3.050   5.977 -0.2341 -0.1285  0.1998
 3780W        W20254   4.758   8.903  13.260  0.2287 -0.1693  0.1043
 3781W        W20255   8.149  14.955   5.765 -0.1487  0.1903  0.0840
 3782W        W20256   6.315   7.433  13.923 -0.1099 -0.1025 -0.0714
 3783W        W20257   7.961   0.891  16.232 -0.0383  0.1484  0.2730
 3784W        W20258   3.646   2.287  12.384  0.0640  0.4434  0.1251
 3785W        W20259   5.263  16.930  13.455  0.0500  0.1179 -0.1253
 3786W        W20260   9.443  17.200   3.712 -0.2296 -0.3319 -0.0859
 3787W        W20261   4.932   6.935  14.649  0.1028 -0.0733 -0.0004
 3788W        W20262  12.390   6.932   0.271 -0.0105  0.0451 -0.1077
 3789W        W20263   7.488   2.728   0.475 -0.0958  0.1908  0.0036
 3790W        W20264   7.290  17.438  13.352  0.1462 -0.0832 -0.1326
 3791W        W20265   8.074   6.229  12.455 -0.0867 -0.0075  0.0592
 3792W        W20266  10.641   8.949   2.114  0.2343 -0.1008 -0.1017
 3793W        W20267  10.993  17.185  12.010 -0.1401 -0.0645 -0.2793
 3794W        W20268  14.337   5.141   3.421  0.3317  0.0199  0.0498
 3795W        W20269  14.526  13.594  15.299 -0.1725  0.1153 -0.0665
 3796W        W20270  13.197   1.629   3.432  0.1462 -0.2464 -0.0677
 3797W        W20271   5.622  13.224  13.348  0.0670  0.5386 -0.3272
 3798W        W20272  12.960   0.158   5.493  0.1827 -0.2809 -0.1932
 3799W        W20273  11.131   0.808   0.462  0.0024  0.0903 -0.0379
 3800W        W20274   6.300   8.646   4.987 -0.2053 -0.2443 -0.2503
 3801W        W20275  13.749  16.605   6.026  0.2099 -0.3318 -0.4116
 3802W        W20276   1.116   3.633   0.404  0.0187  0.0949  0.1211
 3803W        W20277   2.920  16.733   3.484  0.1418 -0.2344  0.0603
 3804W        W20278   8.588  14.343  11.499  0.0293  0.2835  0.0570
 3805W        W20279   3.766  10.332   0.452  0.4523  0.1412  0.1382
 3806W        W20280  11.188  12.798   4.191  0.0363 -0.1282  0.0388
 3807W        W20281  14.464  14.364   3.843 -0.1835 -0.0253  0.1076
 3808W        W20282  14.805   4.083  12.799  0.0870 -0.4043 -0.0623
 3809W        W20283  12.576  14.900  12.035  0.0310  0.0473 -0.2974
 3810W        W20284  15.258   3.322   5.538  0.0698  0.0919  0.0411
 3811W        W20285  11.831  12.136  12.047  0.1401 -0.1864 -0.0691
 3812W        W20286   0.280  10.827   1.261  0.0137  0.0134 -0.2599
 3813W        W20287   7.380  16.651   1.118 -0.0446 -0.4627 -0.1130
 3814W        W20288   8.890   7.106  11.929 -0.1096  0.3313  0.1201
 3815W        W20289  12.335  16.724   3.058  0.3364 -0.4108  0.2488
 3816W        W20290   8.823  13.920  12.824 -0.1969 -0.0489  0.3190
 3817W        W20291   6.697   6.748  13.331 -0.0850 -0.1619  0.2100
 3818W        W20292  16.596  11.580  16.131  0.3976  0.2188  0.2350
 3819W        W20293   7.307  14.488   5.770  0.0891 -0.0413  0.2835
 3820W        W20294  15.627   2.176   1.280  0.1317  0.0715  0.0325
 3821W        W20295   9.362   5.776  16.214 -0.0156 -0.2928 -0.0814
 3822W        W20296  12.074   8.128  13.132 -0.0375 -0.0159 -0.1848
 3823W        W20297  11.311   3.785   2.856  0.1320 -0.0893  0.0461
 3824W        W20298   4.672   9.967  11.886  0.0670 -0.2689 -0.1305
 3825W        W20299   5.424   7.749   2.504  0.0751  0.2154 -0.1460
 3826W        W20300  11.882   4.257  15.579 -0.0679 -0.2803 -0.0630
 3827W        W20301   2.519   3.090   1.798 -0.2416 -0.2692 -0.0588
 3828W        W20302   0.206  11.785   0.574 -0.1936 -0.1130 -0.0967
 3829W        W20303   8.124  16.593  13.742 -0.2934 -0.0218  0.1884
 3830W        W20304   1.307  13.310   0.801  0.0388  0.0188  0.1177
 3831W        W20305   2.185   1.335   5.726  0.0949  0.0908  0.2199
 3832W        W20306   3.953  11.877   2.826  0.2794  0.3193 -0.0043
 3833W        W20307   3.880   3.792   0.844  0.2284 -0.0001 -0.1378
 3834W        W20308   4.896   5.285  12.921 -0.0050 -0.1744 -0.2882
 3835W        W20309  15.080  15.233   3.801  0.0598 -0.2364 -0.1603
 3836W        W20310  12.634  16.318   0.690  0.1206  0.0711  0.0193
 3837W        W20311   9.859  13.555   0.188  0.2681 -0.0485  0.2788
 3838W        W20312   8.514  13.386  12.349  0.0774  0.0772 -0.0446
 3839W        W20313  13.739   6.958   0.461 -0.1418 -0.0004 -0.0198
 3840W        W20314  13.011   4.291  12.751  0.0447 -0.0473 -0.1243
 3841W        W20315  14.315   0.895  14.311 -0.0413  0.1336 -0.2581
 3842W        W20316  15.409  16.675   6.338  0.1051  0.0261 -0.0258
 3843W        W20317   7.329   4.452  16.014 -0.0314 -0.2344 -0.0039
 3844W        W20318   4.556  12.586  16.016 -0.2749 -0.1824 -0.0473
 3845W        W20319  11.972  10.562  12.492  0.1805 -0.0223 -0.1919
 3846W        W20320   1.749  14.542  13.251 -0.2162  0.0719 -0.0504
 3847W        W20321  13.082   0.427   6.129  0.1925 -0.5060 -0.1131
 3848W        W20322  17.055   8.969  15.939 -0.0518 -0.1590 -0.0044
 3849W        W20323   8.773   1.741   0.218 -0.0364  0.1574 -0.1551
 3850W        W20324  11.987   9.268  13.935  0.0030  0.0303  0.0722
 3851W        W20325   4.539  10.953  15.516 -0.2921 -0.0917  0.1583
 3852W        W20326   2.315   0.586   2.915 -0.0052  0.1426 -0.1363
 3853W        W20327  15.478  14.567  12.315  0.1088  0.1159 -0.0521
 3854W        W20328  16.224  17.056  16.037 -0.1549  0.2337  0.0640
 3855W        W20329   1.830  17.556   2.993  0.3519  0.0922  0.0563
 3856W        W20330  11.340   7.083  16.244  0.1059 -0.0355  0.1585
 3857W        W20331  11.703   8.564  14.926  0.0109 -0.0570 -0.1045
 3858W        W20332   8.960  10.982  13.246  0.2262 -0.3267  0.1998
 3859W        W20333   1.869   1.822  14.619 -0.1120 -0.1006  0.1844
 3860W        W20334  15.790   7.374   3.226 -0.1042  0.2479 -0.1659
 3861W        W20335   5.700   6.855  12.090  0.0993  0.0006  0.3599
 3862W        W20336  11.080  10.359   3.127 -0.0387  0.0117  0.3219
 3863W        W20337  11.336  10.604  13.060  0.3301  0.2378  0.2232
 3864W        W20338  10.728   7.586  16.788  0.1134 -0.1354 -0.1124
 3865W        W20339  17.260   0.570  11.696  0.2063 -0.0450 -0.0235
 3866W        W20340   7.712  11.749   3.591  0.0698  0.2102  0.1163
 3867W        W20341   2.194   5.469   3.868 -0.0263 -0.0297  0.2303
 3868W        W20342   7.684   3.316   4.436 -0.1271 -0.0567 -0.0508
 3869W        W20343  16.569  11.097   1.304 -0.1078  0.2816 -0.1483
 3870W        W20344   8.237   8.996   0.621  0.2359  0.1181 -0.0643
 3871W        W20345   0.944   7.421   1.994  0.3152  0.1838 -0.3256
 3872W        W20346  17.105   2.892   3.597 -0.2367 -0.5048  0.0355
 3873W        W20347   4.399   1.880   4.301 -0.2237 -0.1548 -0.0125
 3874W        W20348   6.972   7.738   5.660 -0.1265 -0.1036  0.1619
 3875W        W20349   2.072  17.580   1.242  0.3613 -0.1214 -0.0443
 3876W        W20350  12.805   2.349   1.575 -0.2690  0.1388 -0.1410
 3877W        W20351   2.398   7.523  14.091  0.2937 -0.1143  0.0965
 3878W        W20352  15.326  11.877   3.407  0.0017 -0.1463 -0.2374
 3879W        W20353  16.337   9.394  11.597 -0.1388  0.0804  0.0333
 3880W        W20354  12.089  13.655   1.733  0.1222  0.2007  0.3037
 3881W        W20355  13.702  12.986   4.224  0.1082  0.0930 -0.2052
 3882W        W20356  13.915  11.746  12.118  0.1941 -0.1203 -0.0232
 3883W        W20357  12.553   0.787   2.555 -0.1454  0.0435 -0.4341
 3884W        W20358   5.855  14.004  12.263  0.3118  0.0302  0.0052
 3885W        W20359  17.631   8.840   1.667 -0.0884 -0.0317 -0.0207
 3886W        W20360  15.709  14.757  16.019  0.0400  0.0265 -0.4181
 3887W        W20361   0.471   4.218   4.031  0.6468 -0.1740  0.1608
 3888W        W20362  10.158   7.297   5.830 -0.0400  0.2400  0.1108
 3889W        W20363   1.999  13.156  11.161 -0.2114  0.1017  0.0068
 3890W        W20364  17.337   5.054  12.316  0.1141 -0.2696 -0.1315
 3891W        W20365  11.539   2.569   0.968  0.2451 -0.0401  0.4194
 3892W        W20366   7.433  12.943   1.513  0.0006  0.0008 -0.3741
 3893W        W20367  12.610  11.949  12.613 -0.0235  0.1045 -0.0207
 3894W        W20368   4.782   1.781   2.871  0.2235  0.1816 -0.2006
 3895W        W20369   4.069  17.824   0.641  0.0058  0.2768 -0.5632
 3896W        W20370  13.274  12.119   0.018 -0.0087  0.1847  0.1228
 3897W        W20371   2.366  11.994  15.625  0.2179  0.2598 -0.0922
 3898W        W20372   3.876  11.757   4.599  0.3361  0.0872  0.0458
 3899W        W20373  13.467   8.869   3.608 -0.0224  0.0601 -0.1928
 3900W        W20374   3.594  15.547   0.718  0.1084  0.0160 -0.4078
 3901W        W20375  11.480  14.072  10.565 -0.2480 -0.0093  0.0461
 3902W        W20376   9.057  10.305   2.045 -0.0054  0.1223  0.1437
 3903W        W20377   4.393   3.002   1.977 -0.1520 -0.2968  0.0155
 3904W        W20378   8.246  15.986   1.809  0.2453 -0.3331  0.0933
 3905W        W20379  13.308  13.166   5.230 -0.1017 -0.0537 -0.2276
 3906W        W20380   7.381  12.274  16.471 -0.1114  0.1946 -0.1173
 3907W        W20381   0.657   9.365  13.397 -0.0541 -0.2321 -0.1718
 3908W        W20382  17.803   4.055   0.903  0.0667  0.0626 -0.0335
 3909W        W20383  16.039  13.195   0.219 -0.1786  0.1234 -0.0633
 3910W        W20384   9.249  10.665  14.940  0.1878  0.1043 -0.2479
 3911W        W20385   7.259   0.736  12.660  0.2928 -0.4997  0.0993
 3912W        W20386  12.289  13.571  15.850 -0.3345  0.0117  0.2116
 3913W        W20387  14.142  14.263   2.986 -0.0723  0.2561 -0.0479
 3914W        W20388   0.337   3.497  12.912 -0.1080 -0.0585 -0.3735
 3915W        W20389   8.188  16.696   0.425  0.1783 -0.0225 -0.1935
 3916W        W20390  16.880  10.933  16.556  0.1562 -0.0061 -0.2102
 3917W        W20391  12.985  11.528  14.854  0.2631  0.0184  0.1654
 3918W        W20392   5.701   0.511  16.257  0.1881  0.0105  0.1512
 3919W        W20393   0.266   2.269   4.934 -0.0913  0.0917 -0.0613
 3920W        W20394   3.378   6.293  13.179  0.0637 -0.0418 -0.0840
 3921W        W20395   8.524   5.970  12.178  0.1786  0.2776  0.2740
 3922W        W20396  13.720  13.105   0.871 -0.1096  0.2175 -0.1769
 3923W        W20397   7.854   9.275   4.810 -0.1637 -0.0551  0.2712
 3924W        W20398  17.160  11.788  11.507 -0.0985 -0.2270 -0.0732
 3925W        W20399  13.688   3.868   3.657  0.1098 -0.2151 -0.0985
 3926W        W20400   7.395   5.560   6.174 -0.0856  0.0464  0.1404
 3927W        W20401  14.959   0.478  12.317 -0.0802  0.1956 -0.1175
 3928W        W20402   8.110   1.739   4.850  0.2373 -0.0673  0.0179
 3929W        W20403  14.530   9.314   4.581  0.0202 -0.0446  0.0732
 3930W        W20404  11.008   5.574  13.617  0.1291 -0.0227 -0.0813
 3931W        W20405  13.811  17.339  16.033 -0.3281 -0.2398 -0.0237
 3932W        W20406  11.669   0.073   3.393  0.1408  0.1745  0.1475
 3933W        W20407   4.438  10.985  16.802 -0.0220 -0.0743  0.0750
 3934W        W20408   2.011   7.778   4.665  0.2313 -0.0221 -0.1758
 3935W        W20409   4.854   3.420  14.640  0.1156  0.1225  0.2854
 3936W        W20410  15.424   0.714  15.224 -0.2699  0.0632  0.0646
 3937W        W20411   8.867  14.745   4.630  0.3173 -0.1914  0.0783
 3938W        W20412  15.161   8.982  13.487 -0.3507  0.1598 -0.2969
 3939W        W20413   9.768  13.121  12.169 -0.0284  0.2051 -0.1216
 3940W        W20414  14.826  15.576  16.865  0.0515  0.0533 -0.2199
 3941W        W20415   9.418  14.223  16.501 -0.3988 -0.0021 -0.3198
 3942W        W20416  11.921  16.827  16.803  0.0204  0.1851  0.0643
 3943W        W20417   1.731   7.995  14.813  0.0214 -0.1789 -0.0167
 3944W        W20418  17.028   0.815  14.417 -0.2203 -0.1073 -0.0089
 3945W        W20419   6.279  15.841   2.852 -0.0003  0.0494  0.2176
 3946W        W20420   4.534   3.136   0.937  0.1603 -0.0388  0.0237
 3947W        W20421   9.171  13.302  15.460  0.1849  0.1530  0.2263
 3948W        W20422   8.631  14.496  15.521 -0.1316  0.0939  0.0283
 3949W        W20423  12.420  13.896  14.819  0.0974  0.0736 -0.1413
 3950W        W20424   6.554   5.118   1.430 -0.2186 -0.1483  0.1751
 3951W        W20425   2.759   4.643   3.573 -0.0271 -0.2249  0.0715
 3952W        W20426   5.772   3.875   1.558  0.0119 -0.0583  0.0768
 3953W        W20427  14.349  10.007   2.626 -0.1551  0.1197  0.3587
 3954W        W20428   7.159   6.459  13.323 -0.2492  0.0469  0.1496
 3955W        W20429   1.275   2.120  14.641  0.0606  0.1537 -0.1914
 3956W        W20430   2.999   1.933   2.355  0.1105 -0.0637 -0.3333
 3957W        W20431  15.249  14.065   1.897  0.0994 -0.4396 -0.2799
 3958W        W20432   9.744   9.942  13.242 -0.0497 -0.1060  0.0348
 3959W        W20433   1.847  13.624  15.773 -0.2473  0.3214 -0.3300
 3960W        W20434  16.959   2.447   3.352 -0.5564 -0.1061 -0.0659
 3961W        W20435   4.948   5.326   3.327 -0.1920  0.2829 -0.2635
 3962W        W20436   0.685   0.253   0.077 -0.0165 -0.0257 -0.2861
 3963W        W20437   6.148   4.724   3.065  0.0833  0.0246 -0.2150
 3964W        W20438  13.066  14.099  14.053 -0.2770  0.0457 -0.2105
 3965W        W20439   7.088   2.773  15.199  0.1269  0.0612 -0.1060
 3966W        W20440  11.758  17.428   3.653  0.2530  0.0236 -0.0345
 3967W        W20441  10.358  12.960  15.957 -0.0228 -0.0507 -0.2429
 3968W        W20442   8.957   3.289  14.775 -0.0148  0.3089 -0.2073
 3969W        W20443  14.765   2.355   0.712 -0.1270 -0.0437 -0.2032
 3970W        W20444   0.523  13.430   1.516  0.0171 -0.0705 -0.0945
 3971W        W20445   5.835  10.494  12.542  0.0215 -0.0859  0.1342
 3972W        W20446  17.082   2.113   1.962  0.2397 -0.3439 -0.0526
 3973W        W20447  10.264  13.176   0.250 -0.1378  0.2675 -0.1906
 3974W        W20448   5.854   2.074   5.571 -0.0303 -0.0710  0.1608
 3975W        W20449   2.715   4.076   2.676  0.0793 -0.0198  0.0062
 3976W        W20450  17.715  11.766  15.786  0.1813  0.2061 -0.0248
 3977W        W20451   9.336   7.767  13.512 -0.0057 -0.2035  0.2431
 3978W        W20452   3.881  16.778   1.896  0.0141 -0.1917  0.1750
 3979W        W20453  10.730  14.585  12.404 -0.3345 -0.1047  0.0919
 3980W        W20454   9.994   3.391  13.997 -0.0383  0.0163 -0.0345
 3981W        W20455  10.222   4.040   2.555 -0.0591  0.0984  0.1198
 3982W        W20456   4.865  11.161   1.057  0.0519  0.1692 -0.2384
 3983W        W20457   2.649  17.163  12.820 -0.1076  0.0419  0.1686
 3984W        W20458  10.665  15.590   6.076  0.0410  0.0713 -0.0393
 3985W        W20459  11.381   7.649  13.874 -0.2614 -0.2950 -0.2933
 3986W        W20460   7.010   2.085  13.065 -0.4191 -0.0628  0.3291
 3987W        W20461   7.669   6.080   1.405 -0.0013 -0.1130 -0.0937
 3988W        W20462   9.061  17.626   1.146 -0.0303 -0.0010 -0.0858
 3989W        W20463  11.208  13.751  16.184  0.0091 -0.1731  0.1621
 3990W        W20464   6.776  14.945   2.338 -0.1160  0.1489 -0.3509
 3991W        W20465   4.740   9.244  16.644  0.0432 -0.2484  0.0649
 3992W        W20466   7.269   6.115  16.624  0.2387 -0.1763  0.1895
 3993W        W20467   6.732   6.159  13.296  0.0655  0.0992 -0.1692
 3994W        W20468  11.018   3.639   0.132  0.3415 -0.3109  0.2554
 3995W        W20469   6.914   8.912  13.286  0.0646  0.0193  0.1791
 3996W        W20470   3.773  17.304  11.811 -0.1426 -0.0729 -0.1975
 3997W        W20471   6.864   4.251   1.261  0.1640 -0.0326 -0.1798
 3998W        W20472   2.673   8.741   0.063 -0.1553 -0.1795  0.1863
 3999W        W20473   2.100   1.346  15.204  0.0975  0.0275  0.0827
 4000W        W20474   9.693  14.822  15.718 -0.0938  0.2473  0.3914
 4001W        W20475   5.082   0.966   5.577 -0.2982  0.0448 -0.1596
 4002W        W20476  16.364   1.829  15.729 -0.0277  0.0353 -0.1083
 4003W        W20477  14.868  16.653  15.756  0.1802 -0.0580 -0.0848
 4004W        W20478  16.098  11.358  13.919 -0.1178  0.0084  0.1808
 4005W        W20479  13.470  16.954   1.675  0.1589 -0.2183 -0.1595
 4006W        W20480  15.271   4.422   5.060  0.0373 -0.1212 -0.1793
 4007W        W20481  15.264  12.141   2.981 -0.0263 -0.0649  0.1229
 4008W        W20482  10.188  15.251   1.386 -0.2477  0.2609  0.0424
 4009W        W20483   5.455  17.475   5.593  0.0238  0.1328  0.2593
 4010W        W20484  10.171   9.351  15.053 -0.1762  0.0371  0.3238
 4011W        W20485  14.511  11.336   1.393  0.0495  0.1789 -0.2163
 4012W        W20486  14.365   1.220   3.171  0.2622 -0.2226  0.0184
 4013W        W20487   6.402   9.716   1.378 -0.1926  0.1079 -0.2021
 4014W        W20488  14.850  12.312  12.274 -0.0567 -0.2234 -0.0703
 4015W        W20489  14.905  13.788  14.770  0.1386 -0.0251  0.1507
 4016W        W20490   9.890   9.968   0.477 -0.1758  0.1344 -0.1955
 4017W        W20491  10.165  10.249  12.401  0.0141  0.1011 -0.0849
 4018W        W20492   6.114  10.166   4.545 -0.2340 -0.2378 -0.1048
 4019W        W20493  13.142   9.396   2.040 -0.0699 -0.1098 -0.4364
 4020W        W20494  16.155  15.061   4.513 -0.0284  0.0514  0.3709
 4021W        W20495   4.111   3.345   3.496  0.0220 -0.1743  0.1892
 4022W        W20496  16.617  16.706  11.338  0.2787  0.1220  0.1031
 4023W        W20497  10.524  11.130   5.995  0.2097  0.0281 -0.1641
 4024W        W20498   3.365   5.418   2.941 -0.0951  0.1054 -0.0130
 4025W        W20499   7.198   6.395  12.521  0.1923  0.1621 -0.1411
 4026W        W20500   1.963  12.981   2.427  0.0217  0.1391 -0.0502
 4027W        W20501  13.656   0.300  14.793 -0.0282 -0.0839 -0.0838
 4028W        W20502  15.596  15.808   0.301  0.0235 -0.0852  0.0749
 4029W        W20503   4.702   9.084   3.978  0.3228  0.0125 -0.2001
 4030W        W20504  15.077  13.261   3.591 -0.1754 -0.0619  0.1373
 4031W        W20505  12.818   5.917  12.485 -0.1215  0.0553  0.1023
 4032W        W20506  11.010  13.556   2.071  0.0270  0.0031  0.3199
 4033W        W20507   6.250  14.027  14.377  0.0764 -0.0681  0.1076
 4034W        W20508  10.385  15.505  12.001  0.0312  0.0907 -0.2380
 4035W        W20509   9.534  17.131  16.782 -0.3545 -0.3903  0.1158
 4036W        W20510   9.044   9.876   0.075 -0.0316 -0.0332  0.0530
 4037W        W20511  16.491   8.886  11.548 -0.4568  0.3960 -0.0378
 4038W        W20512  16.721   6.692   5.611  0.0261 -0.0588 -0.1945
 4039W        W20513   3.880  11.076  12.348  0.2223 -0.1709 -0.1338
 4040W        W20514  13.433  16.468   0.994 -0.4436  0.1435  0.2241
 4041W        W20515   4.981   1.319  12.931 -0.0524 -0.0526  0.0505
 4042W        W20516  10.069   6.606  14.725  0.0709 -0.0442  0.1833
 4043W        W20517  16.129   3.879  14.233  0.1492 -0.2192 -0.0020
 4044W        W20518  14.651  13.328  13.733  0.0999  0.2906 -0.2121
 4045W        W20519  11.669  11.859  15.320  0.1991 -0.0509  0.0692
 4046W        W20520   8.050   0.277   1.911 -0.2599  0.0198 -0.3987
 4047W        W20521  11.464   5.753   1.958 -0.1931 -0.1129 -0.1392
 4048W        W20522   3.100   9.494   3.100  0.3642 -0.0489 -0.1732
 4049W        W20523   7.968  16.636  15.894 -0.1200  0.2478  0.0451
 4050W        W20524   5.821  17.080  14.330  0.0890 -0.0157 -0.1470
 4051W        W20525  13.643  13.504  13.093  0.0446  0.0884 -0.4078
 4052W        W20526   0.371  12.052  13.206  0.2388 -0.1562 -0.2591
 4053W        W20527   0.520   6.887  15.213 -0.1679 -0.2138  0.0452
 4054W        W20528  13.175   8.498  16.455 -0.0587 -0.1134  0.1129
 4055W        W20529  16.411  13.712   4.059 -0.0998  0.1515  0.0432
 4056W        W20530  13.879  10.502  14.213  0.0169 -0.0086 -0.1161
 4057W        W20531  14.710   7.088   1.285 -0.0613  0.5480  0.1751
 4058W        W20532   6.716  10.172  15.898  0.0649  0.0364 -0.2723
 4059W        W20533  15.801  13.710   2.833 -0.0472 -0.0684  0.1770
 4060W        W20534  15.773   0.284   2.810 -0.0333  0.0022 -0.0809
 4061W        W20535  12.623  12.050   1.743  0.1704  0.0578  0.2392
 4062W        W20536  13.347  15.728   4.605 -0.2301 -0.0132 -0.0571
 4063W        W20537   6.396  17.799   2.871  0.2195  0.1121  0.0342
 4064W        W20538   6.213   5.419  13.390 -0.3685 -0.1784 -0.2038
 4065W        W20539   1.816  12.460  12.427 -0.1654  0.1673 -0.0967
 4066W        W20540   7.866   7.565  15.602  0.1057 -0.1454  0.1947
 4067W        W20541   3.237   1.491   2.477  0.3107  0.0804 -0.0562
 4068W        W20542   9.292   8.855  11.943  0.3269 -0.1845  0.1037
 4069W        W20543   0.002   5.307   1.906  0.1024 -0.0100 -0.3011
 4070W        W20544   3.405  16.708   3.312  0.2082  0.2719 -0.2174
 4071W        W20545   9.635   1.409   3.574  0.0197  0.2378 -0.5332
 4072W        W20546   5.977  17.746   4.820  0.2726 -0.0933  0.0915
 4073W        W20547   3.014  11.120  11.856  0.1770  0.1168  0.1457
 4074W        W20548  10.941  12.100  15.979  0.0291  0.3191  0.3085
 4075W        W20549   6.374   5.313   3.701 -0.0903  0.0573  0.0327
 4076W        W20550   2.697  15.508  13.341 -0.1710 -0.0665  0.0751
 4077W        W20551  14.914   3.489   2.809 -0.3715 -0.1398 -0.0283
 4078W        W20552   1.586   9.428   1.543 -0.1474  0.0202  0.0968
 4079W        W20553   4.899  17.275  16.531  0.1594 -0.0991  0.0830
 4080W        W20554  15.454   4.007  16.231 -0.0131  0.0954 -0.0381
 4081W        W20555  13.213  10.371  15.764  0.0016  0.2268  0.0919
 4082W        W20556   4.382   5.229  13.152  0.2174 -0.1542  0.0148
 4083W        W20557  16.108  16.061   5.827 -0.3101  0.1391  0.0126
 4084W        W20558   8.006   6.456  13.624  0.0345  0.0246 -0.0186
 4085W        W20559   2.717  14.029  15.573  0.1125  0.0857  0.0797
 4086W        W20560  10.737  15.910   1.022 -0.2429 -0.1796 -0.1224
 4087W        W20561   2.366  16.251  14.569 -0.0174  0.2014  0.2254
 4088W        W20562   2.055   0.988  14.523 -0.1836  0.0545  0.2174
 4089W        W20563   7.740   0.792   2.973  0.1240  0.1443 -0.0782
 4090W        W20564  16.515   4.715   5.304 -0.2008 -0.3147  0.0734
 4091W        W20565   2.708   3.376   5.119 -0.0062  0.1899  0.1655
 4092W        W20566  14.581  13.122   1.441  0.0013  0.2127  0.1516
 4093W        W20567  17.799  14.029   5.866  0.1498  0.0928 -0.0534
 4094W        W20568  15.724   1.395  13.092 -0.0772 -0.1289 -0.2287
 4095W        W20569  14.164  12.006  15.498  0.1151  0.1908  0.3427
 4096W        W20570   3.758   1.716  15.472 -0.0613 -0.0801  0.2076
 4097W        W20571  14.320   3.997  12.490 -0.0460  0.1426  0.5521
 4098W        W20572   9.460  14.799  16.602 -0.1942 -0.0448  0.0342
 4099W        W20573   8.728   4.791   0.040 -0.3927  0.2179  0.0690
 4100W        W20574   0.519  16.173   3.717  0.1300 -0.1424 -0.0847
 4101W        W20575  12.688   9.765   0.809  0.3545  0.0072  0.6241
 4102W        W20576   1.300  10.561   1.145 -0.1589  0.0437 -0.0141
 4103W        W20577   2.252   6.173  11.737  0.0012  0.0388  0.0475
 4104W        W20578   4.518  10.624   0.289 -0.0396 -0.0889 -0.1827
 4105W        W20579  10.286   9.067  16.236  0.1447 -0.0878  0.2280
 4106W        W20580   4.127  16.260   3.224 -0.1076 -0.1027 -0.1871
 4107W        W20581   8.591  11.305   4.834  0.2067 -0.1063 -0.1071
 4108W        W20582  12.165  11.041  15.202  0.0417 -0.0957  0.1582
 4109W        W20583  17.203   0.876   2.215  0.1731  0.1264  0.1605
 4110W        W20584  12.270   4.825   2.142  0.0856  0.2161  0.3892
 4111W        W20585  15.349  15.766  15.940 -0.0996 -0.1796 -0.3857
 4112W        W20586  13.425  15.179  16.601  0.1137 -0.0248 -0.1694
 4113W        W20587  17.696   0.430  14.573 -0.0519 -0.0313  0.0038
 4114W        W20588  11.225   8.847   5.136 -0.0045  0.1866 -0.1598
 4115W        W20589   8.676   0.101  12.704  0.2540 -0.2537  0.0976
 4116W        W20590   4.760  15.323  16.345 -0.1489  0.0636  0.1070
 4117W        W20591   7.664  10.793  12.997  0.0744 -0.0936 -0.2258
 4118W        W20592  11.954   4.136  16.083 -0.0302 -0.0581  0.0262
 4119W        W20593  11.575   6.506   0.041  0.0146 -0.1398 -0.1034
 4120W        W20594   1.140   9.945   3.025  0.2230  0.2431  0.0750
 4121W        W20595   1.946  15.393   4.642 -0.0570  0.0093 -0.1509
 4122W        W20596  16.474   0.871  12.780  0.0631  0.1770  0.1270
 4123W        W20597  12.106  11.062  13.333  0.0383 -0.0869  0.1210
 4124W        W20598  16.885  15.011  11.468  0.2801 -0.2910 -0.0376
 4125W        W20599  10.998   9.119   4.746 -0.0388  0.2447  0.2786
 4126W        W20600  16.704  16.893  14.053  0.3451  0.0144 -0.2232
 4127W        W20601  16.166   6.409   5.401  0.1900 -0.2114 -0.2134
 4128W        W20602   3.869   4.851   3.361 -0.2219 -0.2670 -0.1466
 4129W        W20603  13.052   2.294   0.830 -0.1968  0.0203 -0.0861
 4130W        W20604  16.841  17.496   2.590 -0.0474  0.2111  0.1756
 4131W        W20605   0.432   7.015   0.046 -0.1876  0.0705 -0.0455
 4132W        W20606   7.190  12.458  11.657  0.2044  0.0901  0.0623
 4133W        W20607   7.216  10.009  16.717 -0.2402  0.2519  0.1170
 4134W        W20608  14.158  10.479   2.563 -0.2275 -0.1342 -0.0794
 4135W        W20609  15.778   8.969   1.027  0.0312 -0.2322  0.0675
 4136W        W20610   2.226   8.496  14.125 -0.0642 -0.0567  0.0239
 4137W        W20611   4.778   9.611   5.517 -0.0931  0.2613  0.2824
 4138W        W20612   0.333   9.970  13.887 -0.3191 -0.0199  0.2261
 4139W        W20613   6.186  15.077  16.527  0.0682  0.1800  0.1996
 4140W        W20614  14.564   4.155  14.246 -0.2933 -0.0973  0.0594
 4141W        W20615   3.683  12.655   1.517 -0.2621  0.1269  0.1194
 4142W        W20616   1.677  16.971  14.190 -0.2266  0.0020  0.1139
 4143W        W20617   6.489  11.216  16.322  0.0611 -0.1446 -0.1728
 4144W        W20618  17.195   9.589   3.682  0.0053 -0.0716 -0.1532
 4145W        W20619  10.908   0.545  16.838  0.1612  0.1328  0.0494
 4146W        W20620   2.508   6.417   0.043  0.2884 -0.0346 -0.0189
 4147W        W20621  12.900  12.236   5.282  0.1036 -0.2152 -0.1668
 4148W        W20622   4.279   3.776   3.672 -0.4146  0.1151 -0.0723
 4149W        W20623  12.440   9.530  15.683  0.1077  0.2670 -0.0610
 4150W        W20624  11.006  11.072  15.507  0.1012 -0.5162 -0.1144
 4151W        W20625   7.742   0.461   1.540  0.2414 -0.2038 -0.2013
 4152W        W20626   4.435  10.203  16.621 -0.3100  0.1467 -0.0181
 4153W        W20627  11.048   8.632  12.027  0.0363 -0.2680 -0.1112
 4154W        W20628   0.657  17.490   1.375 -0.2027  0.2650  0.1136
 4155W        W20629   2.520   0.354  12.776 -0.1115 -0.1265 -0.1069
 4156W        W20630   5.358   8.239  16.245  0.3072  0.0790  0.1025
 4157W        W20631   2.651   3.140   4.672 -0.1302  0.1041 -0.2158
 4158W        W20632   6.969  17.003  15.018 -0.1672 -0.0330  0.0838
 4159W        W20633  11.602  14.025   2.516 -0.0822  0.0775 -0.2820
 4160W        W20634  10.357   8.597  14.297  0.0568 -0.0217 -0.0023
 4161W        W20635  11.893   5.370   5.086  0.1389 -0.3127 -0.3307
 4162W        W20636   4.231   7.806   0.994  0.0623 -0.1749 -0.2807
 4163W        W20637  11.153   9.555  16.006  0.0037  0.3644  0.2266
 4164W        W20638   3.331  10.283   3.087  0.3415 -0.2757  0.1224
 4165W        W20639   1.054   1.166  13.543 -0.3269 -0.3176 -0.2296
 4166W        W20640   1.692   9.271   2.009  0.0266 -0.2713 -0.2888
 4167W        W20641  10.750   1.070  16.417  0.2901 -0.0183  0.1325
 4168W        W20642  15.928   2.904  16.833  0.2091  0.0336  0.1508
 4169W        W20643  15.052  14.984   4.310 -0.1501  0.0073 -0.1627
 4170W        W20644  10.481   0.791   3.641 -0.2419  0.0722  0.1254
 4171W        W20645  15.297  15.072  12.158 -0.0487  0.2017 -0.1820
 4172W        W20646   2.569  17.577   3.926 -0.0362  0.0994 -0.1803
 4173W        W20647  15.801  15.997  16.333 -0.0834 -0.0494  0.3783
 4174W        W20648  11.707   7.093   0.747  0.1541 -0.2154  0.1411
 4175W        W20649  14.709  10.380   0.302  0.3228 -0.1126 -0.3246
 4176W        W20650  16.480  17.434  13.182  0.2571 -0.2780  0.3317
 4177W        W20651  14.211   6.685   6.092 -0.1116 -0.0086 -0.0034
 4178W        W20652   3.250   4.043   5.308  0.0910  0.1090  0.2882
 4179W        W20653   0.048   2.843   0.347  0.2196 -0.2338  0.0792
 4180W        W20654   0.512   2.072  12.907 -0.1527  0.3074  0.1709
 4181W        W20655  10.803   9.258   3.082 -0.1796 -0.3055 -0.0853
 4182W        W20656   8.144  12.451  14.436 -0.0047  0.0531  0.0094
 4183W        W20657  11.862   3.379   3.557  0.1132  0.1582  0.0817
 4184W        W20658  16.197   1.505  13.265  0.1490 -0.4040 -0.0377
 4185W        W20659  11.424   9.709  14.742  0.2323 -0.2122  0.1274
 4186W        W20660  14.832  15.740  13.145  0.3750 -0.1728  0.2264
 4187W        W20661  16.965   5.954   3.868 -0.5974  0.1603  0.0284
 4188W        W20662  11.114   9.214   2.224  0.2834  0.3282 -0.0639
 4189W        W20663   3.360  17.040  15.761 -0.0453 -0.1138 -0.0320
 4190W        W20664  10.133   0.150  15.574  0.0596 -0.1624  0.3219
 4191W        W20665   7.367  12.544  14.784  0.2176  0.0413 -0.1226
 4192W        W20666   8.662   5.943  13.272 -0.0456 -0.0061 -0.2553
 4193W        W20667  16.218  11.082  13.418  0.0218  0.2521 -0.0914
 4194W        W20668   8.739   2.808   2.743 -0.3704  0.1621  0.0170
 4195W        W20669  11.571   8.270  12.942 -0.1267  0.2632 -0.1071
 4196W        W20670  11.503   2.761  14.738 -0.2525  0.0652  0.0406
 4197W        W20671   2.886   1.935  14.022 -0.1715 -0.1792 -0.0366
 4198W        W20672   3.791   9.545  16.759  0.2230 -0.1009 -0.5214
 4199W        W20673  11.102   8.471   2.785  0.1285 -0.1583  0.0645
 4200W        W20674  16.336   6.087   4.981 -0.2415 -0.0783  0.0022
 4201W        W20675   7.909   4.780  12.896 -0.0916  0.1023 -0.0370
 4202W        W20676   5.193   6.475  14.764  0.1274  0.2638  0.1215
 4203W        W20677  15.100   4.060   3.523  0.1632 -0.2558  0.1440
 4204W        W20678  14.347   2.374   3.015  0.1002 -0.1504  0.0910
 4205W        W20679   2.122   2.358  12.459 -0.0228 -0.0281  0.1742
 4206W        W20680   5.079  14.974   2.991 -0.0699 -0.1119  0.0660
 4207W        W20681   7.487   2.672   5.584  0.0096 -0.2243 -0.0153
 4208W        W20682  15.600   2.787  13.228  0.0152 -0.0806 -0.2259
 4209W        W20683  10.270  12.560  15.637 -0.2349  0.2652  0.1415
 4210W        W20684  14.221   8.483   4.306  0.1464 -0.2350 -0.1611
 4211W        W20685   5.272  17.431  13.782  0.0928 -0.2406 -0.0097
 4212W        W20686   5.178   4.254   2.973 -0.2685  0.1708 -0.0787
 4213W        W20687   3.282  10.235   4.808  0.0104  0.0789 -0.2116
 4214W        W20688  17.109   4.621  16.532 -0.1174 -0.2004 -0.3444
 4215W        W20689  13.250   1.459   0.435  0.4494  0.1659 -0.0500
 4216W        W20690  14.215  14.045  12.666 -0.0091  0.0287  0.0804
 4217W        W20691   3.823  14.675   4.222  0.1762  0.0848  0.2656
 4218W        W20692   5.504  10.661   0.438 -0.0872  0.1328  0.1161
 4219W        W20693   2.960  11.567   0.512  0.1394  0.0249 -0.0851
 4220W        W20694   9.719  11.958  13.473  0.0790 -0.1798  0.2678
 4221W        W20695   7.999   9.290   4.299 -0.0055  0.1917 -0.4342
 4222W        W20696  15.058  13.550  16.162  0.3539 -0.1124 -0.0195
 4223W        W20697   6.986   4.472  11.756 -0.1792 -0.1039 -0.0990
 4224W        W20698   1.284   8.002  14.454  0.0045 -0.0101 -0.0981
 4225W        W20699   3.236   7.993   3.389 -0.4612 -0.3262  0.0645
 4226W        W20700   1.629   7.696   1.232 -0.1671  0.1920  0.1237
 4227W        W20701   2.468  10.992   2.485 -0.1593 -0.4282  0.1080
 4228W        W20702   0.582   9.451   1.327 -0.0078  0.2525  0.2638
 4229W        W20703  14.036  16.346   5.155  0.4992  0.0993 -0.1092
 4230W        W20704  10.502   1.181  10.764  0.1424  0.0348  0.0844
 4231W        W20705   0.156   7.429   4.573  0.0248  0.0917 -0.1889
 4232W        W20706  15.681   9.998   5.574 -0.5169  0.1818 -0.0003
 4233W        W20707   6.736   6.285   3.719  0.0538  0.3664 -0.0203
 4234W        W20708  12.634  16.443   1.408 -0.0050 -0.0114  0.0033
 4235W        W20709   9.938   4.289   6.709  0.2279  0.1291  0.2897
 4236W        W20710   3.384   2.009   4.484  0.1000 -0.3042 -0.2239
 4237W        W20711  15.463   6.887  15.743  0.0855 -0.1358 -0.0133
 4238W        W20712   0.835  17.493  16.810 -0.0830  0.1170 -0.2715
 4239W        W20713   5.658  10.004   4.076 -0.1685 -0.4095 -0.0382
 4240W        W20714  15.276  12.350   1.219  0.2039  0.0687 -0.1972
 4241W        W20715   3.510  11.227  12.693  0.0413 -0.1289  0.1957
 4242W        W20716   2.484   8.960   2.722 -0.2206  0.2936  0.1475
 4243W        W20717  10.522  14.943   1.091  0.1696 -0.2042 -0.3483
 4244W        W20718  10.019   8.150   3.684 -0.1859 -0.1084 -0.1002
 4245W        W20719   3.820  17.448   0.944  0.1882  0.0902  0.2181
 4246W        W20720   2.321   3.218   5.485  0.0914  0.0631  0.2705
 4247W        W20721   4.138   2.015   0.577 -0.2987  0.1844 -0.0274
 4248W        W20722   0.792   9.770  13.794 -0.1460  0.2968 -0.2062
 4249W        W20723  10.417   2.695  11.825 -0.0467 -0.0687  0.2756
 4250W        W20724   4.462  15.363   2.508  0.0995 -0.1001 -0.0417
 4251W        W20725   3.212   0.949  11.608 -0.3689  0.1232 -0.1035
 4252W        W20726  16.242  15.076   1.299  0.3999  0.1858  0.0904
 4253W        W20727   5.036   1.041  13.442  0.1636  0.1122  0.1096
 4254W        W20728   8.894  13.796   2.285 -0.1116  0.1192  0.1969
 4255W        W20729  12.695   4.725  16.008  0.0435  0.0250  0.0154
 4256W        W20730   4.952  16.760  14.979 -0.1056  0.0171  0.1655
 4257W        W20731  13.156   1.044  12.255  0.1240 -0.1449 -0.1579
 4258W        W20732   3.242  12.755  16.614  0.0459  0.1105 -0.1603
 4259W        W20733  15.634   1.388  16.155  0.1068 -0.1453  0.0865
 4260W        W20734   3.949   5.561   1.867 -0.1110  0.3688  0.1500
 4261W        W20735   2.247  10.460   1.062  0.0951 -0.3380 -0.1045
 4262W        W20736   1.477  16.275  14.566  0.0306 -0.0786 -0.0622
 4263W        W20737   3.037  17.343   5.210  0.0500  0.1294  0.1166
 4264W        W20738   0.722   3.070  13.689 -0.0814  0.2767 -0.1191
 4265W        W20739   8.572  10.231   0.392  0.0044 -0.0844 -0.1976
 4266W        W20740  13.196   7.161   3.257 -0.1177  0.1429  0.3517
 4267W        W20741  14.671   0.412   5.067  0.0453 -0.3021 -0.0905
 4268W        W20742  13.895   2.257   5.308 -0.0271  0.1326  0.3689
 4269W        W20743   8.851   1.301   1.194 -0.1137  0.0530  0.0991
 4270W        W20744  13.397   9.963   4.554 -0.1557 -0.0646 -0.0535
 4271W        W20745  11.562   7.189  15.781 -0.0547 -0.1217  0.2286
 4272W        W20746   6.535  14.846  13.534 -0.0693 -0.0791 -0.2398
 4273W        W20747   9.329  15.963  11.547 -0.2590 -0.0719 -0.3441
 4274W        W20748  10.410   0.317  16.785 -0.0982  0.0775  0.1450
 4275W        W20749   4.094   1.679   6.306  0.2318  0.2505  0.0135
 4276W        W20750  16.999   4.700  14.561 -0.0838 -0.0488  0.1232
 4277W        W20751  16.571   3.245   0.339 -0.1218 -0.1564  0.0274
 4278W        W20752   7.960  16.803   1.004 -0.3069  0.1619  0.0182
 4279W        W20753  12.382  11.419  15.580 -0.0850  0.3091  0.2643
 4280W        W20754   2.407   4.371  15.788  0.3024 -0.1545 -0.0696
 4281W        W20755   7.177  13.059  13.156 -0.3368 -0.2803  0.0713
 4282W        W20756   2.623  10.778   3.593 -0.0297  0.1127  0.1289
 4283W        W20757   3.969   5.863  14.255  0.0251  0.0017  0.0984
 4284W        W20758   7.018   1.221  11.446 -0.0324  0.0447 -0.0746
 4285W        W20759   2.259   2.569   5.492 -0.0159 -0.1744 -0.0512
 4286W        W20760  11.275   4.862   1.250  0.2226 -0.2972 -0.2191
 4287W        W20761  14.194   6.787  12.324 -0.0889  0.0791  0.0001
 4288W        W20762   7.971   3.666   1.231 -0.1313  0.0732 -0.0773
 4289W        W20763  14.568  17.799  16.369  0.0472 -0.0642 -0.1372
 4290W        W20764  11.095  11.455   1.055  0.0776  0.2124  0.2955
 4291W        W20765  15.694  17.560  12.345  0.1775 -0.0118 -0.1067
 4292W        W20766  17.617  13.885  11.941  0.0639 -0.1856 -0.1757
 4293W        W20767  17.006  13.997   4.275 -0.1602 -0.0646 -0.1995
 4294W        W20768   2.994   8.865   3.956  0.4221 -0.2936  0.0050
 4295W        W20769  10.458  16.336  14.587 -0.0752 -0.0953  0.3826
 4296W        W20770  10.482   0.459  15.177  0.0865 -0.1230  0.0627
 4297W        W20771  12.711   1.687  14.674 -0.2778 -0.2590 -0.1628
 4298W        W20772   9.001   3.698   3.316  0.1730  0.2246  0.0355
 4299W        W20773   5.881  15.345  13.577 -0.0748 -0.1316 -0.0606
 4300W        W20774   7.364   0.092  16.428 -0.2060 -0.2498 -0.3145
 4301W        W20775  11.787   3.038   1.016  0.0740 -0.0434  0.0509
 4302W        W20776   7.166  12.923  11.751  0.1690 -0.1306  0.0613
 4303W        W20777   1.353  11.974  12.848  0.0795 -0.1310 -0.2375
 4304W        W20778  10.313   7.015  12.338  0.0449 -0.1055  0.0923
 4305W        W20779  12.720   1.172   3.226  0.1797  0.0660 -0.1516
 4306W        W20780  10.559  13.433  15.289  0.0308 -0.1503  0.0916
 4307W        W20781  15.516  13.648   0.989  0.0232 -0.2459  0.3061
 4308W        W20782   7.449  10.712   5.158  0.0989  0.0207 -0.0893
 4309W        W20783   7.513  17.060  12.980  0.1209 -0.0471  0.1758
 4310W        W20784  16.944   8.719  11.817  0.2604  0.2874 -0.2293
 4311W        W20785   4.285  14.721   3.948  0.1662 -0.1467  0.0799
 4312W        W20786   1.976   2.466   0.905 -0.1046 -0.0978 -0.2910
 4313W        W20787  11.011   6.226   1.621  0.0507 -0.2761 -0.1371
 4314W        W20788   7.528  15.522   3.189 -0.3427 -0.3489 -0.1435
 4315W        W20789  10.667   0.764  12.724 -0.0846  0.1088  0.2042
 4316W        W20790   5.540  12.019  15.293 -0.0361 -0.0095 -0.1302
 4317W        W20791  13.184   3.411  16.117  0.0154 -0.0003 -0.0388
 4318W        W20792   3.673  13.486  13.932 -0.0708  0.1444 -0.1789
 4319W        W20793  16.375  12.190  16.673 -0.0041  0.0224 -0.0458
 4320W        W20794   4.711  14.529  13.881  0.0687 -0.0982  0.0748
 4321W        W20795  16.134   5.867   5.487 -0.1415 -0.1374 -0.0538
 4322W        W20796   3.294  14.160  13.741 -0.1844  0.0366 -0.1720
 4323W        W20797  14.817  13.451  11.316 -0.0105 -0.2846 -0.0072
 4324W        W20798  15.551   0.205   3.711  0.0841 -0.0838  0.0272
 4325W        W20799  12.354   3.649   2.543 -0.1835  0.0762 -0.0332
 4326W        W20800  12.607  10.923   5.311 -0.3305  0.0113 -0.2269
 4327W        W20801  17.728  17.735  14.503 -0.1412 -0.0160  0.3063
 4328W        W20802  11.209   0.834  16.477 -0.0667 -0.0323  0.1043
 4329W        W20803   2.474   8.254  14.466 -0.3611 -0.1663 -0.0475
 4330W        W20804  14.107  11.438  10.938 -0.1649  0.3956 -0.0506
 4331W        W20805  11.577   5.090  14.775 -0.3425 -0.1076  0.0808
 4332W        W20806  11.777  12.329  16.658  0.1599  0.1430  0.0543
 4333W        W20807   9.798   3.113  14.402  0.1368  0.2639  0.1383
 4334W        W20808   3.090   4.213   3.028  0.1468  0.1685 -0.1625
 4335W        W20809  13.957  14.763  15.354  0.0931 -0.1450  0.3389
 4336W        W20810   7.855   2.929   5.080  0.0760 -0.1020 -0.2200
 4337W        W20811   2.518  13.273  11.110  0.1836 -0.3019  0.1286
 4338W        W20812  16.984   9.203   1.496 -0.1145  0.3185 -0.1334
 4339W        W20813  14.084  10.063   3.880  0.1505  0.1845  0.0473
 4340W        W20814   2.633   5.589  16.923 -0.1344 -0.1642 -0.1521
 4341W        W20815   1.881   7.771  11.969 -0.2054 -0.0499  0.1830
 4342W        W20816  14.544  14.611  15.635  0.3142 -0.3199 -0.0600
 4343W        W20817  17.616  17.303   5.036  0.5350 -0.0730  0.0691
 4344W        W20818  14.352  11.878   1.287 -0.0225 -0.0085  0.0378
 4345W        W20819  15.458   6.039  16.785 -0.0967  0.0150 -0.0496
 4346W        W20820   1.784   6.521   4.290 -0.0684 -0.4008 -0.0803
 4347W        W20821  16.761  10.586  14.803 -0.0947 -0.3861 -0.1180
 4348W        W20822  14.957   7.761  11.651 -0.0859 -0.2237  0.0003
 4349W        W20823   9.651   6.595  11.493  0.0862  0.0406  0.2314
 4350W        W20824   8.412  14.355   5.236  0.2517  0.0204 -0.0569
 4351W        W20825   6.323  13.773  11.782 -0.1002  0.2887  0.2661
 4352W        W20826  11.481   5.367  13.621 -0.2377  0.1762 -0.1387
 4353W        W20827  10.441  11.105   1.133 -0.1481  0.1674 -0.4324
 4354W        W20828  17.134   8.210   5.426  0.0268  0.2427  0.0905
 4355W        W20829   8.028   8.761   0.163  0.1747 -0.0238  0.0348
 4356W        W20830  17.008   6.450  16.605  0.0150 -0.0928 -0.1963
 4357W        W20831   8.253   0.009  15.866 -0.0108  0.1545  0.0403
 4358W        W20832  10.631  12.147  12.921  0.2431  0.1263 -0.1749
 4359W        W20833   6.677  10.626   1.680 -0.0094  0.1251 -0.1957
 4360W        W20834  16.600  15.802   5.464  0.0313 -0.0430 -0.2578
 4361W        W20835   1.214   6.933  11.682 -0.0972  0.0131  0.0844
 4362W        W20836  15.050  15.069   2.201 -0.1259 -0.3537  0.1007
 4363W        W20837  11.146   1.869  14.845 -0.1769 -0.0280 -0.0550
 4364W        W20838   6.942  17.794   4.301 -0.3908 -0.1097 -0.0956
 4365W        W20839   2.092  17.096   3.742  0.1821 -0.0718  0.0690
 4366W        W20840   7.088   7.613  11.808 -0.3295 -0.0818 -0.2275
 4367W        W20841  11.060  13.015  11.471 -0.2430 -0.2676 -0.1561
 4368W        W20842   6.240  11.113  13.263 -0.3643 -0.2082  0.2262
 4369W        W20843   8.056  11.819   3.060 -0.2529 -0.0175 -0.1455
 4370W        W20844  12.452  16.890  11.487 -0.1923 -0.0163  0.0991
 4371W        W20845  12.586   1.049  15.274 -0.0104  0.0195  0.0987
 4372W        W20846   7.163   4.846   3.881 -0.1445 -0.1548 -0.0928
 4373W        W20847  11.961  10.442   3.176 -0.2872  0.0146 -0.0364
 4374W        W20848  14.558   6.750   1.604 -0.0204  0.0508  0.1262
 4375W        W20849   2.210  15.083   0.663 -0.1545 -0.0253 -0.0315
 4376W        W20850   2.613  14.954   5.091  0.2971  0.0855 -0.1654
 4377W        W20851   7.684  14.656  13.269 -0.0909 -0.2197  0.0115
 4378W        W20852  14.461  15.823   0.176 -0.2100  0.1777  0.2798
 4379W        W20853  11.802  13.190   6.130 -0.1174 -0.3247  0.0420
 4380W        W20854   5.321   6.243   3.200  0.0951 -0.2068 -0.3910
 4381W        W20855   1.827   8.350  12.452 -0.1402  0.0344 -0.3949
 4382W        W20856   9.272   5.424  12.727 -0.0900 -0.2697 -0.0228
 4383W        W20857  11.603   0.074   4.879 -0.0030  0.3321  0.1832
 4384W        W20858   9.889  11.324   1.611 -0.2179  0.0515  0.3194
 4385W        W20859   7.017   1.603   2.710 -0.1779 -0.1025 -0.1437
 4386W        W20860  16.576  10.342  12.247 -0.1592  0.0872 -0.0393
 4387W        W20861   5.622  16.586  16.606 -0.1583  0.1442  0.2502
 4388W        W20862  11.433   1.822  14.339  0.2210 -0.0778 -0.0343
 4389W        W20863   9.738  13.024   0.153 -0.3434 -0.3863  0.1956
 4390W        W20864   5.099  15.572  14.920  0.2014 -0.0701  0.1653
 4391W        W20865   4.813   6.506  15.501 -0.1905  0.2371 -0.2459
 4392W        W20866   0.396  13.533  14.087  0.1267 -0.0346 -0.1694
 4393W        W20867   3.864   2.856   2.198  0.0802 -0.2235  0.2683
 4394W        W20868   1.706   4.866   4.378 -0.0933 -0.2840 -0.0248
 4395W        W20869  14.241   4.904  16.147 -0.1596 -0.0913 -0.0403
 4396W        W20870   6.602   9.439  16.236  0.4301 -0.1126  0.1828
 4397W        W20871   0.965  13.744  11.227  0.2070  0.0836  0.1438
 4398W        W20872  11.331  10.604  14.402 -0.2786 -0.1820 -0.0079
 4399W        W20873  15.823  13.466  15.704 -0.0919  0.0699  0.0011
 4400W        W20874   9.033   2.376   1.999 -0.0139 -0.1486 -0.0048
 4401W        W20875   3.925   4.654   2.021  0.1262  0.1376 -0.0716
 4402W        W20876   6.884   9.858   5.335 -0.0620  0.0231  0.0140
 4403W        W20877   1.189   8.376  12.512  0.3092  0.1481 -0.4799
 4404W        W20878  10.840   1.394   4.189 -0.0186 -0.0289 -0.1258
 4405W        W20879  12.801  14.457  12.087  0.1178 -0.1072  0.1624
 4406W        W20880  11.786  15.637   5.592 -0.4330  0.2371 -0.0666
 4407W        W20881   3.464  13.489  12.338 -0.1770  0.3727  0.3840
 4408W        W20882  11.711   9.716  13.439 -0.1869  0.0946  0.0570
 4409W        W20883   9.956   0.085  12.012  0.1900  0.1804  0.1593
 4410W        W20884  17.287  14.192  12.122  0.1678  0.0405  0.2450
 4411W        W20885   5.627  13.562  13.940 -0.0002  0.0024 -0.0269
 4412W        W20886   7.755  13.921   3.638  0.1295 -0.3399  0.3449
 4413W        W20887   0.981  11.751  12.135 -0.0429  0.1058  0.0789
 4414W        W20888  14.759   7.735   5.698  0.0916  0.1054  0.3689
 4415W        W20889   5.823  15.087  15.027  0.1328  0.0148  0.1621
 4416W        W20890  14.307   5.192  13.108 -0.1958 -0.0063 -0.1070
 4417W        W20891   0.414  15.954   1.637  0.0564 -0.0531 -0.2653
 4418W        W20892  11.015  15.134   1.112 -0.0812  0.2647 -0.0744
 4419W        W20893   4.998  14.017   4.337  0.1719  0.3738  0.0657
 4420W        W20894  13.229  13.211   4.195 -0.1409  0.2510  0.0180
 4421W        W20895  15.166  13.683   3.957 -0.0221  0.1527  0.2001
 4422W        W20896   6.679  12.058  12.190  0.1700 -0.0755  0.2296
 4423W        W20897  16.765  13.168  15.021  0.0588 -0.0744 -0.0643
 4424W        W20898  10.314  14.702   0.018  0.1632  0.2969  0.1798
 4425W        W20899  12.489  11.642   0.697 -0.0054  0.0015 -0.0299
 4426W        W20900   2.956   5.363   5.098  0.2196 -0.0244 -0.2082
 4427W        W20901   9.404   4.658   5.825  0.1608 -0.2774  0.0594
 4428W        W20902   2.317   8.208   1.346  0.1482  0.0476  0.1048
 4429W        W20903   1.344  12.452  16.919  0.1802 -0.1169  0.3992
 4430W        W20904  14.530  15.104  13.734 -0.2953  0.0061  0.1786
 4431W        W20905   4.458   1.668  12.298  0.2096 -0.0146  0.1889
 4432W        W20906   0.011  16.446  13.626  0.1593  0.1307 -0.1227
 4433W        W20907   6.989  14.532  11.589 -0.0568 -0.1876 -0.2112
 4434W        W20908  16.234   1.184   0.343 -0.0017 -0.0435  0.1251
 4435W        W20909   4.963   4.253  15.223  0.2207  0.0284 -0.0289
 4436W        W20910  10.307  10.687   2.831  0.2789 -0.0053  0.1791
 4437W        W20911   9.973  12.810  12.968  0.5888  0.1312 -0.1272
 4438W        W20912   8.831   6.555  13.955  0.2058 -0.0206  0.0950
 4439W        W20913   2.076  16.026   0.279 -0.0535  0.1065 -0.1098
 4440W        W20914  11.125  11.955  15.507  0.2429  0.0651  0.1425
 4441W        W20915   5.740   2.872  12.257 -0.1281  0.1170 -0.1859
 4442W        W20916  11.548   4.322  14.744 -0.1979  0.1056  0.0989
 4443W        W20917  11.442  10.253   5.523 -0.1038  0.1240  0.2677
 4444W        W20918   2.433  13.684  14.521 -0.4809  0.1519 -0.1132
 4445W        W20919  16.857   2.773   4.879  0.0690 -0.0950 -0.2391
 4446W        W20920  15.419   0.308  16.000  0.1523  0.1164 -0.0880
 4447W        W20921  15.154   0.332  13.140 -0.1542  0.1334 -0.1043
 4448W        W20922  11.056   2.100   2.334  0.3716 -0.0031 -0.0594
 4449W        W20923  12.702   6.844   5.438 -0.2168  0.1671 -0.2699
 4450W        W20924   7.228  11.194  11.623 -0.1483  0.0987  0.1709
 4451W        W20925   9.116  11.976   1.096  0.3899  0.2090  0.2229
 4452W        W20926  13.012   0.968   4.935 -0.1282  0.0510 -0.0370
 4453W        W20927  13.344   6.721   5.866  0.1548  0.3199  0.2191
 4454W        W20928  10.427   7.144  13.854  0.0927 -0.1706 -0.1510
 4455W        W20929   1.683  12.754  13.822  0.2985 -0.1799  0.1937
 4456W        W20930   2.859   8.314  13.724 -0.0753 -0.1993 -0.1194
 4457W        W20931   6.092   9.688   1.817 -0.0064 -0.3039 -0.0907
 4458W        W20932  14.413  15.296  14.610  0.2145  0.2138 -0.1250
 4459W        W20933   9.240  16.567  14.405  0.0036  0.3491  0.3687
 4460W        W20934   9.402  12.629  12.950  0.2622  0.0307  0.1678
 4461W        W20935   5.639  13.404   4.166 -0.2066 -0.4141  0.1520
 4462W        W20936  17.481  11.906  13.815  0.2015 -0.1364 -0.1383
 4463W        W20937  17.361  10.654   1.651 -0.0952  0.2178  0.4083
 4464W        W20938   6.154   8.332   0.155  0.2532  0.1418  0.1736
 4465W        W20939  17.493   9.828  16.808  0.1076 -0.2018  0.1688
 4466W        W20940  14.257  11.044   2.808  0.2372 -0.0874  0.0502
 4467W        W20941   5.287  16.038   3.548 -0.0353  0.2124 -0.1337
 4468W        W20942   1.707  16.740   1.633 -0.1696 -0.2019 -0.0269
 4469W        W20943  17.548   1.605   4.895 -0.0186 -0.0727 -0.1804
 4470W        W20944  16.614   0.415  16.660  0.1162  0.0753 -0.1652
 4471W        W20945  11.502   3.065  13.697 -0.1131  0.1376  0.2067
 4472W        W20946   0.944   6.538  15.322  0.1290 -0.0009 -0.4659
 4473W        W20947  12.484   0.809  12.477  0.2387 -0.0348  0.0430
 4474W        W20948  11.166  11.066  11.418 -0.0590 -0.2181  0.3688
 4475W        W20949  17.824  12.165  14.738  0.3037  0.3978 -0.0388
 4476W        W20950   2.055   6.273   5.135 -0.1000  0.2123  0.2545
 4477W        W20951  12.941  14.329  16.278 -0.0766 -0.0779  0.2133
 4478W        W20952   5.870   7.790   2.287 -0.0649 -0.0641  0.0009
 4479W        W20953  16.663  16.243   3.979  0.0099 -0.0692 -0.1892
 4480W        W20954   4.799   7.814  13.997 -0.1377  0.0813 -0.0769
 4481W        W20955  15.309  13.276  16.784 -0.2803  0.3628  0.0491
 4482W        W20956   3.438   5.187  13.961  0.2457  0.1688 -0.2574
 4483W        W20957  14.021   0.169   1.879  0.1888 -0.1704  0.0887
 4484W        W20958   6.158   5.591   5.353  0.2187 -0.2712  0.1478
 4485W        W20959   7.505   3.672   2.303  0.2571 -0.0421  0.2903
 4486W        W20960   3.879  12.595   4.597 -0.1124  0.1679  0.2224
 4487W        W20961  10.174   9.016   1.852 -0.1416  0.2482 -0.2006
 4488W        W20962  15.595  16.783   0.085  0.1927  0.1828 -0.3161
 4489W        W20963   1.432  16.000  16.522 -0.1849  0.0469 -0.1969
 4490W        W20964  14.797  14.654   0.948 -0.0525 -0.2080  0.1630
 4491W        W20965  17.504  15.404   3.026 -0.0710 -0.2261 -0.1717
 4492W        W20966   6.177   9.666   4.587  0.0649 -0.0033  0.1171
 4493W        W20967   7.334  14.330   0.780 -0.1418 -0.2527 -0.1139
 4494W        W20968  11.433   1.530  15.288  0.0481  0.0425  0.0753
 4495W        W20969   8.928  12.228  14.151 -0.0744 -0.0103 -0.0410
 4496W        W20970   5.887   3.351  15.916  0.1284 -0.1388 -0.2468
 4497W        W20971   6.050  11.444  12.909 -0.1446 -0.0905 -0.1844
 4498W        W20972   0.142   1.412  13.702 -0.1157 -0.3541  0.1462
 4499W        W20973  15.247  15.477   1.239  0.1518  0.0166 -0.1618
 4500W        W20974  10.280  11.790   3.485  0.0403 -0.0137 -0.1530
 4501W        W20975  17.136  17.146   4.701  0.0041  0.2541 -0.1168
 4502W        W20976   0.631  12.864   0.294 -0.1038  0.1380  0.0498
 4503W        W20977   8.768   7.634   0.834 -0.1824 -0.0450 -0.0004
 4504W        W20978   7.037  17.410  14.625 -0.0469 -0.0568 -0.1497
 4505W        W20979   3.222  16.173   5.504 -0.0017 -0.4096 -0.0919
 4506W        W20980   7.736   1.942   2.454 -0.0217  0.0519 -0.0408
 4507W        W20981  16.335   5.595  13.209 -0.2471  0.3137 -0.6526
 4508W        W20982   3.788   5.064   2.884 -0.2574 -0.1142 -0.0727
 4509W        W20983  12.460  12.645   5.610  0.0540  0.0683  0.0449
 4510W        W20984   9.284  11.535  12.113  0.4193 -0.0812 -0.0940
 4511W        W20985   7.552   3.249  15.489 -0.1584 -0.1649 -0.0083
 4512W        W20986   8.029   8.599   2.811 -0.4112 -0.1103 -0.2424
 4513W        W20987   9.191   6.549   1.435  0.0291 -0.1924  0.1773
 4514W        W20988  17.123   1.482   5.225  0.1531 -0.0334  0.3201
 4515W        W20989  10.302  13.076   3.951 -0.5339  0.2662  0.1773
 4516W        W20990  10.214   9.181  15.510 -0.0667 -0.0398  0.2263
 4517W        W20991  11.411   8.605  12.528 -0.1113  0.0144 -0.0776
 4518W        W20992   4.859  16.392   0.829 -0.0634 -0.2557 -0.0680
 4519W        W20993  12.555   5.085  16.843  0.3088 -0.1680 -0.3578
 4520W        W20994   3.801   2.895  11.741 -0.0123 -0.0767  0.0837
 4521W        W20995   8.727   0.561   0.388  0.0358 -0.0109  0.3506
 4522W        W20996   2.502  10.546  16.566 -0.4295  0.1992 -0.1701
 4523W        W20997  16.370   8.182   2.106  0.2321  0.2279  0.1340
 4524W        W20998   6.498   6.051   5.543  0.3562 -0.0513 -0.2463
 4525W        W20999   6.570  12.926   3.027 -0.2396 -0.4142  0.1023
 4526W        W21000   5.560   9.016   0.592  0.4739 -0.1190  0.2016
 4527W        W21001   1.572   8.710   0.046  0.0606  0.0554  0.2560
 4528W        W21002   3.147   9.514  16.530  0.0468  0.4776  0.0580
 4529W        W21003   1.990   1.496  12.200  0.1706  0.0105  0.1157
 4530W        W21004  17.581   1.614   5.432  0.1091  0.1358  0.2931
 4531W        W21005   6.014  12.762  11.075 -0.3412  0.2161 -0.2952
 4532W        W21006   2.371   4.902  15.119  0.2295 -0.0029 -0.0217
 4533W        W21007   3.032  16.282  11.580  0.1901 -0.0433 -0.2512
 4534W        W21008  10.064   3.728   3.578  0.0002 -0.1285 -0.0653
 4535W        W21009  12.866   6.577  15.393 -0.2582  0.0887 -0.2466
 4536W        W21010  16.985  14.590   4.062 -0.0273  0.2215  0.0142
 4537W        W21011  17.365   4.332   0.023 -0.0153 -0.0863 -0.2663
 4538W        W21012  17.439  11.995  12.838  0.1322 -0.2592  0.1200
 4539W        W21013  13.081  15.740   2.062 -0.0536 -0.4009  0.2087
 4540W        W21014  15.409   2.282  14.691 -0.0935  0.0404  0.2597
 4541W        W21015   5.439   7.481  11.389  0.0582  0.2945  0.0634
 4542W        W21016   8.296  10.132  12.922 -0.0277 -0.0599 -0.1999
 4543W        W21017   4.670  12.288   1.740 -0.0677 -0.2444  0.3104
 4544W        W21018  12.475   8.805   3.373  0.0517 -0.2441 -0.1509
 4545W        W21019  15.771   3.537   4.190 -0.0332 -0.1122  0.1103
 4546W        W21020  15.669  17.063  12.172  0.0397  0.2070  0.1312
 4547W        W21021   6.969   6.480  14.199 -0.1202  0.0891  0.0223
 4548W        W21022  10.214   1.302   1.032 -0.2384 -0.2741  0.0651
 4549W        W21023   7.914  14.268   3.265  0.1701 -0.1582 -0.0983
 4550W        W21024  11.208  11.816   6.304 -0.0304  0.1180  0.1562
 4551W        W21025  10.784  11.950  15.116  0.3315 -0.3445  0.1389
 4552W        W21026   4.507   5.755   6.251  0.1949  0.1525  0.1035
 4553W        W21027   0.242   9.657   5.710  0.1405 -0.1906  0.1037
 4554W        W21028   0.678   6.538   4.797  0.1653  0.1184  0.2355
 4555W        W21029   3.799  14.668  13.674  0.1600 -0.0958 -0.0634
 4556W        W21030   7.682   8.255  13.030  0.0501  0.0743  0.0413
 4557W        W21031   8.042   4.943   3.249 -0.0730 -0.2471 -0.0493
 4558W        W21032  16.493   0.399  16.179 -0.0774  0.0625  0.0192
 4559W        W21033   5.023  17.264   4.727 -0.0148  0.1146 -0.1370
 4560W        W21034   3.224   2.229   5.331 -0.0988 -0.2456 -0.2672
 4561W        W21035   8.293   5.115   5.909  0.0235 -0.3183 -0.1146
 4562W        W21036   8.229   7.722  12.668 -0.1602 -0.1443 -0.0740
 4563W        W21037  11.077  17.450  14.949 -0.0878  0.4895  0.0087
 4564W        W21038  13.353   1.291  14.204 -0.1765  0.0617 -0.2394
 4565W        W21039   2.179   1.058   3.001  0.0254 -0.1311 -0.0976
 4566W        W21040  10.505   2.729  12.325  0.0921  0.1311  0.1393
 4567W        W21041  12.553   8.270  12.238 -0.1614 -0.1675  0.1578
 4568W        W21042   6.655  11.076  14.635  0.1138 -0.1028 -0.0813
 4569W        W21043  16.980   4.758   0.157 -0.0544 -0.2908 -0.0718
 4570W        W21044  14.482   8.090   0.670 -0.2619  0.3290  0.2487
 4571W        W21045  13.771   5.566   0.938 -0.2368  0.1480  0.1447
 4572W        W21046  16.332  13.505  15.776 -0.1787  0.3561  0.0602
 4573W        W21047  11.754  16.472  16.066 -0.1959  0.1630 -0.2665
 4574W        W21048   3.881  14.289  14.413 -0.1219 -0.2444 -0.3886
 4575W        W21049   1.627   0.162   1.153 -0.0709  0.0239  0.1589
 4576W        W21050   6.554   8.768   0.921  0.4458  0.0731 -0.0811
 4577W        W21051   4.349   7.676  13.815  0.1582 -0.0322 -0.0083
 4578W        W21052  15.492  17.252  12.778  0.0930  0.0948  0.0517
 4579W        W21053   2.107  12.398  14.852  0.2210 -0.0689  0.1568
 4580W        W21054  14.460   8.638  12.974 -0.0611 -0.4079 -0.3957
 4581W        W21055   6.305   2.453   0.690 -0.0471  0.1849 -0.2946
 4582W        W21056   6.563  11.270  13.673  0.3210 -0.1503  0.4739
 4583W        W21057   7.745  11.176   0.063  0.0486  0.0727 -0.0148
 4584W        W21058  11.945   8.737   0.154  0.0363 -0.3589  0.1517
 4585W        W21059  15.794  10.207  16.390  0.0929 -0.2712  0.3525
 4586W        W21060   2.010   5.860   3.577 -0.1967  0.0555 -0.1354
 4587W        W21061  10.643   0.450   1.201  0.1235  0.3365  0.0751
 4588W        W21062   8.991  10.600  16.364 -0.1077  0.1233 -0.0139
 4589W        W21063   4.938   5.753  15.389  0.3037 -0.0036  0.0465
 4590W        W21064   0.410  14.788  16.451  0.1281 -0.2498 -0.2138
 4591W        W21065  14.379  12.651  14.029  0.0126  0.1774  0.0555
 4592W        W21066  10.213   8.591  15.968 -0.0636 -0.1417 -0.0395
 4593W        W21067   9.389   3.129   2.838 -0.3411  0.1157  0.3256
 4594W        W21068   6.880  12.931  14.903 -0.0160 -0.2043  0.1200
 4595W        W21069  16.717   2.485   0.771  0.1924 -0.5476  0.0468
 4596W        W21070   4.868  10.465   4.341  0.0262 -0.2005  0.0755
 4597W        W21071   1.668   9.844   3.717 -0.2579  0.2341  0.1514
 4598W        W21072   6.016  15.654   2.387  0.2535 -0.1029 -0.1069
 4599W        W21073  16.787  17.132   6.393  0.0996  0.0798 -0.1413
 4600W        W21074  14.542   8.572  12.142 -0.1476  0.1895  0.2340
 4601W        W21075   5.476   9.070   6.071  0.0239 -0.0449 -0.0410
 4602W        W21076  15.629   0.555  12.102  0.0766  0.1695  0.1236
 4603W        W21077  15.599   7.036  14.212 -0.0153  0.2065  0.4725
 4604W        W21078  16.131  11.060  12.244 -0.0425 -0.0750  0.0537
 4605W        W21079  12.070   7.580   5.314  0.0350  0.2319 -0.2875
 4606W        W21080  11.647   8.842  16.493 -0.1046  0.3659  0.0830
 4607W        W21081  10.799   9.824   2.593  0.1021  0.0455 -0.3222
 4608W        W21082   4.510  14.091  14.033 -0.0929 -0.1541 -0.3572
 4609W        W21083   5.300   5.548   4.930  0.2242 -0.0859  0.1204
 4610W        W21084  10.387   4.699   3.127 -0.4971 -0.0635 -0.1966
 4611W        W21085   3.374  15.361  14.393  0.0765 -0.0613 -0.1432
 4612W        W21086  10.925  17.400  16.576 -0.0108 -0.0188 -0.0300
 4613W        W21087  15.122  15.167  15.239 -0.3428 -0.0453 -0.2719
 4614W        W21088   5.841  11.906   2.035 -0.4131 -0.0415  0.2659
 4615W        W21089  16.464  10.381   2.834  0.1798 -0.0360  0.0717
 4616W        W21090  11.583   5.756   2.867  0.2899  0.1164  0.0235
 4617W        W21091   9.732   7.330   5.194 -0.0549  0.4559  0.2025
 4618W        W21092   0.837   4.499   0.153 -0.3783 -0.1269  0.3190
 4619W        W21093  17.272   2.761   5.285  0.1180 -0.1591  0.2988
 4620W        W21094  11.016   1.662   5.689 -0.3584 -0.2175  0.1420
 4621W        W21095  15.219  12.521   0.247  0.0111  0.1210 -0.0558
 4622W        W21096  11.251   8.430   0.467 -0.1175 -0.1034  0.3011
 4623W        W21097   7.425   3.708   4.220 -0.1167  0.0110 -0.0012
 4624W        W21098   9.947  14.932  16.683 -0.0571  0.0898  0.0219
 4625W        W21099   4.495   0.301  13.349  0.3690  0.2183  0.0477
 4626W        W21100   1.894  12.024  12.111 -0.0793  0.0150 -0.0970
 4627W        W21101  15.817   2.010   3.641 -0.3805  0.2251 -0.3807
 4628W        W21102   1.811   9.211  14.252  0.1323 -0.3843 -0.1038
 4629W        W21103  10.691  10.688  15.559 -0.3868  0.1849 -0.1077
 4630W        W21104   8.258  17.398  14.116  0.4443 -0.2005 -0.3083
 4631W        W21105   7.519   3.703  13.149  0.3688 -0.1874 -0.0713
 4632W        W21106  16.303   7.255   2.334  0.3488  0.0964 -0.1291
 4633W        W21107  17.725   4.165  14.346  0.2492  0.3106 -0.0294
 4634W        W21108  17.275   4.110   4.042 -0.2022 -0.1503 -0.0680
 4635W        W21109   2.911   5.185   2.848 -0.0857 -0.0216  0.1006
 4636W        W21110  11.720  10.014   4.175  0.1011 -0.1000  0.0286
 4637W        W21111  14.815  16.334  16.233 -0.2695  0.0718 -0.0505
 4638W        W21112   3.432   0.284   5.550  0.0677 -0.1227 -0.1919
 4639W        W21113   6.411   1.555   1.881  0.3043 -0.1718 -0.0700
 4640W        W21114  15.436   1.126  13.479  0.0173 -0.0606  0.0237
 4641W        W21115  13.067   1.756  12.966  0.0548 -0.2912 -0.3407
 4642W        W21116  12.083  17.650  16.757 -0.0209  0.2852  0.1739
 4643W        W21117  14.120   8.920  15.855 -0.0488  0.0977 -0.1030
 4644W        W21118   3.519   2.469   4.525  0.0835  0.0018  0.1083
 4645W        W21119   0.825   9.949  13.339 -0.1534  0.0798  0.1479
 4646W        W21120  10.677   8.078   3.757  0.1512 -0.0291 -0.1366
 4647W        W21121  10.195  13.871   2.900 -0.0657  0.1050  0.0147
 4648W        W21122   7.670   2.252   0.698 -0.3073 -0.0645 -0.0337
 4649W        W21123  17.670  13.779  14.244 -0.0759 -0.5033  0.4376
 4650W        W21124   7.936  17.433   4.415  0.3951 -0.0688  0.0676
 4651W        W21125  14.673  13.822  12.180 -0.0583 -0.1830  0.1304
 4652W        W21126  14.411  16.524  10.911 -0.2516  0.0169 -0.1224
 4653W        W21127   0.847   6.326   2.855 -0.1990  0.0118 -0.0506
 4654W        W21128  12.535   1.438   4.864  0.0396 -0.0530  0.0187
 4655W        W21129   4.714  12.504   2.568  0.1264 -0.1585 -0.2580
 4656W        W21130   2.088   6.466   0.327 -0.3114  0.0175 -0.2997
 4657W        W21131  11.369  17.178   3.434 -0.1479 -0.2532  0.0964
 4658W        W21132   3.451   8.400  14.148 -0.2357  0.0642 -0.0275
 4659W        W21133  14.115  10.578  11.768  0.0042  0.2985 -0.0315
 4660W        W21134  13.146  14.888   0.944 -0.0793  0.1543 -0.2047
 4661W        W21135   4.937   9.622  13.437  0.2015 -0.0616 -0.1299
 4662W        W21136  12.135  16.054  16.447 -0.2666  0.0189 -0.1535
 4663W        W21137  10.747  15.347  13.888 -0.2044 -0.0923  0.0408
 4664W        W21138  13.332   0.035  16.745 -0.0231  0.0133 -0.0939
 4665W        W21139  11.384   0.656  16.917 -0.0035  0.0443  0.1915
 4666W        W21140  10.146   5.745   5.089  0.0588 -0.1317 -0.1140
 4667W        W21141  12.549  14.615   6.313  0.0296 -0.0827 -0.0532
 4668W        W21142   8.157   7.720   2.922 -0.3552  0.0523 -0.0483
 4669W        W21143  12.407  10.153  12.231 -0.0745  0.0257  0.0763
 4670W        W21144  12.871   7.288   5.876  0.0773 -0.1270 -0.2787
 4671W        W21145  17.689   0.414  13.420  0.3271 -0.0948 -0.0826
 4672W        W21146  15.827  10.860  13.131 -0.2146 -0.0509  0.0184
 4673W        W21147  15.879  16.228  15.554  0.1494  0.0032  0.0675
 4674W        W21148   2.177   8.197   2.567  0.1573  0.1786 -0.3836
 4675W        W21149  11.335   0.994   5.063 -0.1474 -0.3080 -0.2521
 4676W        W21150   1.814   1.769   2.699  0.0248  0.4662  0.0718
 4677W        W21151  17.629   5.035   4.524  0.2038  0.0702 -0.2662
 4678W        W21152   0.562  12.025  16.032 -0.1411 -0.0249 -0.3410
 4679W        W21153  10.154   7.632  14.653  0.1719  0.1162  0.4866
 4680W        W21154   6.653   1.678   0.103 -0.2796 -0.1861 -0.1808
 4681W        W21155   8.041   1.926   1.332  0.1694 -0.0643 -0.0258
 4682W        W21156   1.046   6.897   4.769 -0.1160 -0.0768 -0.1469
 4683W        W21157   2.092   1.964   4.827 -0.0852 -0.1973 -0.0048
 4684W        W21158   9.271  17.016  15.020 -0.0401 -0.1390 -0.0596
 4685W        W21159   7.540  17.070  16.378  0.2099  0.1608  0.0204
 4686W        W21160   7.905   2.582   4.726  0.2071  0.0360 -0.2162
 4687W        W21161   8.322   0.982   4.560 -0.1004 -0.0551  0.0513
 4688W        W21162   3.226  14.201   3.339 -0.0884  0.1667 -0.0701
 4689W        W21163   3.111   4.203   4.851  0.1400 -0.2158  0.1104
 4690W        W21164  16.300  15.382   0.827 -0.1991 -0.0200 -0.3328
 4691W        W21165  17.210  10.108  16.271 -0.1784  0.0463  0.2873
 4692W        W21166   2.013   6.009  12.991  0.0118 -0.0170  0.2061
 4693W        W21167   3.026  13.332   3.382 -0.1824  0.1211  0.3653
 4694W        W21168   3.213   3.606   1.475 -0.2393  0.0178 -0.0024
 4695W        W21169   5.843   2.248   0.735 -0.0398 -0.1416 -0.0520
 4696W        W21170   1.096   1.420   2.131  0.0721 -0.1707  0.1230
 4697W        W21171  12.357   9.868  11.687  0.1259 -0.3180  0.1486
 4698W        W21172   9.280   7.095  16.533  0.0104 -0.1164 -0.0372
 4699W        W21173   9.419  15.523   2.004  0.3277  0.0044 -0.1171
 4700W        W21174   4.026  13.664   2.363 -0.0618  0.0140 -0.2441
 4701W        W21175  13.083  14.964   3.158 -0.0758  0.0153 -0.1675
 4702W        W21176   0.360   9.608   1.798  0.0504 -0.1105 -0.1310
 4703W        W21177  11.737   7.478  16.690  0.2323  0.0079 -0.1875
 4704W        W21178  12.752   1.670   3.077 -0.0802 -0.1813  0.0804
 4705W        W21179   6.027   0.799   0.657  0.0143 -0.0305  0.0564
 4706W        W21180  13.200  15.783   1.497 -0.3271  0.1871  0.2831
 4707W        W21181  13.691   7.766  15.290 -0.0130  0.1563 -0.1343
 4708W        W21182   7.086  16.260   0.813 -0.1814 -0.0641 -0.1331
 4709W        W21183   6.406  13.197   2.646  0.0485  0.1549  0.1030
 4710W        W21184   2.649   0.512   2.484 -0.2439 -0.1978 -0.0165
 4711W        W21185   0.892   5.713  14.350 -0.2429 -0.2293  0.1506
 4712W        W21186  11.839  16.833   1.684 -0.0377 -0.0050 -0.0059
 4713W        W21187   3.239  12.447   1.184 -0.0066 -0.2087  0.1302
 4714W        W21188  13.345  11.270  13.940 -0.0839 -0.1154 -0.0688
 4715W        W21189   0.712   2.472   1.207 -0.0220 -0.0188  0.0656
 4716W        W21190   8.791   0.281  12.255  0.1016 -0.0600  0.0874
 4717W        W21191  16.970   9.823  14.213  0.2436 -0.1464  0.0675
 4718W        W21192  13.719  13.446  15.691  0.1126 -0.0467 -0.1640
 4719W        W21193   6.781  13.580   1.980 -0.2688 -0.1371  0.0667
 4720W        W21194   3.521   2.528  16.263  0.0010 -0.0701 -0.0229
 4721W        W21195  16.320  11.365   0.339  0.5711 -0.1375  0.2336
 4722W        W21196   7.154  14.849   5.491 -0.3156  0.2087 -0.1772
 4723W        W21197   2.720  16.812  12.418  0.2331  0.0454 -0.1481
 4724W        W21198   8.392  16.976  15.574  0.0297 -0.1060  0.0249
 4725W        W21199   6.787  11.179  16.844  0.1254  0.0656  0.1174
 4726W        W21200   5.969   5.208  14.805 -0.2255  0.2548  0.0098
 4727W        W21201   4.441   5.652  16.925  0.0171 -0.1451 -0.0052
 4728W        W21202  16.570  13.537   0.181 -0.1377  0.0008 -0.0542
 4729W        W21203   0.967  15.044   3.241 -0.1606 -0.0538 -0.0024
 4730W        W21204  17.052  14.188   3.732  0.2857 -0.2842 -0.1012
 4731W        W21205   2.292   3.702   5.211 -0.0213  0.1575 -0.2297
 4732W        W21206  13.396  15.159   5.278 -0.2169 -0.0866  0.0508
 4733W        W21207   9.741  13.176   3.224 -0.2782 -0.0448 -0.1974
 4734W        W21208   4.820   4.287  12.047  0.3230 -0.5788 -0.0913
 4735W        W21209   7.812   9.671  13.281  0.1083 -0.1983  0.2913
 4736W        W21210  13.234   9.404   0.540  0.0824  0.1363  0.2757
 4737W        W21211  11.690  12.798   4.115  0.0035  0.0256  0.0459
 4738W        W21212  16.872  10.547   1.599  0.1342 -0.2802  0.1183
 4739W        W21213  16.357   4.042  15.609 -0.3704 -0.2105 -0.2104
 4740W        W21214   5.561  15.462   4.870 -0.0770  0.3700 -0.3263
 4741W        W21215   0.270   7.784  14.660  0.1401 -0.4609  0.6235
 4742W        W21216   8.310   7.267   1.502 -0.1418 -0.3693 -0.1037
 4743W        W21217  11.322  13.361  11.791 -0.1420  0.0391 -0.0926
 4744W        W21218   7.031  11.077  14.330 -0.1458  0.0142  0.1149
 4745W        W21219   4.333  10.852   1.117 -0.0864 -0.1159 -0.2061
 4746W        W21220  12.894  14.239   0.178 -0.1431 -0.3327  0.0754
 4747W        W21221  10.992   8.136   4.661 -0.1543 -0.1586 -0.0367
 4748W        W21222  16.330   1.935   0.113  0.2624 -0.4742  0.0673
 4749W        W21223   4.351  16.107  15.013  0.0448 -0.1803  0.0883
 4750W        W21224   1.642  14.959  16.138  0.1175 -0.2486 -0.1185
 4751W        W21225   6.577   6.875  14.256 -0.0506 -0.2416 -0.0692
 4752W        W21226   4.316   2.670  15.735  0.0079  0.1877  0.0096
 4753W        W21227  16.965   1.452   3.856 -0.0076  0.0219  0.0519
 4754W        W21228  12.952  16.495  16.714 -0.0843 -0.1023 -0.0689
 4755W        W21229   0.211  11.339   2.590 -0.3035 -0.1001  0.0668
 4756W        W21230   6.540   5.939  12.044 -0.4132 -0.2422 -0.1877
 4757W        W21231   2.027  10.819  11.798  0.1291  0.0049 -0.0775
 4758W        W21232   6.665  17.037   3.873 -0.2030 -0.1173 -0.0893
 4759W        W21233   1.265   9.370   5.318  0.3842  0.1278  0.3572
 4760W        W21234   2.463  14.113  12.788  0.4065 -0.0395  0.0403
 4761W        W21235  16.027  14.686  11.144 -0.3159 -0.1304 -0.0232
 4762W        W21236  10.485  12.597  11.887  0.0920 -0.0530  0.0909
 4763W        W21237  10.608   7.812   4.800  0.3442 -0.0366  0.1427
 4764W        W21238   9.536   6.152   4.504 -0.0247  0.3121  0.0368
 4765W        W21239   2.668   9.025   4.847 -0.1858 -0.1752 -0.0745
 4766W        W21240  16.496  11.420  12.103 -0.2519  0.0912 -0.0175
 4767W        W21241   2.052   0.063   5.107  0.0942  0.1240 -0.1134
 4768W        W21242   1.726   3.139   4.866  0.3189  0.0570 -0.1155
 4769W        W21243   9.091  15.226  12.312 -0.4473  0.1607 -0.1504
 4770W        W21244   9.978  16.952   4.252  0.0417  0.0081  0.2417
 4771W        W21245   3.524  17.806  15.800  0.1932 -0.0204  0.2234
 4772W        W21246   3.828  14.098   1.943  0.0812 -0.0648 -0.1744
 4773W        W21247   5.232   6.800   0.377  0.0929 -0.1674 -0.1409
 4774W        W21248  11.450   4.985  12.312  0.1544 -0.0134 -0.1191
 4775W        W21249   5.700   2.847   4.959 -0.2342 -0.1208  0.1114
 4776W        W21250   1.577   8.513   1.604 -0.1315  0.2820 -0.2990
 4777W        W21251  12.732  15.823  13.969  0.0190 -0.1636 -0.1741
 4778W        W21252  15.411   6.876  10.940 -0.2110  0.0363  0.1568
 4779W        W21253  16.912   8.022   0.113 -0.2579  0.2275 -0.1576
 4780W        W21254  10.823   1.456  14.688 -0.1424 -0.0204 -0.1878
 4781W        W21255   5.850   1.555  11.919  0.0515 -0.1353 -0.1977
 4782W        W21256  16.929  17.745  16.384 -0.0771  0.2137 -0.1020
 4783W        W21257   2.096   6.089  14.507  0.0220 -0.2374 -0.0665
 4784W        W21258  16.836   9.687  11.715 -0.0565 -0.0539 -0.1182
 4785W        W21259  14.722  15.040   3.342 -0.1452  0.1431  0.2940
 4786W        W21260   5.516  11.726  15.705 -0.0713 -0.0930  0.4243
 4787W        W21261   4.198   7.546   1.431 -0.0720  0.0098 -0.0735
 4788W        W21262   5.063  10.828   2.881  0.5014  0.0060 -0.1515
 4789W        W21263  17.513   0.927  13.683 -0.1805  0.1083  0.3557
 4790W        W21264   2.924  14.888   6.068 -0.0629 -0.2357 -0.0167
 4791W        W21265   7.371  15.400  13.625 -0.1692 -0.1766  0.0768
 4792W        W21266   3.590  10.745   2.557 -0.0035  0.0902  0.0229
 4793W        W21267  10.446   1.474  15.246  0.0339  0.2669 -0.0353
 4794W        W21268  14.898   3.498  14.934  0.0313 -0.1930  0.2005
 4795W        W21269  13.699   6.984   3.193  0.1457 -0.1137  0.0551
 4796W        W21270  17.383   5.368   1.039  0.1726 -0.0410  0.3987
 4797W        W21271   0.819   0.463  14.345 -0.1009 -0.1063 -0.0136
 4798W        W21272   6.579   9.333  15.366 -0.1855  0.0193 -0.0281
 4799W        W21273   6.394  16.034   3.269  0.0343 -0.1491 -0.4611
 4800W        W21274   4.850   7.050   4.269 -0.0486 -0.0324 -0.0469
 4801W        W21275  10.474  11.747  12.327  0.1526 -0.0096  0.0883
 4802W        W21276   7.656  16.376  12.451  0.1999  0.1732 -0.2613
 4803W        W21277   4.073  10.293   3.717  0.1749 -0.2367  0.0261
 4804W        W21278   1.923  17.071  16.178 -0.1669  0.1615  0.1888
 4805W        W21279   9.168   4.019   2.487  0.1160 -0.1299  0.1286
 4806W        W21280   6.957   0.146   2.563 -0.2427  0.2501 -0.2063
 4807W        W21281  16.081   2.325   3.875  0.3180 -0.1690  0.2772
 4808W        W21282  10.175  16.963  12.126  0.0183 -0.1614  0.0421
 4809W        W21283   6.806   9.705   1.869  0.1788 -0.0096  0.1303
 4810W        W21284   6.105  14.676   5.141  0.2635 -0.0925  0.2846
 4811W        W21285  12.368   2.159  14.358 -0.0810  0.0346 -0.3244
 4812W        W21286   5.472  15.871  16.101 -0.2233  0.1336 -0.2198
 4813W        W21287   2.345   3.722   5.686  0.0232  0.1265 -0.0346
 4814W        W21288   2.131  13.091   5.188  0.1603  0.0421  0.0721
 4815W        W21289   5.636   9.466  15.627 -0.3083 -0.3131  0.1626
 4816W        W21290   3.218   0.688   0.803 -0.0864 -0.0370  0.1377
 4817W        W21291  12.694   4.768   2.951  0.0575  0.0423  0.0831
 4818W        W21292   5.188   3.166   1.235  0.0916  0.2462  0.2899
 4819W        W21293  17.385   5.658   0.390  0.0740 -0.2535 -0.3603
 4820W        W21294   6.308  15.546  15.684 -0.0630 -0.3884 -0.1425
 4821W        W21295   3.379   9.659  13.711 -0.1473  0.0689 -0.1156
 4822W        W21296  15.231  11.503  12.261 -0.0384 -0.2474 -0.3190
 4823W        W21297   6.604  16.165   2.586  0.1212  0.1315  0.1045
 4824W        W21298  14.760   5.484   5.885  0.1783  0.2213  0.1593
 4825W        W21299  16.027  17.786  15.264  0.2923  0.1978  0.1637
 4826W        W21300  11.703   4.679  16.045 -0.1761  0.0962  0.2969
 4827W        W21301   8.515   1.888   3.159 -0.0577  0.2235  0.2749
 4828W        W21302   2.580  10.495   2.629 -0.1106 -0.2013 -0.1393
 4829W        W21303  14.235   9.598  14.646 -0.0946 -0.0936 -0.2604
 4830W        W21304  16.344   0.308  14.746  0.2686 -0.3429  0.1737
 4831W        W21305  10.411   6.696   2.185 -0.1106  0.0084  0.1226
 4832W        W21306   5.613   3.158  12.652 -0.0609 -0.1580  0.0385
 4833W        W21307  12.561  17.561  16.568 -0.1556  0.1534 -0.2512
 4834W        W21308  14.138  16.413   1.385 -0.1461 -0.1415  0.1821
 4835W        W21309   2.525  10.931   4.046  0.4020  0.1002 -0.4517
 4836W        W21310   8.806  11.203  14.987  0.0555 -0.0373 -0.0445
 4837W        W21311  15.770   3.804   5.129 -0.0440  0.0279 -0.0988
 4838W        W21312   3.054  11.245   3.449 -0.0851  0.0470  0.0487
 4839W        W21313   8.949  13.921   0.918 -0.1886 -0.0922  0.0101
 4840W        W21314  14.775  15.652  14.433 -0.1645 -0.0413 -0.2852
 4841W        W21315   1.263  14.577  13.397  0.1618 -0.0106  0.0784
 4842W        W21316   4.255   9.399   0.021  0.2702  0.3353 -0.1653
 4843W        W21317   6.488  10.914  12.842 -0.0747  0.0707 -0.2948
 4844W        W21318   3.326  14.697  13.835  0.0606 -0.0592  0.0761
 4845W        W21319  17.437  12.488   1.865  0.2533  0.0773 -0.1097
 4846W        W21320   5.625   7.115   0.237  0.0658 -0.1861  0.0422
 4847W        W21321   2.658   8.140   2.356  0.3062 -0.1017 -0.1247
 4848W        W21322  16.153  16.146   0.700  0.1074 -0.0235 -0.4410
 4849W        W21323  12.316  15.537   3.438 -0.1520 -0.0825  0.1542
 4850W        W21324   1.823   6.218  15.104 -0.1002  0.0496 -0.1023
 4851W        W21325   0.706   7.344   3.150 -0.1352  0.0877  0.0296
 4852W        W21326   3.509  16.459  15.182 -0.2542 -0.0387  0.0816
 4853W        W21327  15.273  16.109   0.626 -0.0976 -0.0012  0.1684
 4854W        W21328   3.006  12.262  14.952 -0.2396  0.0381  0.0514
 4855W        W21329   6.511  14.117   0.265  0.2256 -0.0042 -0.1045
 4856W        W21330   4.492  16.034  11.800 -0.0224  0.2925  0.0023
 4857W        W21331  12.549  17.818   0.557  0.1665  0.0674 -0.0142
 4858W        W21332  12.127   0.261   1.791 -0.0936  0.2350  0.1046
 4859W        W21333   0.126  16.641  16.885 -0.0492 -0.0278 -0.0921
 4860W        W21334   7.005   6.815  13.699  0.0088 -0.0984 -0.1227
 4861W        W21335   6.778   9.420  13.185  0.1377 -0.1347 -0.1868
 4862W        W21336   6.179  10.359   2.648  0.0801  0.3070  0.1270
 4863W        W21337   9.110  17.429  14.894 -0.1013 -0.0118 -0.1653
 4864W        W21338  13.840  10.367   5.484 -0.2943 -0.2591  0.0557
 4865W        W21339  14.868  14.070   3.710 -0.0207 -0.0350  0.1344
 4866W        W21340  12.948   4.395  14.977 -0.0617 -0.0879 -0.2950
 4867W        W21341   6.766   9.924  16.364  0.0885  0.1589 -0.4032
 4868W        W21342   3.488   0.902   2.398  0.3178  0.1040 -0.3537
 4869W        W21343   7.276   9.453   1.719 -0.1235 -0.3028  0.1447
 4870W        W21344   9.887  15.854   3.923  0.4687 -0.0060 -0.0878
 4871W        W21345   8.616  15.994   0.444 -0.2226 -0.0512  0.2195
 4872W        W21346   8.702   7.914   1.621 -0.0701  0.0895  0.2096
 4873W        W21347  15.249   3.388   1.586  0.1747  0.0009  0.0374
 4874W        W21348   4.191  15.139  15.119 -0.1279  0.0283  0.0250
 4875W        W21349  16.335   7.563   5.239  0.2625 -0.1230 -0.0567
 4876W        W21350   7.258   7.526  16.304  0.1699 -0.0193 -0.1279
 4877W        W21351  14.596  15.312   3.805  0.1144  0.1873  0.1017
 4878W        W21352   2.345  12.159   5.238  0.2182  0.2729  0.0063
 4879W        W21353  10.177   8.256   0.508  0.1394 -0.0807 -0.1167
 4880W        W21354  13.189   6.065  15.446  0.0875 -0.0337 -0.1732
 4881W        W21355   1.113  17.214   2.609  0.1453  0.1666 -0.1344
 4882W        W21356   9.444   4.803  16.712 -0.1700 -0.0628 -0.2425
 4883W        W21357  15.280  12.025   0.296  0.0137 -0.0128 -0.2831
 4884W        W21358  16.120   8.630  14.372  0.1278  0.0786 -0.0358
 4885W        W21359  11.927  17.113  12.291  0.2548 -0.0801  0.0538
 4886W        W21360   1.258   3.972  16.559 -0.0907 -0.1196 -0.0201
 4887W        W21361  17.343  13.934  12.987  0.0733  0.0129 -0.2518
 4888W        W21362  17.023   3.614  14.286 -0.0174 -0.0194 -0.1674
 4889W        W21363  16.456   4.004   1.614  0.0338 -0.0053 -0.2021
 4890W        W21364   5.838  11.857   5.337  0.1055  0.0450  0.0411
 4891W        W21365   9.616   8.400   5.673  0.0702  0.0517 -0.2638
 4892W        W21366   9.909  14.636  16.257  0.1434 -0.0636  0.1387
 4893W        W21367   9.461   2.772   0.444 -0.0478 -0.1141 -0.1365
 4894W        W21368  14.700  10.860   0.027 -0.0764 -0.1053  0.1235
 4895W        W21369   1.001   1.488   4.756 -0.1208  0.0682  0.1418
 4896W        W21370   0.161   6.715  14.949 -0.0919  0.0051 -0.0249
 4897W        W21371   2.904   3.827   2.264  0.2374  0.1808 -0.3222
 4898W        W21372   0.077   0.904   0.912  0.0415 -0.0167 -0.0666
 4899W        W21373  13.787  11.779   2.089  0.2095  0.1143  0.1102
 4900W        W21374   3.487  12.101   1.991  0.1366 -0.0130 -0.1397
 4901W        W21375   0.371   2.781   5.086 -0.3072 -0.3721 -0.1079
 4902W        W21376   6.728   2.800  12.382 -0.2301 -0.1638 -0.1739
 4903W        W21377   5.248   5.137  12.133  0.3318 -0.0408  0.1047
 4904W        W21378  12.931   1.102   2.232  0.0325 -0.0723 -0.2454
 4905W        W21379   1.702   2.603  15.979  0.1846 -0.0064  0.2237
 4906W        W21380  10.640   3.873   5.494 -0.3146 -0.3199 -0.0239
 4907W        W21381  12.584   5.886   0.561 -0.2189  0.2182 -0.1560
 4908W        W21382  16.478  15.455   3.124 -0.1878 -0.1927 -0.0295
 4909W        W21383   6.452   3.958   3.711  0.0072 -0.0478  0.0005
 4910W        W21384   5.532   4.516  13.555  0.1678  0.0750  0.1613
 4911W        W21385   9.977  12.892   3.615  0.0469 -0.1730  0.1589
 4912W        W21386   6.151   9.922   0.446 -0.1385  0.0606 -0.1895
 4913W        W21387   9.778   9.925   2.917  0.2035  0.2165  0.1381
 4914W        W21388   1.861  16.065  14.324  0.1717 -0.2289 -0.0160
 4915W        W21389  13.392  15.938   0.171  0.1070 -0.3524 -0.1264
 4916W        W21390  12.347  11.249   1.360 -0.2807  0.1886  0.1053
 4917W        W21391  11.660  14.698  16.829 -0.0686  0.0272 -0.0312
 4918W        W21392   8.219  15.129  16.783  0.3219  0.0843 -0.0266
 4919W        W21393   3.827   9.068  14.458 -0.2154 -0.1302  0.0433
 4920W        W21394   8.776  17.349  16.276  0.0276  0.1957  0.0661
 4921W        W21395   1.552  11.768   0.504 -0.1478 -0.0495  0.0579
 4922W        W21396   1.555  10.681   3.828  0.0294 -0.0930  0.2407
 4923W        W21397  14.059  11.918   3.519 -0.2901  0.3791  0.1501
 4924W        W21398  15.763   8.210   2.817  0.1905 -0.0183 -0.1871
 4925W        W21399   3.102  16.868   4.870 -0.1202  0.0916 -0.1736
 4926W        W21400  10.807  13.751  14.832 -0.2040  0.0794  0.2419
 4927W        W21401  16.570  16.010   3.366 -0.2384  0.1556 -0.0146
 4928W        W21402  11.264  12.433  16.611 -0.1005 -0.1555  0.0404
 4929W        W21403  15.774   5.576  15.601 -0.0514 -0.1030 -0.1055
 4930W        W21404  15.589   1.984   5.597  0.0313 -0.0815 -0.1565
 4931W        W21405  12.689   3.204  15.597  0.0978  0.3164  0.0133
 4932W        W21406  13.275   1.716  15.971 -0.0431 -0.0591  0.0446
 4933W        W21407  13.924   0.850   5.233 -0.1529 -0.2284 -0.0182
 4934W        W21408  15.875  15.009   1.764  0.2753  0.1119 -0.0463
 4935W        W21409  17.258   5.378   4.542 -0.0648 -0.0026 -0.2663
 4936W        W21410   4.902  13.746   0.187  0.0306 -0.3250  0.0477
 4937W        W21411   6.188  17.024   5.648  0.0294 -0.0953  0.0787
 4938W        W21412  14.387  17.433   3.743  0.0426  0.0185  0.0559
 4939W        W21413   2.247  11.967  14.743 -0.0030 -0.1404 -0.1580
 4940W        W21414   1.798  11.870   1.783  0.0660  0.2012 -0.1515
 4941W        W21415   1.379  17.551   5.329  0.0419  0.1099 -0.0650
 4942W        W21416  14.989   0.669  14.798  0.1244  0.0420 -0.0242
 4943W        W21417   1.831   2.660   6.175 -0.0160  0.0847  0.0645
 4944W        W21418   8.757  10.632   0.601 -0.4094  0.0079 -0.1992
 4945W        W21419  16.074  15.821   5.371 -0.0211 -0.0283  0.2926
 4946W        W21420  13.388   9.811  14.917 -0.2256 -0.2013  0.1315
 4947W        W21421   7.397   5.052  11.747 -0.0862 -0.2717  0.0046
 4948W        W21422  15.528  12.909  14.764  0.1828  0.1093 -0.2482
 4949W        W21423   9.045  11.717  15.082  0.2219  0.2151 -0.0978
 4950W        W21424  17.629  12.218  10.879  0.0089 -0.1251  0.1088
 4951W        W21425  15.042   7.379  16.806 -0.3783 -0.1304  0.0531
 4952W        W21426  13.639  12.371   4.272 -0.1319 -0.1985  0.1454
 4953W        W21427  10.953  14.414   2.727  0.0210  0.0617 -0.1387
 4954W        W21428  14.064  12.959  15.743 -0.0150  0.1729 -0.0223
 4955W        W21429   8.078   0.254   2.812  0.2968  0.1043 -0.0004
 4956W        W21430   2.487   7.672   4.541  0.0096  0.0077  0.0184
 4957W        W21431   0.858   6.006   4.437 -0.0646 -0.0088  0.0286
 4958W        W21432  12.805  14.212   2.607  0.0172  0.1657  0.3611
 4959W        W21433  14.924   7.233   1.777  0.2976  0.1612  0.2525
 4960W        W21434  12.929  16.145   1.151 -0.0939 -0.0076  0.2437
 4961W        W21435  17.043   5.189  16.867 -0.1757 -0.2624 -0.2433
 4962W        W21436   6.993  12.471   5.254 -0.1781  0.0422  0.0486
 4963W        W21437  15.034  14.135  14.477 -0.3074 -0.0925 -0.3135
 4964W        W21438   3.493   1.310  14.304 -0.0681 -0.1045 -0.0479
 4965W        W21439   8.448  15.093  12.177 -0.2273 -0.1378 -0.2641
 4966W        W21440   6.576   4.016   4.229 -0.2916  0.0508  0.2086
 4967W        W21441  17.372   5.750  11.630 -0.2316  0.4701  0.0166
 4968W        W21442   8.739  11.590   3.654  0.3851  0.1219  0.2366
 4969W        W21443   2.302   3.144  16.337  0.0391  0.1654 -0.0640
 4970W        W21444  12.938  10.062   6.395  0.0703  0.0357 -0.1121
 4971W        W21445   3.427   8.874  12.619 -0.0658 -0.2745 -0.2588
 4972W        W21446  10.404   9.027   5.795  0.2764 -0.1771  0.0329
 4973W        W21447   6.480  16.349   4.376 -0.1466  0.1508 -0.0518
 4974W        W21448   4.820   6.402   0.957 -0.2812 -0.3311 -0.1695
 4975W        W21449  15.737   1.533   5.433 -0.0952 -0.0774  0.0435
 4976W        W21450  13.257   4.308  15.763  0.1714  0.2313 -0.0358
 4977W        W21451  17.804   4.210   4.213  0.0897  0.0241 -0.1306
 4978W        W21452   7.931   4.049   5.060 -0.0397 -0.1222 -0.0440
 4979W        W21453   0.892  15.050  16.775 -0.0853  0.0825 -0.3314
 4980W        W21454   6.085  17.794  11.885 -0.1725  0.1830  0.2946
 4981W        W21455   8.794   1.197  13.682  0.0114  0.3803  0.0092
 4982W        W21456   0.671   2.284  15.226  0.0883 -0.1789  0.0730
 4983W        W21457  11.185  12.320   3.689  0.0641 -0.0463  0.1167
 4984W        W21458   1.411   2.115   4.356 -0.0372 -0.1885 -0.2872
 4985W        W21459   5.541   4.074  14.886  0.2652  0.1184 -0.3340
 4986W        W21460  14.538  13.093  12.200 -0.0112  0.1176  0.0434
 4987W        W21461  17.037   1.278   1.982  0.1615 -0.0687 -0.0724
 4988W        W21462   2.987  17.732  12.001  0.0935 -0.0392  0.3899
 4989W        W21463  17.732   1.270   2.764  0.0305  0.1179  0.1190
 4990W        W21464   1.658  11.207  15.853  0.4615 -0.1595  0.1405
 4991W        W21465  14.849  16.532  12.349  0.0871  0.0424  0.2778
 4992W        W21466  15.112  14.827   0.565  0.1997 -0.0260  0.0291
 4993W        W21467   8.331   4.512  16.453 -0.2304  0.1465 -0.2818
 4994W        W21468   5.259  10.639   4.768 -0.1196 -0.1384 -0.1109
 4995W        W21469  13.133   2.972  15.693  0.1434  0.0003  0.0052
 4996W        W21470   7.799  17.515   0.147  0.1894 -0.3369  0.0948
 4997W        W21471  16.997  11.401  12.081  0.0998 -0.0266 -0.2425
 4998W        W21472  16.132   8.568  11.517 -0.2286  0.0054  0.0127
 4999W        W21473   9.056   6.327   0.933 -0.0195 -0.0600  0.2703
 5000W        W21474  17.666  12.827   4.128  0.1563 -0.3117  0.1556
 5001W        W21475  12.387   5.007  15.600 -0.1420  0.3282  0.0004
 5002W        W21476  11.104   9.511   6.081  0.3184  0.0101 -0.0549
 5003W        W21477   7.864  16.216  12.032 -0.1165  0.1776 -0.1235
 5004W        W21478  13.626  10.130  14.625 -0.0285  0.2143  0.0286
 5005W        W21479   3.140   3.771   2.750 -0.1715 -0.2085 -0.0160
 5006W        W21480  10.191   7.016   4.434 -0.2245  0.0359 -0.0171
 5007W        W21481   0.272   9.680  11.514 -0.2677 -0.0977  0.2724
 5008W        W21482   6.797  14.607  12.535 -0.3856 -0.1955 -0.3299
 5009W        W21483   0.678   4.666   3.881 -0.3640  0.0156 -0.3908
 5010W        W21484   6.031  11.069   1.914 -0.2545  0.0798  0.0998
 5011W        W21485   8.356   3.588   4.423 -0.1294  0.1575  0.1671
 5012W        W21486   1.890   8.743  13.366  0.0042 -0.2615  0.0737
 5013W        W21487  12.737   6.031   5.977 -0.0912 -0.0988  0.0682
 5014W        W21488   1.370  12.038   2.183  0.1102 -0.1077  0.1156
 5015W        W21489  17.352   8.603  13.038 -0.3799  0.1428  0.1737
 5016W        W21490  11.755   2.213   1.357  0.3401  0.0814  0.1291
 5017W        W21491  13.859  17.730   2.825  0.1640 -0.2884  0.0619
 5018W        W21492   0.298  17.816  16.024  0.1883 -0.3574  0.1805
 5019W        W21493   0.658  15.582  12.341  0.1813 -0.1539  0.0107
 5020W        W21494   8.174   8.870   5.082 -0.0442  0.0758 -0.1562
 5021W        W21495  14.306   3.657  14.414  0.1585  0.0139 -0.3179
 5022W        W21496   1.685   7.320  13.265 -0.2833 -0.2480 -0.1332
 5023W        W21497   6.737  14.929  11.656 -0.2113  0.0550  0.2806
 5024W        W21498  10.398   9.635   2.940  0.1491 -0.1399  0.1248
 5025W        W21499  13.413   4.849  14.345  0.3215  0.0185  0.0689
 5026W        W21500  13.293   5.773   6.005 -0.3179  0.1141  0.2045
 5027W        W21501  13.152   9.538  13.118 -0.1621  0.1483  0.2698
 5028W        W21502  14.777  12.556  15.151 -0.0730  0.0100 -0.0152
 5029W        W21503   1.425   2.698  14.091 -0.0675 -0.3091 -0.4134
 5030W        W21504  16.730   5.018   3.917 -0.0514  0.2709 -0.0859
 5031W        W21505  12.125   6.167  15.003  0.0484 -0.1720  0.1924
 5032W        W21506   4.047  11.003   4.442  0.1820 -0.0557 -0.2205
 5033W        W21507   1.826  12.303   3.714 -0.2103 -0.1446  0.1674
 5034W        W21508   5.635   7.081  16.312  0.2777 -0.0922 -0.0690
 5035W        W21509  12.444  14.659   4.787 -0.0846  0.0060 -0.2191
 5036W        W21510  13.299   6.124   4.029  0.0165  0.0190  0.3148
 5037W        W21511  11.352  17.243  13.839 -0.3686 -0.1073 -0.0996
 5038W        W21512   5.103   5.312  16.194 -0.2017 -0.2224  0.0165
 5039W        W21513  16.239   8.416  15.992 -0.1421  0.2058 -0.0209
 5040W        W21514  15.146  10.562   0.213  0.0494  0.1478 -0.1013
 5041W        W21515  10.128  10.445  14.106  0.0867  0.0557 -0.1531
 5042W        W21516   2.457   9.099   0.683 -0.0348 -0.0364  0.0971
 5043W        W21517   2.026  11.453  14.032 -0.0733 -0.0802 -0.1222
 5044W        W21518   8.164   1.138   2.979  0.2463 -0.0480  0.0417
 5045W        W21519  17.367   6.155  13.797  0.1729  0.2439 -0.0763
 5046W        W21520  10.539  11.990   4.913  0.1486 -0.2748 -0.0727
 5047W        W21521   8.691  17.423  14.452 -0.0352  0.1752  0.0209
 5048W        W21522  10.169  12.239   0.255 -0.2100  0.1149 -0.0918
 5049W        W21523  17.267  17.057  11.941  0.1558  0.0757 -0.0866
 5050W        W21524   1.404   7.537  12.412 -0.4145 -0.1694 -0.0256
 5051W        W21525   6.648   9.940   4.405 -0.0411 -0.0631  0.1764
 5052W        W21526   3.404  11.218  16.241  0.1130 -0.2045 -0.1610
 5053W        W21527   9.432   4.327  16.662  0.0812  0.0997 -0.1471
 5054W        W21528   3.466  11.623  11.372 -0.2312  0.0395 -0.1717
 5055W        W21529   6.374   2.379   2.585  0.0387 -0.2253  0.0074
 5056W        W21530   5.050  12.369   3.845 -0.2964 -0.0834  0.1629
 5057W        W21531  13.900   7.393   6.287  0.1008 -0.0084 -0.2865
 5058W        W21532  11.012   8.405  13.447 -0.3349 -0.1336  0.0471
 5059W        W21533  12.055  15.385  12.533  0.0527 -0.2323  0.1629
 5060W        W21534   3.986   3.199   6.153 -0.0264  0.1127  0.0521
 5061W        W21535   2.351   9.103  15.195  0.3394  0.2976 -0.0996
 5062W        W21536  15.974   3.387  12.155  0.1109  0.0299  0.0845
 5063W        W21537   3.741   5.264  15.845 -0.0132  0.1559 -0.0307
 5064W        W21538   3.800  15.097   5.101  0.2013  0.3478 -0.2100
 5065W        W21539  10.325  10.628  11.676 -0.5080  0.1693 -0.0991
 5066W        W21540   1.209   7.518  14.589 -0.1683 -0.0993  0.1467
 5067W        W21541   8.695  15.221   4.169 -0.0139  0.0246  0.0754
 5068W        W21542   2.405   2.846  14.335 -0.1157 -0.0397 -0.1493
 5069W        W21543   4.737   7.878   1.152 -0.0621  0.1253 -0.1042
 5070W        W21544   0.491   7.131  12.887 -0.0471 -0.0459  0.1099
 5071W        W21545   3.263  15.544   4.030 -0.1505 -0.0968  0.2098
 5072W        W21546  12.281   1.899   3.227 -0.2229  0.2055 -0.1087
 5073W        W21547   2.994   4.640   0.772 -0.3541  0.0709 -0.0804
 5074W        W21548   9.866   1.545  14.338  0.2040 -0.3487 -0.0063
 5075W        W21549  16.899  14.185   1.327 -0.0399  0.1791  0.1584
 5076W        W21550  16.812   1.788  14.876  0.0998 -0.0923  0.1197
 5077W        W21551  15.615  16.107  15.162 -0.1869 -0.1635  0.0557
 5078W        W21552   6.333   4.208   2.293  0.1081 -0.2425 -0.2195
 5079W        W21553  11.991  12.429   3.858 -0.0395 -0.0355  0.3799
 5080W        W21554  11.848   6.954  15.048  0.2901  0.1426  0.1521
 5081W        W21555   5.547  12.706  13.867 -0.2097 -0.1968 -0.1283
 5082W        W21556   0.084  16.729   5.018 -0.1690 -0.3535 -0.0980
 5083W        W21557   7.982   3.115  12.058  0.2885 -0.1029  0.2311
 5084W        W21558  11.803   6.491  14.891  0.1469  0.1617  0.2643
 5085W        W21559  12.516  11.737  16.754  0.0439  0.2606 -0.3669
 5086W        W21560  14.730   4.235   0.212 -0.0755 -0.2698  0.3747
 5087W        W21561   4.468   3.489  11.805  0.0521 -0.0223 -0.2107
 5088W        W21562   1.706  10.197  13.358 -0.1491 -0.0859  0.1005
 5089W        W21563   7.840   9.007   2.947 -0.1403 -0.2485 -0.2027
 5090W        W21564   8.062  13.519   5.233  0.1496  0.2281  0.0513
 5091W        W21565  16.734   2.495  13.672  0.1296  0.0418  0.0073
 5092W        W21566   2.610   8.930  16.523  0.2688  0.0859  0.0471
 5093W        W21567   1.773   3.999  16.576 -0.2250  0.1545 -0.1669
 5094W        W21568   9.160   9.284   4.733 -0.2925  0.0921  0.1357
 5095W        W21569  15.676  13.655  11.753 -0.3292 -0.1019  0.1198
 5096W        W21570   2.181  16.022   1.996  0.1935  0.0473  0.1752
 5097W        W21571  11.681   0.825   1.047  0.1186  0.2059 -0.1260
 5098W        W21572  17.168   8.572  16.203 -0.0403 -0.1422 -0.1521
 5099W        W21573   3.174   3.184   5.067 -0.0595 -0.1578 -0.2265
 5100W        W21574  13.851   3.555  16.711 -0.2098 -0.4366  0.3504
 5101W        W21575   4.614  11.973   0.765 -0.3107 -0.1345 -0.1656
 5102W        W21576   5.947  13.822  15.908  0.2766  0.4878 -0.1716
 5103W        W21577   5.032  11.739  15.284 -0.0915  0.0584  0.0675
 5104W        W21578   2.247  14.960   4.710 -0.2889 -0.0402 -0.1924
 5105W        W21579  16.059   9.865  13.485  0.5610  0.0392 -0.1563
 5106W        W21580  16.931   2.911   3.078 -0.2102 -0.0309  0.0054
 5107W        W21581  11.289   1.691   2.375 -0.1818  0.1446 -0.2328
 5108W        W21582  13.302  16.611  13.108 -0.0462  0.1432  0.1679
 5109W        W21583  10.638  13.868  13.633 -0.0505  0.0382 -0.0911
 5110W        W21584   7.926  11.771   1.622  0.0209 -0.0531  0.0160
 5111W        W21585  17.816   2.848  15.662  0.0979 -0.3470 -0.0719
 5112W        W21586  14.154  14.911  15.859  0.0937  0.2607  0.1629
 5113W        W21587   2.830  12.138  13.706 -0.0392 -0.2090  0.2333
 5114W        W21588   9.737   2.019   3.129  0.1508  0.1141  0.0053
 5115W        W21589  11.769  16.443  15.084  0.0610 -0.0641  0.1776
 5116W        W21590  15.867   9.875  12.205 -0.1395  0.2501 -0.0092
 5117W        W21591  17.379  14.425  13.815  0.0874  0.2184 -0.2480
 5118W        W21592   0.237   6.155  14.950  0.1207  0.0050 -0.2296
 5119W        W21593  12.277   3.728  14.942  0.0394 -0.0481 -0.0227
 5120W        W21594  14.464  16.532   5.392 -0.0651  0.0767 -0.4707
 5121W        W21595   3.409  13.307  13.508  0.0474 -0.3358  0.2465
 5122W        W21596   0.359  12.588   0.678 -0.3353 -0.1921 -0.2168
 5123W        W21597   9.165   4.225   0.757  0.2538  0.2394  0.0969
 5124W        W21598  10.281  13.853  12.342 -0.0567 -0.2423 -0.1158
 5125W        W21599   1.759   3.844   3.379 -0.1331 -0.4517 -0.0901
 5126W        W21600  12.400  13.713  12.689 -0.2951  0.0718 -0.1820
 5127W        W21601  10.480   8.335   1.352 -0.0465  0.3860  0.2228
 5128W        W21602  17.436   0.145  14.859  0.0377 -0.1414 -0.0633
 5129W        W21603  15.016   2.679  16.017  0.0045 -0.1881 -0.1109
 5130W        W21604  13.169   0.876   0.763  0.1552  0.0223  0.3355
 5131W        W21605  17.434   1.284   0.755 -0.2960  0.1453 -0.0533
 5132W        W21606   9.094  11.428   4.741 -0.0708  0.4093  0.2509
 5133W        W21607   4.498   6.567  15.994  0.3152  0.2188 -0.1571
 5134W        W21608   1.544   1.252  15.810  0.0787  0.0079  0.0074
 5135W        W21609   3.858   4.633   4.728 -0.0337  0.0146 -0.0504
 5136W        W21610   4.987  16.191   4.468 -0.0162  0.0454  0.3199
 5137W        W21611  10.320   0.281   1.591  0.0463  0.1178 -0.0393
 5138W        W21612   7.053   4.337   5.240  0.0503 -0.0003 -0.1869
 5139W        W21613   4.872   3.925  13.346  0.0874 -0.0565 -0.0277
 5140W        W21614   2.472   2.322  14.227 -0.0339  0.1183 -0.1537
 5141W        W21615  13.455   4.710   2.650  0.2195  0.0260  0.1706
 5142W        W21616   5.682   4.656   6.255  0.0709 -0.0447  0.0050
 5143W        W21617   7.282   2.751  13.612 -0.0938  0.0454 -0.2790
 5144W        W21618   0.978  14.928  13.099 -0.1243 -0.2499 -0.2035
 5145W        W21619  10.471   0.416   5.212 -0.3230  0.0292 -0.1458
 5146W        W21620  15.281  10.196   5.221 -0.1965  0.0883 -0.1646
 5147W        W21621  10.226   0.480  13.779 -0.1718 -0.0340  0.0104
 5148W        W21622  14.998  13.406   2.228  0.0171 -0.0553 -0.2895
 5149W        W21623   2.289   9.030   3.137  0.3056 -0.0136  0.0861
 5150W        W21624   1.726  12.532  13.381  0.2864 -0.1405  0.1923
 5151W        W21625   6.393  14.797   0.282  0.0530 -0.0233  0.2259
 5152W        W21626  10.002   2.556   0.248  0.0989  0.1793 -0.0292
 5153W        W21627   8.135   3.123  13.596  0.1142 -0.2118 -0.1640
 5154W        W21628  16.884   1.383  15.177  0.0086  0.0578 -0.0710
 5155W        W21629  10.445  16.462   5.596  0.0277 -0.3256  0.1140
 5156W        W21630   8.144  11.388  13.266  0.0432 -0.1051 -0.0255
 5157W        W21631   5.653   3.411   5.708  0.0405  0.4945 -0.1565
 5158W        W21632  11.054   0.118   4.095  0.1566 -0.2367  0.1543
 5159W        W21633  12.324   4.530  15.662  0.1125 -0.0647  0.0751
 5160W        W21634   7.024  14.520   2.078  0.0938  0.0552 -0.2882
 5161W        W21635  11.075   3.534  16.557  0.2903  0.0012  0.1618
 5162W        W21636   6.464   8.443   5.417 -0.0979  0.0612 -0.0126
 5163W        W21637  11.574   5.971  13.186 -0.1127 -0.2618 -0.2999
 5164W        W21638   0.261   0.047  15.532 -0.1386 -0.3211  0.3163
 5165W        W21639   1.115  11.976   0.197 -0.2200  0.0715 -0.0030
 5166W        W21640   1.750   0.320   5.789  0.1389  0.1046 -0.2474
 5167W        W21641  12.303  12.099  11.848  0.1764 -0.3115  0.0894
 5168W        W21642   7.527   1.962  11.100 -0.3152  0.2908 -0.0910
 5169W        W21643   2.077   4.535  11.852 -0.1209 -0.0013  0.1143
 5170W        W21644   2.321  10.808   2.917  0.1004 -0.0907  0.0112
 5171W        W21645  11.664   3.190   1.463 -0.0685  0.0208  0.1784
 5172W        W21646   5.882  12.720  12.412 -0.0474 -0.0065  0.1624
 5173W        W21647   7.155   0.921   0.536  0.1252 -0.0449  0.1746
 5174W        W21648   5.329   8.378   3.522 -0.0005 -0.1068  0.0801
 5175W        W21649   2.803   5.879   5.150  0.0861 -0.0220  0.0101
 5176W        W21650  13.925   9.823  12.810  0.2603 -0.0342  0.0575
 5177W        W21651  10.923   0.911   6.063  0.4452  0.0079  0.0134
 5178W        W21652   6.303  14.381  13.493 -0.0657 -0.0228  0.0788
 5179W        W21653  17.485   3.297  15.869 -0.0031 -0.1632  0.0655
 5180W        W21654  15.756  15.083  15.611  0.0713  0.0500 -0.3835
 5181W        W21655   9.958  17.558  15.365  0.2377  0.1680 -0.1600
 5182W        W21656   8.293  10.627   3.611  0.2146  0.1636 -0.2052
 5183W        W21657  17.158  10.295  14.904  0.3604 -0.4213  0.2508
 5184W        W21658  13.136   5.945  12.081 -0.3090  0.0781 -0.0559
 5185W        W21659   7.908   1.096  15.780 -0.3083 -0.2479  0.2412
 5186W        W21660   2.837  12.878   3.134  0.1073 -0.3041 -0.1098
 5187W        W21661  16.685   5.600   3.025 -0.0277  0.3369 -0.0003
 5188W        W21662  13.352   4.845   3.621 -0.2446  0.1366  0.1082
 5189W        W21663  14.993   4.821  15.743  0.1344 -0.0505  0.1387
 5190W        W21664  16.421  11.534   6.402 -0.1720  0.2001  0.1076
 5191W        W21665  11.093   4.565  13.721  0.1777 -0.2070 -0.3495
 5192W        W21666   0.839   7.570  11.632  0.2131 -0.2421  0.3777
 5193W        W21667  14.988  11.956  11.882  0.1758 -0.1140 -0.0274
 5194W        W21668   9.037   1.010   0.800  0.3095  0.1243 -0.0134
 5195W        W21669   0.595   8.433  12.925  0.1110  0.0917 -0.1877
 5196W        W21670   6.076   9.097  15.287  0.0687 -0.4677  0.3971
 5197W        W21671  11.282   3.958  14.447  0.0710  0.2030 -0.0822
 5198W        W21672   8.888  11.568  12.392  0.0380  0.0776 -0.1140
 5199W        W21673   8.754  16.887  14.271 -0.0971 -0.1073  0.0963
 5200W        W21674   9.106  16.446   4.683  0.2348 -0.1723 -0.0116
 5201W        W21675  12.858   5.471  14.131  0.3090 -0.0609  0.3047
 5202W        W21676   4.910   6.536   2.040 -0.0942  0.5464 -0.0317
 5203W        W21677   8.419  12.377  12.920  0.2347 -0.0415  0.1368
 5204W        W21678  11.124  15.877  15.608 -0.3651  0.1251 -0.4252
 5205W        W21679   7.344  11.753   3.998 -0.1080  0.1345 -0.0131
 5206W        W21680   3.185  16.624  16.516 -0.0182 -0.1605  0.1351
 5207W        W21681   1.900  14.518  11.368  0.4173  0.2043 -0.2272
 5208W        W21682   5.474  17.096   0.437 -0.0885 -0.0764  0.0578
 5209W        W21683  12.551   0.916   4.696  0.1043  0.0107 -0.0093
 5210W        W21684   8.974   0.812   3.848  0.0798  0.0380 -0.4390
 5211W        W21685  17.521   1.754  13.268  0.0412 -0.4748 -0.0450
 5212W        W21686   3.713  15.859  16.241  0.0066 -0.2620 -0.0715
 5213W        W21687  13.904   3.975   1.927 -0.0021 -0.0086 -0.2682
 5214W        W21688   8.781   2.915  15.054  0.1489  0.1556 -0.1350
 5215W        W21689  13.667  11.104  16.126 -0.0977  0.1502  0.0882
 5216W        W21690   6.803   3.976  13.651 -0.1231  0.0725  0.1463
 5217W        W21691  15.572  14.080  12.622 -0.0890  0.0092 -0.0363
 5218W        W21692   5.289   2.740  14.195  0.1362  0.0434  0.1013
 5219W        W21693   7.713   5.720   5.774 -0.0789  0.1028 -0.3053
 5220W        W21694   2.639   4.275   0.782 -0.0722  0.5626  0.1496
 5221W        W21695   8.049   7.532  12.224  0.0916 -0.1868  0.3996
 5222W        W21696   1.199  10.083  13.629  0.1670 -0.0218  0.2447
 5223W        W21697   3.869   0.722  12.369  0.0686 -0.1031 -0.2846
 5224W        W21698  12.209  16.032   4.686 -0.1290 -0.1874 -0.1009
 5225W        W21699   0.968   8.833   4.954  0.1624  0.5444 -0.1812
 5226W        W21700   6.809   6.685  12.308  0.1667  0.3060  0.0696
 5227W        W21701  17.174  15.218   5.064 -0.0283  0.2797  0.0073
 5228W        W21702   1.876  13.056  16.523 -0.0308  0.0008 -0.1551
 5229W        W21703   7.408   5.886  12.006  0.0048 -0.0963  0.2910
 5230W        W21704  11.981   7.058   4.828  0.0782  0.1441 -0.2273
 5231W        W21705  14.309   6.738   5.425  0.3140 -0.0093  0.1493
 5232W        W21706   3.582   3.890   4.840  0.1762 -0.0620  0.1066
 5233W        W21707  14.819  14.524  16.603  0.2550 -0.5390  0.1748
 5234W        W21708  14.185  16.795   3.083  0.3816  0.0597  0.0783
 5235W        W21709  10.118   4.982   0.854 -0.0827  0.3180 -0.2892
 5236W        W21710   6.672   5.764   0.248 -0.2997 -0.2080  0.0935
 5237W        W21711   2.265   0.913   3.652  0.0151 -0.0996  0.2679
 5238W        W21712  15.605  17.482   1.750 -0.1503 -0.1259  0.1495
 5239W        W21713   2.288  17.732  14.916  0.1463  0.0906 -0.2302
 5240W        W21714   3.126  15.814   0.424  0.0014  0.1333  0.0364
 5241W        W21715   7.150   6.150   4.042 -0.0404  0.1512 -0.2431
 5242W        W21716   8.713  11.991  12.168 -0.0353 -0.0606 -0.0960
 5243W        W21717   7.327   0.108  11.288 -0.3356 -0.1776  0.4008
 5244W        W21718  13.731   5.583   5.022  0.0750  0.0192 -0.1962
 5245W        W21719   2.617   9.567  16.510  0.0614 -0.0509 -0.1793
 5246W        W21720  10.637   6.017   4.318 -0.0489 -0.0784 -0.1611
 5247W        W21721   7.081   9.971  14.053  0.1562 -0.1477  0.0026
 5248W        W21722   5.994  11.026   3.174 -0.1143  0.1968  0.0985
 5249W        W21723   1.320   3.599  12.331  0.0172  0.0218  0.1405
 5250W        W21724   3.468   1.795   5.238 -0.0405 -0.2004  0.4767
 5251W        W21725   2.148   5.282  13.029  0.1064  0.1094  0.3902
 5252W        W21726  11.715  15.485  14.863  0.1565  0.0381 -0.3217
 5253W        W21727   0.677  15.682  10.833 -0.1299 -0.0585  0.0236
 5254W        W21728  17.702  16.233  12.644 -0.0809  0.2511  0.1213
 5255W        W21729   6.782  17.552  13.322 -0.2440  0.1329 -0.1674
 5256W        W21730   0.890  11.297   4.397  0.0456 -0.0832 -0.0338
 5257W        W21731   0.124  10.560   3.991  0.1507 -0.0230 -0.1514
 5258W        W21732   2.062  14.683   2.356  0.2431 -0.2957 -0.2232
 5259W        W21733   0.674   7.315  16.739 -0.5046  0.0908 -0.2014
 5260W        W21734   7.349   0.047   4.901  0.2344  0.0195 -0.0496
 5261W        W21735   6.215   0.227   5.250 -0.1378 -0.2703  0.0237
 5262W        W21736   9.014  15.868  16.053 -0.0381 -0.4476 -0.1499
 5263W        W21737  15.100   4.425  14.399  0.4671  0.1614  0.0821
 5264W        W21738   1.120   0.527  15.157  0.3443 -0.1049 -0.0120
 5265W        W21739   3.571  16.055  12.040  0.0618  0.0841  0.3340
 5266W        W21740   8.672  12.554  14.415  0.1880  0.2836  0.1885
 5267W        W21741   6.545   5.999   1.245  0.3004 -0.0440 -0.0438
 5268W        W21742   1.697   2.604   3.195 -0.1140 -0.0825 -0.1164
 5269W        W21743  17.614  13.843   0.989 -0.0716 -0.3231 -0.1160
 5270W        W21744   8.830  12.052  14.779  0.3074 -0.1099 -0.0260
 5271W        W21745  17.093   8.140   3.733 -0.0738 -0.0375  0.0641
 5272W        W21746  16.729   0.091   2.783  0.1350 -0.0221  0.0608
 5273W        W21747   2.889   9.351  16.096 -0.0374  0.1400 -0.2698
 5274W        W21748   1.241   4.894   2.657 -0.0306 -0.2285 -0.2399
 5275W        W21749   8.401  16.624  16.059  0.0706  0.1797  0.1041
 5276W        W21750   7.160  12.075  15.694  0.1741  0.1178 -0.0642
 5277W        W21751  11.809  11.534   4.243  0.0816 -0.1036 -0.0614
 5278W        W21752  15.824   3.901  12.197  0.2206 -0.1109 -0.0524
 5279W        W21753  16.625   4.739   2.540 -0.4210 -0.1666  0.0781
 5280W        W21754  15.219  16.030  13.168  0.0337 -0.1986  0.0666
 5281W        W21755  14.338   2.074  13.023 -0.2667  0.2038 -0.0044
 5282W        W21756  13.780   3.395   3.726 -0.2481  0.0947 -0.1839
 5283W        W21757   5.008  13.716   2.558 -0.0475 -0.2532 -0.1603
 5284W        W21758  10.510  12.221  14.142 -0.1628 -0.0206 -0.0204
 5285W        W21759   9.717   2.245   3.739  0.1000 -0.2163  0.0886
 5286W        W21760   7.489  12.431  12.507 -0.1811 -0.0376 -0.0062
 5287W        W21761  12.202   4.274   4.970  0.0753  0.1083  0.2164
 5288W        W21762  11.846   9.688   5.015  0.1846  0.0282 -0.2160
 5289W        W21763  17.671  11.615   4.310  0.1822  0.2842 -0.0403
 5290W        W21764   8.195  11.596   3.654  0.0842 -0.1772  0.2494
 5291W        W21765   2.894   0.722  12.668  0.2362  0.1955 -0.1757
 5292W        W21766  17.269   8.454   4.570 -0.1091 -0.2172 -0.1220
 5293W        W21767  11.204  17.513  14.272 -0.1239  0.0229  0.2397
 5294W        W21768   0.591  15.568  15.729  0.1121 -0.4379  0.2842
 5295W        W21769   9.694   6.286  16.838  0.1003 -0.2820 -0.0946
 5296W        W21770   9.688  10.920   0.593 -0.0617 -0.3498  0.2308
 5297W        W21771  13.687   8.298  14.634  0.0157 -0.0083 -0.1332
 5298W        W21772   6.735  16.407  12.192 -0.2216 -0.1062  0.1621
 5299W        W21773   1.782  17.246   5.669 -0.0054 -0.2675 -0.4791
 5300W        W21774   1.760   1.150   1.465 -0.1972  0.3183  0.0345
 5301W        W21775   3.165  17.100   3.187  0.0114  0.0962  0.0282
 5302W        W21776   1.673  15.555   5.697  0.0100 -0.3356  0.3095
 5303W        W21777   5.723   1.717   4.360 -0.0874 -0.0255  0.1230
 5304W        W21778   2.761   5.440  15.858 -0.3474  0.1769 -0.0053
 5305W        W21779  11.908   8.428  16.679  0.1049 -0.0521  0.0154
 5306W        W21780  15.370  11.954  14.853 -0.0870  0.0338  0.0286
 5307W        W21781   6.708   9.181   5.724 -0.0664 -0.0787  0.3173
 5308W        W21782  11.422   8.052  15.304  0.0594 -0.2826  0.0639
 5309W        W21783  13.718   5.669  16.275 -0.0422  0.2039 -0.0857
 5310W        W21784   9.967   1.815   3.503 -0.4983  0.0416  0.0776
 5311W        W21785  15.906  12.820   4.185  0.0650  0.0765  0.0683
 5312W        W21786  11.191  12.462   1.074  0.0365  0.1100  0.0685
 5313W        W21787  13.179  17.349  13.019  0.0828 -0.0711  0.1028
 5314W        W21788   5.930  13.601   4.538  0.2381 -0.0143  0.1603
 5315W        W21789  15.606   4.073  16.847 -0.1136 -0.0358 -0.1468
 5316W        W21790   8.521  13.149   4.573 -0.2117  0.0977 -0.1392
 5317W        W21791   2.004   4.360  13.025  0.0062  0.1371 -0.1451
 5318W        W21792  16.320   1.575   4.474 -0.0549  0.3318  0.0449
 5319W        W21793   6.706  10.404   0.910 -0.3618  0.0477  0.0429
 5320W        W21794   9.718   8.007   5.950  0.1318  0.3888 -0.2109
 5321W        W21795  17.443   3.034  13.070 -0.0935 -0.0821  0.2832
 5322W        W21796   5.991   0.789  11.963  0.1524 -0.1180  0.0338
 5323W        W21797   2.633   5.499   1.049  0.0488  0.0355  0.2461
 5324W        W21798  16.281   5.317   5.502 -0.0768 -0.0427  0.4454
 5325W        W21799   0.523  14.431   4.197  0.1378 -0.0179 -0.0791
 5326W        W21800  14.694   3.342   4.835 -0.1087 -0.0822 -0.0720
 5327W        W21801   2.064  17.482  11.739  0.0732 -0.4706 -0.0181
 5328W        W21802   1.041  16.298  14.002  0.0819 -0.1379  0.0276
 5329W        W21803   5.884   7.157  13.897  0.1764 -0.1342  0.0370
 5330W        W21804   3.382   7.265   2.338  0.3692 -0.0182  0.1009
 5331W        W21805  12.296  11.197   4.167  0.0482 -0.2589 -0.0611
 5332W        W21806   6.134  17.615   4.307 -0.1969  0.0229  0.0940
 5333W        W21807   8.903   0.806  14.010 -0.1460 -0.0456  0.0635
 5334W        W21808   8.068  14.537  13.630 -0.1086  0.3961  0.1881
 5335W        W21809   7.781   1.195   3.876  0.2077  0.1169  0.1297
 5336W        W21810   7.109   1.335   0.889  0.0607 -0.0644 -0.0823
 5337W        W21811   7.973   8.252   1.177  0.2915  0.1014 -0.0186
 5338W        W21812  14.739   0.017  14.596  0.0033 -0.3110  0.1361
 5339W        W21813  15.757  12.543  12.429 -0.2380 -0.0340 -0.2380
 5340W        W21814  17.198   7.578  12.585 -0.2178  0.1406 -0.0849
 5341W        W21815  11.033  15.885   0.045 -0.1442  0.0386 -0.0615
 5342W        W21816  16.166  13.261  10.622 -0.1293 -0.1691  0.0217
 5343W        W21817   0.535   1.166   5.558  0.1089 -0.0315  0.0208
 5344W        W21818  17.558  14.754  13.488  0.1145  0.4012 -0.0379
 5345W        W21819   2.951   0.010  16.716  0.0380  0.3818  0.1459
 5346W        W21820  13.419   2.725   0.977 -0.3113  0.3017  0.0942
 5347W        W21821   3.310  14.197   1.410 -0.3122 -0.1586  0.1320
 5348W        W21822  12.558   7.215  12.269  0.2035  0.1546 -0.1232
 5349W        W21823  14.842  11.846   2.914  0.0906 -0.1115  0.0633
 5350W        W21824   5.768  11.248  15.694  0.3156 -0.1977 -0.0677
 5351W        W21825   6.452  14.287  12.828  0.1071  0.1108 -0.2982
 5352W        W21826  11.038   5.927  11.038 -0.2395 -0.0618 -0.1085
 5353W        W21827   1.371   3.833   1.173  0.2802 -0.0497  0.1914
 5354W        W21828   2.417  17.028  12.054  0.0234 -0.1034 -0.0078
 5355W        W21829  15.634  15.134  13.067  0.4305  0.2048 -0.1165
 5356W        W21830  12.698  16.590   2.623  0.1573 -0.1262  0.3630
 5357W        W21831  12.205   7.961   2.889 -0.1662  0.2231 -0.0556
 5358W        W21832  16.093   5.787   1.930  0.0535  0.1090 -0.0976
 5359W        W21833   5.137  14.282   0.261 -0.0954  0.2402  0.1113
 5360W        W21834  12.527   5.718  16.163  0.0417 -0.2231 -0.1864
 5361W        W21835  14.028   0.764  13.873 -0.2003  0.1498 -0.0832
 5362W        W21836  16.106   5.576   5.092 -0.1617 -0.0816 -0.2143
 5363W        W21837  10.411   0.439  11.933  0.0956  0.2899  0.0805
 5364W        W21838   7.240   2.624  13.133  0.1703  0.0332 -0.0869
 5365W        W21839   9.814   8.168   4.283  0.4501  0.0037 -0.3505
 5366W        W21840   6.150   8.562  15.293 -0.4523 -0.0443 -0.0516
 5367W        W21841   6.560   1.947  13.405  0.2381 -0.3156 -0.0728
 5368W        W21842  17.063  12.585  12.517  0.5337 -0.0359 -0.0856
 5369W        W21843   5.328   2.951  16.850 -0.1539 -0.2404 -0.0396
 5370W        W21844   3.385  11.500   3.020 -0.0399 -0.0755  0.0996
 5371W        W21845  13.995   4.148  12.821  0.1626  0.0082 -0.0695
 5372W        W21846   5.955   6.902  12.584  0.1287 -0.0839 -0.1341
 5373W        W21847   6.759   8.584   3.964  0.1668 -0.1100  0.0367
 5374W        W21848   1.085   3.133   3.379  0.5317  0.3511 -0.1201
 5375W        W21849  15.457  13.655   2.353  0.2532 -0.0792 -0.1649
 5376W        W21850  10.903  17.289   1.835 -0.0108 -0.1188  0.0351
 5377W        W21851   5.950  11.113   4.483  0.0851  0.3439  0.0375
 5378W        W21852   6.147   6.186  13.786  0.1055  0.0367  0.1846
 5379W        W21853  11.461   0.719  11.649  0.0766 -0.0191  0.1006
 5380W        W21854  10.647   7.608   0.715 -0.0458 -0.0753 -0.1946
 5381W        W21855   0.714   9.883   4.522  0.1530 -0.1383  0.0367
 5382W        W21856   6.474  10.605  13.578 -0.1681  0.3438  0.0261
 5383W        W21857   8.482   8.360  13.879 -0.1940  0.1411  0.0520
 5384W        W21858  12.698   9.621   5.031  0.2410 -0.1888  0.0394
 5385W        W21859   8.127   5.894   3.069 -0.0196  0.1673 -0.2879
 5386W        W21860  15.420   5.447  12.933  0.1054  0.0986  0.0770
 5387W        W21861   0.833  12.992  14.990 -0.0740 -0.0276  0.1107
 5388W        W21862   2.521  15.199   1.058  0.0557 -0.2116  0.1791
 5389W        W21863  10.539  15.317  15.744  0.2197  0.1550  0.3714
 5390W        W21864   2.436  13.335  13.419 -0.0613  0.0791 -0.1256
 5391W        W21865  14.990   7.404  16.196  0.2000  0.2195 -0.0698
 5392W        W21866  11.075   2.264   1.359  0.0038  0.0282 -0.0492
 5393W        W21867   7.443  16.629  11.516  0.3930 -0.1946 -0.0855
 5394W        W21868  17.321   3.085  15.460  0.1791 -0.0349 -0.2544
 5395W        W21869   5.807   2.456  13.179 -0.2726 -0.1491 -0.1462
 5396W        W21870   4.222   9.112   5.736  0.2862  0.0032 -0.0839
 5397W        W21871   7.681   6.697   2.824  0.0064  0.0173  0.0893
 5398W        W21872  13.539  12.710  16.515 -0.0123  0.0435  0.3111
 5399W        W21873   9.621  14.711  11.655  0.0256  0.1300  0.3133
 5400W        W21874   8.181  16.719   2.962 -0.2562 -0.2092 -0.1987
 5401W        W21875  15.246   7.644   2.500  0.2584  0.0401 -0.1017
 5402W        W21876   3.162  10.870   3.881 -0.0022 -0.0348 -0.1432
 5403W        W21877  10.565   3.296   2.605  0.0060  0.0232  0.0982
 5404W        W21878  13.572  12.291   4.746 -0.1234 -0.0440 -0.2122
 5405W        W21879  15.784  13.868  15.919  0.0179 -0.0383  0.0715
 5406W        W21880  13.739  13.877   2.908  0.0472 -0.0732 -0.1859
 5407W        W21881  13.275   5.474  15.475  0.1824 -0.1696  0.5168
 5408W        W21882  17.822   4.948   2.308 -0.2396 -0.0649  0.0223
 5409W        W21883  10.234  11.831  14.111 -0.1791 -0.1952  0.1605
 5410W        W21884   8.922   7.433   4.789 -0.1876 -0.3097 -0.0232
 5411W        W21885   2.291  13.456  14.047 -0.0457  0.2216  0.1263
 5412W        W21886  17.579   0.915  15.493  0.0350 -0.0601  0.1823
 5413W        W21887   1.440  13.473  11.146  0.0032  0.2618  0.3887
 5414W        W21888   4.387   6.519  13.288  0.0035  0.1526  0.2392
 5415W        W21889  14.564   2.673   4.523  0.2616 -0.1191  0.2703
 5416W        W21890   2.259  10.999  13.783 -0.2129 -0.1668  0.4106
 5417W        W21891  15.689  16.430  16.659  0.0335  0.1971 -0.1275
 5418W        W21892   9.163   4.831   1.883  0.0232 -0.0388  0.1261
 5419W        W21893  17.188  16.520  15.648 -0.1287 -0.0216 -0.0596
 5420W        W21894   7.225   9.846   5.720 -0.1566  0.0774 -0.0382
 5421W        W21895  10.782  15.422   2.509  0.0689 -0.0524 -0.1252
 5422W        W21896  17.783   6.871  14.256  0.0878 -0.1803  0.0068
 5423W        W21897   1.402  12.804  13.010  0.2588 -0.0266 -0.0024
 5424W        W21898   5.231  17.744   3.942  0.2979 -0.2474 -0.0624
 5425W        W21899   2.414  15.105   6.007 -0.1917  0.0068 -0.0093
 5426W        W21900   1.204  10.029   1.911  0.1573 -0.0390 -0.0203
 5427W        W21901   6.537   2.042   3.952 -0.1380  0.0925  0.1250
 5428W        W21902  14.707   9.563  13.856 -0.0911 -0.0635  0.0915
 5429W        W21903  11.501   1.173   0.714 -0.2621 -0.3026 -0.1799
 5430W        W21904   9.995   6.593  16.314 -0.1918  0.0842 -0.3776
 5431W        W21905   3.682   5.357  13.036 -0.3202  0.0818  0.0101
 5432W        W21906  13.035  10.303   4.415 -0.3717 -0.1085  0.2136
 5433W        W21907   8.963  13.764  15.816  0.2423  0.3098  0.3833
 5434W        W21908  16.331   5.234  15.329 -0.5783  0.0262 -0.1430
 5435W        W21909   6.746   7.909  14.080 -0.2267 -0.2116  0.0803
 5436W        W21910   1.501  14.706  15.732  0.2950  0.2254  0.1824
 5437W        W21911  17.036  10.803   0.647 -0.0055 -0.1868 -0.0749
 5438W        W21912   9.192   6.982   4.701  0.0125  0.1320  0.0507
 5439W        W21913  15.015   6.586  13.032  0.1077  0.0323  0.0884
 5440W        W21914   2.568   1.657   2.431 -0.3086 -0.4183  0.0207
 5441W        W21915   5.957   7.762   3.065 -0.0400  0.1380  0.0597
 5442W        W21916  12.091   9.584  16.095 -0.1283  0.2457 -0.0705
 5443W        W21917  15.830   5.772  13.134  0.1874 -0.2434 -0.0858
 5444W        W21918   8.542  11.816  15.754  0.0096 -0.1915  0.0403
 5445W        W21919   7.022   7.125  16.162 -0.2068 -0.0022 -0.2751
 5446W        W21920   9.467  14.992   2.694  0.4326  0.0951 -0.0453
 5447W        W21921  13.002   6.655   0.935  0.1625 -0.2980 -0.2008
 5448W        W21922   1.608   0.470   4.799  0.1418  0.1016  0.0706
 5449W        W21923   9.415   7.565   3.516  0.1354 -0.0013 -0.0930
 5450W        W21924  16.878  11.169  16.009  0.0162 -0.0666 -0.1646
 5451W        W21925   9.804   5.186  13.563  0.0550 -0.0520 -0.0492
 5452W        W21926   2.292  14.368  12.037 -0.0067  0.1545 -0.0627
 5453W        W21927  10.893   3.716  14.189 -0.1169 -0.1992 -0.1627
 5454W        W21928  13.573  16.269  12.860  0.1221 -0.4798 -0.3859
 5455W        W21929   2.885  16.894   0.150  0.0981  0.1409 -0.0257
 5456W        W21930  16.506  13.489  14.151  0.0475  0.1272 -0.0648
 5457W        W21931  11.438  12.296   2.057  0.3098  0.1476  0.1679
 5458W        W21932   7.206   7.101  11.519 -0.0787  0.0156 -0.0625
 5459W        W21933  13.557  10.928   0.730  0.1281  0.2602 -0.0870
 5460W        W21934   4.378  15.876   2.986 -0.1768 -0.3981 -0.2740
 5461W        W21935   5.551  14.837   3.040 -0.2568 -0.1522  0.0760
 5462W        W21936  10.355  11.809   4.490 -0.1053  0.1295 -0.1923
 5463W        W21937   4.430   5.140   3.595 -0.0026 -0.2540  0.0715
 5464W        W21938   9.174   1.548   1.541  0.0097  0.1541 -0.2272
 5465W        W21939  10.273   2.176  13.626 -0.2207 -0.3046 -0.1494
 5466W        W21940   7.409   0.732  15.930 -0.1870 -0.0575  0.1438
 5467W        W21941   2.627   9.506  15.181  0.0977  0.1323 -0.0469
 5468W        W21942   0.009   8.634  12.930 -0.1211  0.0172  0.0138
 5469W        W21943  11.791   1.710  13.388  0.0785 -0.0894 -0.2390
 5470W        W21944  16.496  13.332   3.043 -0.0285 -0.0141  0.3125
 5471W        W21945  15.627   4.760  14.727 -0.0163 -0.0240 -0.0587
 5472W        W21946  14.522  11.264   3.132  0.1106 -0.1016  0.1808
 5473W        W21947   3.798  13.551   4.178 -0.0491 -0.0679  0.0172
 5474W        W21948   9.523   4.618   4.965  0.0352 -0.1835 -0.1109
 5475W        W21949   9.100  16.151  14.743 -0.0162  0.3095 -0.1608
 5476W        W21950   0.647   5.763  15.693  0.0663  0.1951 -0.2651
 5477W        W21951   0.733   4.810  14.845  0.0412 -0.1382 -0.0517
 5478W        W21952   7.492   2.607  14.834  0.0049  0.1551  0.2092
 5479W        W21953   4.463   4.618  16.798 -0.1305  0.2054 -0.0405
 5480W        W21954   9.962  10.321  13.652 -0.0640 -0.1100 -0.0038
 5481W        W21955  11.298   9.914  12.555 -0.2853  0.0723  0.0504
 5482W        W21956   0.476   5.712  14.840  0.1046  0.0103  0.2419
 5483W        W21957  17.656  11.028  10.795  0.0349 -0.1449  0.0726
 5484W        W21958  11.741   2.670  16.757  0.0603 -0.2082 -0.0298
 5485W        W21959   4.681   3.072  16.828  0.1849  0.2595 -0.0734
 5486W        W21960  12.318  14.250  12.109 -0.1439 -0.1805 -0.4346
 5487W        W21961  10.640  11.838  13.736  0.1131  0.2068  0.4073
 5488W        W21962  17.562  11.815  14.302  0.2713  0.1569  0.1151
 5489W        W21963  13.834  17.337  16.863 -0.1874  0.0994 -0.1502
 5490W        W21964   8.416   2.676   3.070 -0.3294  0.0694 -0.2012
 5491W        W21965   5.511   1.931   1.641  0.1521  0.1539 -0.1698
 5492W        W21966  14.818   0.342   1.313  0.1355  0.2694  0.0932
 5493W        W21967   9.368   3.932   3.159 -0.3566  0.0789  0.1161
 5494W        W21968   2.153   6.684   0.821 -0.1139  0.2272  0.0981
 5495W        W21969   6.701   2.007   5.070 -0.0446  0.0013 -0.2438
 5496W        W21970  13.310   9.567  16.899 -0.2813 -0.0495  0.2158
 5497W        W21971   0.156  13.772   1.473 -0.0936 -0.3578 -0.2007
 5498W        W21972  17.626  15.579   3.835 -0.1341  0.1115 -0.1157
 5499W        W21973  10.255   0.093   1.077 -0.1169 -0.2011 -0.4413
 5500W        W21974   0.758   0.248  16.092  0.0562 -0.2361  0.1290
 5501W        W21975  11.676  17.186  12.950  0.1676  0.1311 -0.0780
 5502W        W21976   1.680  11.451  15.426  0.0145 -0.0791 -0.0152
 5503W        W21977   9.118   7.418   5.995  0.2380  0.0581  0.0273
 5504W        W21978  17.297   5.104   5.641  0.0060 -0.1113  0.5138
 5505W        W21979  14.085   3.071  13.772  0.1463  0.2411  0.1875
 5506W        W21980   9.876   3.482  14.890  0.0244  0.1647 -0.2531
 5507W        W21981   0.524   5.192  16.379 -0.0566 -0.0703  0.1961
 5508W        W21982  13.242   5.249   5.811 -0.0405  0.0663 -0.1394
 5509W        W21983   9.209  12.909   1.597  0.2558 -0.2645 -0.1484
 5510W        W21984   6.819  10.861   4.105 -0.0678  0.0415 -0.1285
 5511W        W21985   4.286  13.451   4.128 -0.0356  0.3095  0.0064
 5512W        W21986  15.234   3.816   3.043 -0.3835 -0.0923  0.0446
 5513W        W21987  17.591  10.544   3.628 -0.0532  0.2986 -0.3028
 5514W        W21988   4.616   0.729  13.557  0.3231  0.1926  0.0066
 5515W        W21989   2.987  13.374  16.778  0.3399  0.0599  0.3525
 5516W        W21990   2.353   7.597  12.112 -0.4648  0.0022 -0.1461
 5517W        W21991   2.893   3.695   1.045  0.0484  0.0784  0.3019
 5518W        W21992  10.940  17.173   3.977 -0.1467  0.0731 -0.0528
 5519W        W21993  10.737   8.350  15.802  0.1601  0.2219  0.0052
 5520W        W21994   9.073  14.337  12.295  0.2772  0.0526  0.1207
 5521W        W21995   8.266  13.953  16.834  0.0635 -0.0309 -0.0629
 5522W        W21996   5.762   8.303   2.233 -0.1056  0.1532 -0.3589
 5523W        W21997   3.215  15.773  11.674 -0.0345 -0.4551  0.1154
 5524W        W21998  11.383  11.520   2.148  0.1923 -0.1156  0.0673
 5525W        W21999  12.209  15.249   5.588 -0.0319  0.0997  0.1344
 5526W        W22000   7.810  14.062  16.925  0.0387 -0.4228 -0.3256
 5527W        W22001  10.820   6.206  12.469  0.1498  0.0398 -0.5905
 5528W        W22002   3.437   8.769  14.524 -0.2098 -0.2334  0.3741
 5529W        W22003  14.010   3.323   4.300  0.0895  0.3450 -0.0871
 5530W        W22004   8.803  12.739   6.009  0.0865  0.0461 -0.1678
 5531W        W22005  15.309   5.776  15.560  0.0229  0.0178  0.1022
 5532W        W22006  14.259  17.650  14.333  0.4036 -0.0709  0.0023
 5533W        W22007   3.995  13.608  15.092 -0.0307 -0.1008 -0.1212
 5534W        W22008   3.239  11.023  13.900  0.0337  0.0229  0.0741
 5535W        W22009  17.439  14.285   3.468 -0.2280  0.0551 -0.1772
 5536W        W22010  15.202   0.303   5.078  0.0058 -0.0994 -0.1383
 5537W        W22011  16.568  12.689  14.802  0.0183  0.0243  0.0421
 5538W        W22012   6.214   3.246   6.280  0.2337 -0.1771  0.2379
 5539W        W22013   6.668  14.518   3.024  0.0088  0.4378 -0.1172
 5540W        W22014  11.237   0.184   1.777  0.0172 -0.0923 -0.3053
 5541W        W22015   5.569   9.081  12.569 -0.0820 -0.0468 -0.0391
 5542W        W22016   0.720  11.250   1.340  0.0266 -0.2033 -0.0312
 5543W        W22017  11.897  11.919  14.275  0.1195  0.0169 -0.0409
 5544W        W22018   1.793  11.192   0.924 -0.1617 -0.1843 -0.2380
 5545W        W22019   4.757   1.798  14.694  0.1910 -0.0272  0.0495
 5546W        W22020   6.794   9.673  12.695 -0.0159  0.0800 -0.1718
 5547W        W22021  10.907   3.544   1.132  0.0742 -0.2900  0.0691
 5548W        W22022   3.137   1.260  15.202  0.0661  0.1125  0.2762
 5549W        W22023   2.796  13.615   4.501 -0.1985 -0.1286  0.0514
 5550W        W22024   4.021  12.569  12.406  0.3604 -0.1748 -0.2536
 5551W        W22025   8.163   9.638  12.938 -0.0875  0.1213  0.4085
 5552W        W22026  17.793  11.398   5.262 -0.5248  0.1627 -0.4514
 5553W        W22027   0.050   8.863  11.849  0.0461  0.1294 -0.1396
 5554W        W22028  10.270   5.086  14.762  0.0286 -0.2623  0.4849
 5555W        W22029  15.427  12.141  12.423  0.2031  0.0791  0.3317
 5556W        W22030   4.989   0.476  13.237 -0.1662  0.0158 -0.1263
 5557W        W22031   6.526  15.486  14.663 -0.1023  0.0317  0.0953
 5558W        W22032   7.796   6.731   1.020 -0.0896 -0.0337  0.2122
 5559W        W22033  14.039   3.064   0.264  0.2283  0.1468  0.0343
 5560W        W22034  16.116   0.149  15.869  0.0922  0.0032 -0.2567
 5561W        W22035   9.603  12.055  16.807  0.3506 -0.2543  0.2351
 5562W        W22036  13.272   3.984   1.732 -0.0463 -0.1356  0.3375
 5563W        W22037  17.243   7.766   1.727 -0.0426  0.1357 -0.1422
 5564W        W22038   2.005  13.911   1.239  0.2848 -0.0828 -0.3722
 5565W        W22039  16.258  12.673  16.174 -0.0847  0.0247  0.1779
 5566W        W22040   2.107   7.588   0.328  0.1900 -0.0845 -0.0258
 5567W        W22041  10.267  14.214  11.583 -0.0441  0.1257 -0.2057
 5568W        W22042  11.901   4.713  14.202  0.1684 -0.1358 -0.0805
 5569W        W22043   1.952   8.061  15.265 -0.1253 -0.1507  0.0899
 5570W        W22044  17.471   1.107  16.228 -0.1776 -0.2302 -0.0378
 5571W        W22045  12.656   0.777  14.462 -0.0713  0.0477  0.1239
 5572W        W22046   4.480   2.314  12.996  0.0873 -0.0079  0.0042
 5573W        W22047   6.454  14.067   0.779 -0.1215  0.0876  0.2207
 5574W        W22048   5.753   1.425  15.098  0.4687  0.1386  0.0834
 5575W        W22049   8.792   7.420   1.619  0.1865 -0.1610 -0.2130
 5576W        W22050   3.651  17.764   0.425  0.1645  0.2213 -0.0689
 5577W        W22051  14.555   7.102   0.771  0.0994 -0.0926  0.0641
 5578W        W22052  12.964   4.580  16.414  0.1053 -0.0416  0.0741
 5579W        W22053  13.477  12.938  13.192 -0.0555  0.1296 -0.2623
 5580W        W22054  16.690  12.968   5.122 -0.0266  0.0061  0.1916
 5581W        W22055   3.296   5.720  12.976  0.0431  0.2574  0.1471
 5582W        W22056  10.814   7.310   1.111  0.0485 -0.0110 -0.0713
 5583W        W22057   2.365   6.810   4.233  0.2385 -0.1252  0.0568
 5584W        W22058  14.954  13.394  12.385  0.0020  0.1831 -0.0264
 5585W        W22059   1.528  17.783   2.071 -0.0995  0.0377  0.0584
 5586W        W22060   3.950   9.641   0.597  0.0593 -0.3529  0.0700
 5587W        W22061  12.984   7.698  13.120 -0.1073 -0.1294  0.3292
 5588W        W22062  16.901  16.976   5.176 -0.2397  0.0648  0.3090
 5589W        W22063  12.849   3.574   2.349  0.0546 -0.0903 -0.0290
 5590W        W22064  11.259   6.050   0.570 -0.0209 -0.1758 -0.0763
 5591W        W22065  13.347   6.001   3.128  0.2928  0.0894  0.0631
 5592W        W22066   9.623   6.967  13.542 -0.0273 -0.0127  0.1723
 5593W        W22067   6.905  12.742  11.368  0.2225 -0.1243  0.0284
 5594W        W22068  10.066  13.889   1.809  0.2169 -0.1203 -0.0252
 5595W        W22069   5.992  10.119  16.307  0.4658  0.5320  0.2472
 5596W        W22070   8.831  15.703   1.240  0.2934  0.3067  0.1300
 5597W        W22071   4.862   0.235   1.007  0.0983  0.1227 -0.0486
 5598W        W22072  11.670   8.756   0.554 -0.2130 -0.1366  0.1116
 5599W        W22073   0.578  16.774  13.959 -0.1154 -0.3346 -0.1589
 5600W        W22074   8.970  13.655   2.772 -0.1414 -0.1031 -0.0179
 5601W        W22075   2.882   3.009  12.428 -0.1815  0.0265 -0.0052
 5602W        W22076   6.445  16.438  16.168 -0.2582  0.1968  0.2341
 5603W        W22077   4.724   4.757  12.884  0.5745  0.3267  0.1979
 5604W        W22078  11.376   7.576  16.336 -0.3966  0.1465 -0.0662
 5605W        W22079   1.704   4.300   3.619 -0.1608  0.0991  0.2006
 5606W        W22080  11.547  13.437   5.801 -0.6161  0.0464  0.1788
 5607W        W22081  17.438   5.311  16.016 -0.0883 -0.3056  0.1420
 5608W        W22082   2.929  13.877  16.487 -0.0300 -0.1477 -0.2510
 5609W        W22083   2.661  10.776   1.041 -0.3439 -0.2222  0.2926
 5610W        W22084   0.856   4.562  14.331 -0.0957 -0.2692  0.3693
 5611W        W22085   8.341  13.305   0.041 -0.2246  0.1855  0.0717
 5612W        W22086   7.280  13.617   2.151 -0.1397  0.3500  0.0806
 5613W        W22087   5.334   2.700  12.563  0.1737 -0.1519 -0.2503
 5614W        W22088  12.989   4.092  15.365 -0.0436 -0.3403  0.2715
 5615W        W22089   9.234   0.736  12.255  0.1493 -0.4442 -0.1476
 5616W        W22090   9.397   8.834   1.069  0.3747  0.0186  0.1663
 5617W        W22091  11.730   8.460  15.426  0.0101  0.1817  0.1681
 5618W        W22092  12.269  17.203   1.551 -0.1785  0.2010 -0.1799
 5619W        W22093   0.816  13.992   0.418 -0.0956 -0.0228  0.2795
 5620W        W22094   2.495   2.365  13.260 -0.2917 -0.5252 -0.1674
 5621W        W22095  13.363   4.086   4.985  0.0604 -0.3361  0.0181
 5622W        W22096  10.642  12.126   3.727  0.0519  0.2878 -0.0417
 5623W        W22097   3.455   2.003   5.706 -0.1554 -0.2284 -0.0491
 5624W        W22098   7.220   0.811   5.634 -0.1404  0.3883 -0.0852
 5625W        W22099   0.301   3.287   5.019 -0.0988  0.0018 -0.0775
 5626W        W22100  12.962  11.395   3.163  0.0967  0.0962 -0.1881
 5627W        W22101   6.126   7.076   3.069 -0.1420  0.0066  0.1068
 5628W        W22102  10.232   6.899   5.398  0.2839  0.0056  0.3114
 5629W        W22103  12.077   7.696  14.704 -0.1401 -0.0009  0.1294
 5630W        W22104   9.844   2.670   0.787 -0.1011  0.0334  0.1038
 5631W        W22105   8.138  14.982   0.926 -0.1737 -0.1895  0.0502
 5632W        W22106  15.882  14.124  13.064  0.2114 -0.2108 -0.0595
 5633W        W22107   6.360  11.426   4.693 -0.2528 -0.1503 -0.1121
 5634W        W22108   0.309  13.989  14.311  0.0355 -0.0731 -0.1082
 5635W        W22109  12.798  15.735   4.703 -0.0464  0.1682  0.0925
 5636W        W22110   9.240   0.134   2.369  0.2126 -0.0649  0.0889
 5637W        W22111  14.933   1.895   3.479 -0.2011 -0.1417  0.2465
 5638W        W22112  14.113   6.101  15.399 -0.1729  0.0299  0.1382
 5639W        W22113  11.633   0.739   5.406 -0.0174 -0.2298 -0.2427
 5640W        W22114   7.573  13.066  12.841 -0.0513  0.2970  0.3334
 5641W        W22115   9.814  15.462   0.416  0.0871  0.0600  0.1587
 5642W        W22116  16.613  17.003   4.762  0.0089  0.2071 -0.0953
 5643W        W22117  10.896   6.119  15.128  0.1573  0.1228 -0.2182
 5644W        W22118   7.460   1.240  16.804 -0.1281  0.2188 -0.0276
 5645W        W22119   6.481  13.929  12.389  0.1684  0.0278 -0.1688
 5646W        W22120   5.491   1.004  16.461  0.0808  0.1121  0.0563
 5647W        W22121   4.112   2.918  14.741  0.1179  0.4135  0.3676
 5648W        W22122  17.034  17.017  15.123  0.1413  0.0693  0.0484
 5649W        W22123  11.555   9.905  12.050 -0.1702 -0.0751  0.1811
 5650W        W22124   6.918  14.118   0.587 -0.0354  0.2695  0.0773
 5651W        W22125   8.720  17.716  13.237 -0.2096 -0.5339 -0.0137
 5652W        W22126  12.019   1.232  16.415  0.1540  0.1424  0.0333
 5653W        W22127   4.101   1.681   0.055 -0.2779  0.0201  0.1729
 5654W        W22128  17.323  17.529   3.544  0.4026  0.0011  0.1285
 5655W        W22129  10.997  13.597   0.387  0.0139  0.2363 -0.2096
 5656W        W22130   7.652   5.413  16.262 -0.0798 -0.0466 -0.0239
 5657W        W22131  10.994  15.024   3.351 -0.1015  0.1765  0.0175
 5658W        W22132  17.369  17.602  12.854  0.3081 -0.2420  0.0950
 5659W        W22133   7.410  10.669  12.611 -0.2130  0.1791  0.2321
 5660W        W22134   4.852   8.118   3.655  0.0295  0.0956  0.1190
 5661W        W22135  10.754   5.361  14.042 -0.1389  0.0300 -0.0795
 5662W        W22136  13.957   7.327   2.828 -0.0044 -0.0370  0.0016
 5663W        W22137   8.878  12.191  13.142 -0.2629  0.0282 -0.2945
 5664W        W22138   7.452   6.912   0.588 -0.0258 -0.0194 -0.0205
 5665W        W22139   5.628  14.648   3.587 -0.2667  0.1920  0.1738
 5666W        W22140  10.814   5.464   2.143  0.0691  0.3208  0.1398
 5667W        W22141   1.162   7.306   2.960  0.0459  0.2085  0.1940
 5668W        W22142  17.104  13.419   3.061  0.0944  0.0500 -0.1692
 5669W        W22143   8.770  12.926  12.272 -0.0637 -0.0479 -0.0461
 5670W        W22144   8.692   2.922   1.236 -0.0917 -0.3015 -0.3443
 5671W        W22145   6.691   5.295  13.527  0.0875  0.0697 -0.3201
 5672W        W22146   7.713  14.809   5.656  0.2082 -0.1265 -0.1534
 5673W        W22147   4.962  15.315   1.265 -0.2170 -0.0533 -0.1746
 5674W        W22148   4.659  17.564  15.278  0.1711  0.1718 -0.3275
 5675W        W22149  11.923   7.668  12.324  0.0928 -0.3139 -0.2133
 5676W        W22150   5.436   3.544  16.104  0.2119  0.1351 -0.0324
 5677W        W22151   8.666   5.108  12.404 -0.1343  0.1118  0.1109
 5678W        W22152   4.465  17.576  16.742 -0.3323 -0.0257 -0.3952
 5679W        W22153   1.949  14.597  15.532 -0.0684 -0.0095  0.0485
 5680W        W22154  10.033   0.621  13.253  0.1692 -0.1373  0.0568
 5681W        W22155   1.771   6.768  15.087  0.4254  0.0459  0.0838
 5682W        W22156   2.136   8.999   3.639  0.1646 -0.2052 -0.0847
 5683W        W22157  15.497   8.944   5.588 -0.2592  0.0047 -0.2744
 5684W        W22158  16.596  12.064  13.989 -0.1828  0.0130 -0.1279
 5685W        W22159   2.933   2.061   4.022  0.0141 -0.1653  0.0251
 5686W        W22160  11.800  16.345  15.577  0.1082 -0.0528 -0.1434
 5687W        W22161   9.698   1.361   0.377 -0.2959 -0.0111 -0.1681
 5688W        W22162   0.821   3.548   3.183 -0.0741 -0.1611 -0.0450
 5689W        W22163   8.449  11.609  12.163 -0.0168 -0.1613 -0.1148
 5690W        W22164  14.795  15.066   2.748  0.1722 -0.0699 -0.0141
 5691W        W22165   5.146   4.586  16.171  0.1647 -0.0166  0.1505
 5692W        W22166   6.702   5.633  16.361 -0.1170 -0.2498 -0.2350
 5693W        W22167   9.038  14.478   1.012 -0.0313 -0.0160  0.1597
 5694W        W22168   5.996   0.486  14.838 -0.0843  0.2303 -0.1477
 5695W        W22169  15.722   0.924  14.314  0.2040 -0.0183  0.1357
 5696W        W22170   0.767   1.242   3.581 -0.2729 -0.1207  0.2267
 5697W        W22171   4.802  10.767  15.085  0.1496  0.1554  0.1615
 5698W        W22172  16.660   0.634  15.754 -0.1805 -0.1326 -0.0786
 5699W        W22173  13.016   0.178  12.208 -0.0718 -0.2238  0.3328
 5700W        W22174   3.780   9.275   0.293  0.0127  0.0392  0.2545
 5701W        W22175   4.574   2.076  14.239 -0.2088  0.1049  0.1653
 5702W        W22176  17.371   8.033  15.320  0.1017  0.1526 -0.0197
 5703W        W22177   8.611   3.739  16.716  0.2225  0.1674 -0.1339
 5704W        W22178   1.498   7.290  11.938  0.0390 -0.0436 -0.1536
 5705W        W22179  16.403   7.982  12.262 -0.0758  0.2863  0.0964
 5706W        W22180   8.990  14.206  15.587 -0.0577  0.2097 -0.2675
 5707W        W22181   5.823  10.788  14.101 -0.0538  0.1088  0.2129
 5708W        W22182  12.340   1.578  12.327  0.1875 -0.0854  0.1159
 5709W        W22183  12.030   8.646  12.295  0.0419  0.1359 -0.0285
 5710W        W22184   5.956  11.556  13.420 -0.0921  0.0776  0.0595
 5711W        W22185   7.293   6.464   4.442 -0.2826 -0.0242 -0.1671
 5712W        W22186  15.424  10.785  11.781 -0.1642 -0.2231  0.0496
 5713W        W22187   4.876   6.244   5.453  0.0451  0.3341  0.2684
 5714W        W22188  11.870   3.590   2.872 -0.2666  0.1849 -0.0022
 5715W        W22189   3.370   5.146   5.265 -0.0485  0.2163  0.1850
 5716W        W22190   1.888   0.559   5.218 -0.0491  0.3568 -0.1911
 5717W        W22191  13.751  13.204   6.047  0.2930 -0.0482  0.1019
 5718W        W22192  13.340   7.678  16.784 -0.2874  0.0042 -0.1779
 5719W        W22193  16.837  10.710   5.340 -0.1200  0.1382  0.0135
 5720W        W22194  12.481   5.687   4.862  0.1675  0.1306  0.3826
 5721W        W22195   2.644  10.510  10.821  0.2246 -0.3705  0.1819
 5722W        W22196   3.631  12.484   0.481  0.1561  0.1015  0.0009
 5723W        W22197  17.020  16.100   2.550  0.0724  0.1935 -0.2624
 5724W        W22198  17.751   7.770   3.455  0.2638 -0.1120  0.1722
 5725W        W22199  10.803   9.302  15.354  0.0033 -0.0283  0.1480
 5726W        W22200  15.238   0.334  15.504  0.1277 -0.2568 -0.1477
 5727W        W22201   9.078  13.291   3.785  0.0188  0.1483  0.0348
 5728W        W22202   2.059   8.113  16.504  0.0026 -0.0798 -0.1821
 5729W        W22203   5.938  16.734  12.672  0.2794  0.0964 -0.0039
 5730W        W22204   5.991  15.384   1.387  0.2644 -0.0580  0.1097
 5731W        W22205  11.441   6.536   2.466  0.1697  0.1173 -0.0176
 5732W        W22206   9.731   4.758   2.573  0.1764 -0.1394 -0.0433
 5733W        W22207  12.381  14.008  16.293 -0.4540  0.1490 -0.1098
 5734W        W22208  11.796  14.119   5.129 -0.1085 -0.1016 -0.4064
 5735W        W22209  13.616  15.475   0.777  0.1971  0.0611  0.0400
 5736W        W22210   4.318   1.496   4.617 -0.0342 -0.5289  0.0425
 5737W        W22211  14.417  15.356   1.364 -0.0305 -0.0208 -0.2261
 5738W        W22212   3.135  14.883  15.340  0.1335  0.1269 -0.3733
 5739W        W22213   1.193   3.715  15.457  0.0477  0.1491 -0.2820
 5740W        W22214  12.294   1.742   4.324  0.3428 -0.3930 -0.2519
 5741W        W22215  12.708  17.559   2.255  0.1603  0.2776 -0.0646
 5742W        W22216   3.928   1.222  14.519  0.0864 -0.0108  0.0486
 5743W        W22217   7.784   0.004  15.676 -0.1059 -0.1592  0.1153
 5744W        W22218   9.511  10.904   2.584  0.2077  0.0863  0.4648
 5745W        W22219   6.386   4.302   3.341 -0.0090 -0.1267 -0.0193
 5746W        W22220   1.509  13.165   2.481 -0.0531 -0.0193  0.1112
 5747W        W22221  15.726   5.813   1.590  0.2902 -0.0126  0.1711
 5748W        W22222   0.588   2.668  14.897  0.2087 -0.1404  0.0834
 5749W        W22223   7.627   9.268  13.645 -0.1008 -0.1517 -0.2010
 5750W        W22224  14.452  14.501   4.771 -0.0335  0.1504 -0.0396
 5751W        W22225  12.585  13.835   2.143 -0.0829  0.1458  0.0345
 5752W        W22226   8.035  13.117   4.705  0.0122 -0.0181 -0.2922
 5753W        W22227  12.623  15.306   5.268  0.1363 -0.0508 -0.0490
 5754W        W22228  11.168   8.177  13.855 -0.3484 -0.1495  0.1417
 5755W        W22229   5.320   0.750   3.970  0.0095  0.0302 -0.0457
 5756W        W22230  17.414  11.428  13.914  0.1728  0.0086  0.0838
 5757W        W22231   4.194   7.646   4.483  0.0330  0.0948  0.2911
 5758W        W22232  13.630  10.469   2.682 -0.0110  0.3348 -0.1714
 5759W        W22233  16.355  13.773  12.149 -0.2837 -0.3137  0.0527
 5760W        W22234  14.733   1.386  16.716 -0.0815  0.0766 -0.0106
 5761W        W22235   6.668   9.693  15.701  0.0746  0.0346  0.0683
 5762W        W22236   8.651   9.156   0.250  0.0138 -0.0234  0.0612
 5763W        W22237  14.378   5.189  13.983  0.1636  0.0218  0.1186
 5764W        W22238  16.734  14.538   6.036 -0.1927 -0.1353 -0.1361
 5765W        W22239   7.034   2.957   0.624 -0.3233 -0.0409 -0.0743
 5766W        W22240   9.198   5.634  14.060  0.2239  0.0586 -0.2310
 5767W        W22241   0.660   1.268  12.621  0.0509  0.1096  0.0646
 5768W        W22242   9.373   3.149  13.268  0.0577  0.0850  0.2114
 5769W        W22243   0.940  15.760   3.677 -0.3155  0.1000 -0.0973
 5770W        W22244  17.654   3.384  14.371 -0.2255  0.3111 -0.1122
 5771W        W22245   5.479  14.565  16.118  0.1308 -0.1927  0.1572
 5772W        W22246   8.454  14.824   4.967  0.1281 -0.0249  0.1040
 5773W        W22247  16.992   8.728  13.929  0.1134  0.0644 -0.1498
 5774W        W22248   5.711  12.577  16.360 -0.0420 -0.1487  0.0692
 5775W        W22249   3.684   2.806  14.980  0.0433  0.0371 -0.3182
 5776W        W22250  11.633  14.149  12.617 -0.0133  0.0264 -0.2243
 5777W        W22251  16.908  16.653   0.733  0.1758 -0.2137  0.1140
 5778W        W22252  13.304   7.176   4.637 -0.1998  0.2143  0.1162
 5779W        W22253   4.189  11.025   1.817 -0.0227 -0.1124  0.1997
 5780W        W22254  12.981   9.321  14.173  0.1191 -0.0388  0.2477
 5781W        W22255  10.662   4.811  13.741 -0.0867 -0.0382 -0.2476
 5782W        W22256  17.408   6.558   0.565  0.2745  0.0213 -0.0119
 5783W        W22257   4.255   5.075   3.115 -0.1489 -0.1168 -0.2444
 5784W        W22258   5.719   8.510   0.403 -0.0065  0.2678  0.1379
 5785W        W22259   3.346   5.007  15.979  0.2381  0.0866 -0.0697
 5786W        W22260   2.393   7.157   4.780 -0.1401 -0.0141  0.2803
 5787W        W22261  11.408   8.550   0.974 -0.1379  0.0651  0.2736
 5788W        W22262   8.946   7.212  14.930 -0.1048  0.1168  0.0052
 5789W        W22263   5.397   1.328  15.961 -0.2084 -0.0739 -0.0098
 5790W        W22264   2.975  11.267  16.027  0.0647  0.0140  0.0544
 5791W        W22265  12.760   4.050   0.903 -0.0463  0.1169  0.3136
 5792W        W22266   9.550  13.177  16.360 -0.2435 -0.1185  0.0580
 5793W        W22267  15.283   0.816  15.744  0.0568  0.2201 -0.1572
 5794W        W22268  17.299  17.457  12.343  0.1317  0.0812  0.2179
 5795W        W22269   7.245   8.726   3.960  0.0394  0.2127  0.0438
 5796W        W22270  14.040   2.464  13.817  0.2140  0.0104  0.0101
 5797W        W22271  15.302  14.871   0.088  0.0045  0.0682  0.0203
 5798W        W22272   0.916   6.465   3.302  0.0317 -0.0934 -0.0052
 5799W        W22273   9.632  11.890   3.981  0.1964  0.0108 -0.2934
 5800W        W22274  14.315   8.046  13.644  0.0174  0.2537 -0.1492
 5801W        W22275   7.260  17.217   3.629  0.2100  0.0597  0.0986
 5802W        W22276  17.789   3.210  12.350  0.1685  0.3157 -0.0611
 5803W        W22277  12.271  16.439  11.474  0.1235 -0.1667  0.1726
 5804W        W22278  15.463   6.736  12.930 -0.0286  0.0975  0.0721
 5805W        W22279   8.325  15.520   2.025  0.0625  0.1724  0.1917
 5806W        W22280   4.887   0.274  10.973  0.1199  0.0619 -0.1341
 5807W        W22281   1.477   2.140   2.940  0.0848 -0.1031  0.0938
 5808W        W22282   3.812   2.283   2.861 -0.1489 -0.2566  0.1788
 5809W        W22283   5.349  10.455  15.425 -0.0552 -0.2265  0.2111
 5810W        W22284   3.816  11.750  13.538  0.1946  0.0064  0.2522
 5811W        W22285   3.862   3.437   3.940  0.0236 -0.0918  0.0836
 5812W        W22286   4.935  16.582  15.823  0.1314  0.1261 -0.2585
 5813W        W22287  10.478  12.164   1.970  0.1255  0.1021 -0.1232
 5814W        W22288   3.146   1.989   6.723  0.0446 -0.0476  0.1982
 5815W        W22289   9.694  14.873  12.177  0.2294 -0.2658 -0.5029
 5816W        W22290   7.709  14.104   4.467  0.0244 -0.0183 -0.0588
 5817W        W22291   3.016   3.610   3.607 -0.0189 -0.0102 -0.2950
 5818W        W22292   9.799   4.252   5.248 -0.0035 -0.1388  0.1438
 5819W        W22293  11.903   1.785   1.162 -0.0581  0.1013  0.1878
 5820W        W22294   5.017  17.645   1.742 -0.0673 -0.1690 -0.0810
 5821W        W22295   8.080   3.516  11.718 -0.0527 -0.0311 -0.0411
 5822W        W22296  10.094  15.155   3.097  0.0472  0.2152  0.0581
 5823W        W22297   9.632  11.514  16.695 -0.4264 -0.2516 -0.1424
 5824W        W22298   0.744  17.057  11.576 -0.0767  0.2296 -0.0285
 5825W        W22299   1.018  15.287   6.039  0.0950 -0.0424 -0.2177
 5826W        W22300   1.667   2.812   3.675 -0.1452 -0.1056  0.1476
 5827W        W22301   3.190   6.402   2.673  0.0467  0.3754  0.0454
 5828W        W22302  15.575  15.277  14.501 -0.0393 -0.1250  0.2598
 5829W        W22303  16.549   2.920   4.398 -0.1678 -0.2347  0.0101
 5830W        W22304   3.407   0.716   5.297 -0.4553 -0.1367  0.0786
 5831W        W22305   1.698  15.966  15.391  0.1391  0.2377  0.1246
 5832W        W22306   6.007   2.326   0.294 -0.3573 -0.3744 -0.1074
 5833W        W22307   4.722  12.033   6.017 -0.0947  0.1090  0.1399
 5834W        W22308   0.960   8.648   0.691 -0.0617 -0.1991  0.2731
 5835W        W22309  17.318   2.298  13.860 -0.4815  0.0945 -0.1299
 5836W        W22310  14.109   6.993  13.751  0.3397 -0.1587 -0.2031
 5837W        W22311   5.270   3.391   0.782  0.0863 -0.0375  0.1633
 5838W        W22312  14.383  10.994  13.453  0.0163  0.0214 -0.0761
 5839W        W22313  12.381  17.520   5.367 -0.0721 -0.2066  0.0509
 5840W        W22314  16.186  11.393  14.464 -0.2888 -0.0100 -0.1135
 5841W        W22315   6.680  12.171   0.672  0.0037 -0.0527 -0.1191
 5842W        W22316   5.469  17.600   2.579  0.1912 -0.0791  0.1577
 5843W        W22317   0.755   1.191   4.400  0.1577 -0.0438 -0.0150
 5844W        W22318   6.005   0.308  12.603 -0.1220  0.0059 -0.0538
 5845W        W22319   1.884   4.713  12.285 -0.0783 -0.0767  0.1593
 5846W        W22320   6.239  15.618  11.537  0.0541  0.2016  0.3954
 5847W        W22321   2.549  16.458   1.752 -0.0148  0.2128 -0.0110
 5848W        W22322  12.474   5.276  15.180 -0.1063 -0.1224 -0.1535
 5849W        W22323   4.297   1.326  14.168 -0.0142 -0.0430 -0.0634
 5850W        W22324  16.343   8.067   5.189  0.1579  0.1011  0.0230
 5851W        W22325  16.881   9.776  13.732  0.1197 -0.1886 -0.1510
 5852W        W22326   7.484  10.235   3.442 -0.2222 -0.1765  0.1648
 5853W        W22327   7.686   1.241   3.230 -0.1691  0.2113 -0.0146
 5854W        W22328  12.221   8.092   1.915 -0.0903  0.2558 -0.1016
 5855W        W22329   5.863   7.994   1.839 -0.0358  0.0864 -0.1826
 5856W        W22330   0.438  10.847  15.882  0.0891 -0.0540 -0.1154
 5857W        W22331  14.271  13.673   0.971  0.1934  0.0821 -0.0199
 5858W        W22332   4.300  13.004  16.095 -0.0086 -0.1585  0.3165
 5859W        W22333  15.098   7.017   5.669 -0.2282  0.1324  0.3974
 5860W        W22334   2.152   9.855   3.313  0.0251  0.1282 -0.1607
 5861W        W22335   2.167  11.805  11.356  0.1805 -0.0249  0.3834
 5862W        W22336   3.348   7.769  15.323 -0.1339 -0.0694  0.2789
 5863W        W22337  15.636   4.250   5.429 -0.2263 -0.0991 -0.2324
 5864W        W22338   6.323  14.629  11.610  0.1603  0.0791 -0.0448
 5865W        W22339  14.534  12.605  12.060 -0.0336  0.0108  0.2134
 5866W        W22340   4.251   5.694   0.956 -0.2022 -0.2068  0.2051
 5867W        W22341  14.571  16.899  14.456 -0.0242  0.0504  0.0298
 5868W        W22342  14.166  13.841  12.174  0.0849  0.0955 -0.1383
 5869W        W22343   4.479   3.966   2.220 -0.1419 -0.2067  0.1299
 5870W        W22344   6.553   4.794  16.881  0.0760 -0.0626  0.0470
 5871W        W22345  11.806   4.614  12.445  0.3374 -0.0250  0.1044
 5872W        W22346   3.908   0.273  16.016  0.2018 -0.2236 -0.1458
 5873W        W22347  14.599   2.122  15.181  0.1564  0.1077 -0.1365
 5874W        W22348  12.846  15.868  11.613 -0.0121 -0.1213 -0.0446
 5875W        W22349   8.244   3.684  13.719 -0.1292 -0.3609  0.0296
 5876W        W22350   0.954   6.403  16.261  0.0857  0.0971  0.3107
 5877W        W22351  14.716  13.519   1.147 -0.1201  0.2973 -0.1050
 5878W        W22352   4.678   6.541   0.437 -0.1710 -0.0349 -0.0851
 5879W        W22353   1.300   0.290  14.708 -0.1294  0.2296 -0.1651
 5880W        W22354   0.519  15.382   3.288  0.1196 -0.2558 -0.2136
 5881W        W22355  14.066   5.941   4.625  0.0692  0.2215 -0.3855
 5882W        W22356   9.451   9.702  16.396  0.0339 -0.2248  0.0048
 5883W        W22357   7.982   2.017   0.393  0.2519 -0.0350 -0.1186
 5884W        W22358   0.857   7.692   1.616  0.1243 -0.0553  0.0306
 5885W        W22359  13.285  11.656   0.355 -0.0813  0.1750  0.2131
 5886W        W22360   0.685  11.281   1.856  0.0449  0.0082  0.1759
 5887W        W22361  13.497   2.240  13.609 -0.0768  0.0204 -0.1281
 5888W        W22362  13.646   9.168  16.847 -0.1046 -0.0317  0.0559
 5889W        W22363   9.061   8.388   2.573 -0.0458 -0.1336 -0.0473
 5890W        W22364   8.082   2.240   3.130 -0.1208  0.3434  0.1446
 5891W        W22365   4.054   5.954   3.298  0.1525  0.2485 -0.1110
 5892W        W22366  15.662   6.538  15.351  0.0156 -0.0327 -0.2434
 5893W        W22367   1.923   4.845  13.786  0.1796 -0.2341 -0.0948
 5894W        W22368   7.671   0.214   0.008 -0.0934 -0.1643 -0.0867
 5895W        W22369   4.425  13.400  16.734 -0.2936  0.1666 -0.0387
 5896W        W22370  14.101   1.072  13.447  0.1748  0.2117 -0.1387
 5897W        W22371   7.226  11.671  12.933 -0.0869 -0.1251 -0.0072
 5898W        W22372  17.196  15.392  15.854  0.2706 -0.0753 -0.0103
 5899W        W22373  15.031   4.902  12.762  0.2359 -0.1211 -0.0554
 5900W        W22374   5.153  11.625   2.514 -0.1941 -0.1266 -0.1522
 5901W        W22375   9.735  10.567   2.111 -0.0728 -0.0830 -0.1186
 5902W        W22376  10.356   6.418   4.456 -0.2028 -0.1017  0.2396
 5903W        W22377  12.605   3.703  15.374 -0.1059  0.1461 -0.0120
 5904W        W22378  15.052  15.719  14.952  0.1210 -0.0143 -0.0892
 5905W        W22379  11.134   7.113   4.554  0.2667 -0.0347  0.0073
 5906W        W22380   5.833  17.059  16.609 -0.1472 -0.0027  0.1394
 5907W        W22381  13.060  12.740  16.169  0.1645  0.1992 -0.1124
 5908W        W22382  13.078   1.484   4.919  0.2042 -0.1773 -0.0204
 5909W        W22383  10.852   0.895  14.698 -0.1566  0.2541 -0.4350
 5910W        W22384  12.686  15.900   1.466  0.0991 -0.0046 -0.0483
 5911W        W22385  16.496   7.594   1.080 -0.3576 -0.1802  0.0193
 5912W        W22386  10.121  10.782   1.835 -0.1952  0.0087  0.0946
 5913W        W22387  11.952  11.385  14.175 -0.2537  0.0839  0.0753
 5914W        W22388  16.049  15.375  14.778 -0.1533  0.2942 -0.0150
 5915W        W22389   9.751   7.204   3.234 -0.0649 -0.1784  0.0567
 5916W        W22390   6.148  11.243   3.655 -0.0189  0.2580 -0.0529
 5917W        W22391   8.546  14.003  15.561 -0.1251  0.0654  0.1344
 5918W        W22392   7.314   9.533  14.110  0.0667 -0.1073 -0.2911
 5919W        W22393   0.934   3.893   2.292  0.1936  0.0755 -0.1329
 5920W        W22394   4.237   3.608   6.514 -0.1658  0.1491 -0.1522
 5921W        W22395   2.325  13.462   1.808 -0.2024  0.0002 -0.2620
 5922W        W22396   0.660  10.318  16.093  0.0405 -0.2851  0.3826
 5923W        W22397   8.574   9.308  13.718  0.0771  0.0370 -0.0598
 5924W        W22398   2.131  13.544   3.297 -0.2065 -0.0253  0.0237
 5925W        W22399  12.653   9.703   1.324 -0.1194 -0.1721 -0.0354
 5926W        W22400   5.876  17.732   3.471  0.1730 -0.0121 -0.0023
 5927W        W22401   5.335   8.605   0.718  0.1926  0.0799  0.3745
 5928W        W22402  11.536  13.974  16.522  0.0635  0.0271 -0.0380
 5929W        W22403  11.334  11.432   2.710 -0.2041 -0.1150  0.0849
 5930W        W22404   3.023  16.480   2.037  0.1797 -0.0245  0.1802
 5931W        W22405   3.434   5.638   1.804 -0.0206  0.0561  0.0519
 5932W        W22406  11.959   8.656   0.916  0.0015 -0.0082  0.1482
 5933W        W22407  14.508  16.862  14.963 -0.0351 -0.0222  0.0512
 5934W        W22408  15.291   1.355  15.822 -0.1266  0.0712  0.1677
 5935W        W22409   3.038  17.169  13.970 -0.0675 -0.2243  0.2362
 5936W        W22410   9.476   6.420   2.697  0.1850 -0.1045  0.3002
 5937W        W22411  14.447   6.872  14.727  0.1838 -0.0591 -0.0335
 5938W        W22412  10.147  15.717   1.725  0.3121  0.1353 -0.0498
 5939W        W22413   0.184  15.944  13.722  0.1239  0.3440  0.0545
 5940W        W22414  12.243   9.521   1.866  0.1834 -0.0073  0.1197
 5941W        W22415  14.157   2.815   4.130 -0.2569  0.1576  0.0660
 5942W        W22416  15.831   4.322   1.902  0.0039  0.0401 -0.1459
 5943W        W22417   1.887   3.215  13.395  0.1573 -0.0877  0.0695
 5944W        W22418   8.179   8.711   1.016 -0.1879  0.0124  0.1724
 5945W        W22419   5.313  17.474  11.673 -0.0214 -0.0002  0.1363
 5946W        W22420  14.790  12.884   3.514 -0.1727 -0.2949  0.0618
 5947W        W22421  16.011  16.978  15.008  0.1491 -0.1063  0.0317
 5948W        W22422  10.052   8.614   5.806 -0.1568 -0.2164  0.1313
 5949W        W22423   9.962   2.354   4.823  0.2394  0.1657  0.2834
 5950W        W22424   3.240   1.311  12.767 -0.0533 -0.0059 -0.1739
 5951W        W22425   4.013   6.229   2.875  0.0781  0.0297 -0.1123
 5952W        W22426   2.734   5.624   4.733  0.1682  0.1449  0.2282
 5953W        W22427  11.689   9.763   1.688 -0.3640  0.0764  0.1120
 5954W        W22428   2.395  17.785  13.636  0.3996  0.0963 -0.0368
 5955W        W22429   2.473   5.992  12.794 -0.2450 -0.2900 -0.0698
 5956W        W22430   8.909   1.172   2.435  0.0892  0.1231 -0.3604
 5957W        W22431  10.719  16.272   0.058 -0.1332 -0.4080  0.4005
 5958W        W22432  12.535  17.089   5.194  0.1031 -0.1822 -0.2261
 5959W        W22433   2.775  15.748  12.426  0.2626  0.0192  0.0690
 5960W        W22434   8.809   1.168  11.804  0.3249 -0.3137  0.2592
 5961W        W22435   1.299  13.423   3.405 -0.0025 -0.0821 -0.0911
 5962W        W22436   6.906   2.464  12.747  0.2849 -0.1939 -0.0347
 5963W        W22437   4.469   7.679   5.971 -0.1740  0.0192  0.1171
 5964W        W22438   3.225  10.329   2.561 -0.1643 -0.1049  0.0409
 5965W        W22439  13.717   3.681   4.975 -0.0097 -0.2416 -0.1125
 5966W        W22440  15.613  16.216   4.547  0.2208  0.0388 -0.0438
 5967W        W22441  12.378  11.399   5.625 -0.2273  0.0199  0.0717
 5968W        W22442   7.002  16.308   5.527  0.0937  0.1752  0.1306
 5969W        W22443  14.182   6.193   3.648 -0.4569 -0.2731  0.1371
 5970W        W22444  11.056   6.153   0.081  0.2187  0.0802 -0.0354
 5971W        W22445  10.926   9.491  12.566  0.0640 -0.4894  0.1672
 5972W        W22446   2.383  14.111   0.852 -0.0307  0.0961  0.0709
 5973W        W22447   6.406   0.035  14.074 -0.0113  0.2110  0.2689
 5974W        W22448  16.411  12.174  13.129 -0.0777  0.0072  0.0756
 5975W        W22449   3.247  11.626  12.924 -0.0049 -0.1344 -0.5096
 5976W        W22450   3.543   7.642  12.658  0.5034 -0.1616 -0.0758
 5977W        W22451  10.371  11.496  15.065 -0.1449 -0.1332  0.0547
 5978W        W22452  16.057  13.466  14.397  0.0026  0.2239  0.0807
 5979W        W22453  12.952   8.914   3.495  0.0275  0.2621 -0.2182
 5980W        W22454   1.493   1.492   2.952 -0.1609  0.1397 -0.1218
 5981W        W22455   7.647   9.054  14.544 -0.3998 -0.0354  0.0910
 5982W        W22456   8.031  12.284   1.422 -0.3234  0.1755  0.2785
 5983W        W22457  15.451  12.517   3.247  0.2351  0.0832 -0.2464
 5984W        W22458   6.799  15.794   5.539  0.1236 -0.0724 -0.3005
 5985W        W22459  10.255   9.787  12.169 -0.2738 -0.1723  0.0220
 5986W        W22460   8.219   0.270  11.402  0.1667  0.0596  0.3721
 5987W        W22461   1.430  13.831  15.996  0.1092 -0.0456 -0.0384
 5988W        W22462  10.323   9.666  15.488  0.0955 -0.0164  0.0653
 5989W        W22463  10.216  12.177  12.242  0.0075 -0.1647  0.2375
 5990W        W22464  17.264  10.632   2.933 -0.1000  0.4866 -0.0046
 5991W        W22465   2.263   8.292  15.720  0.2439  0.2763  0.0823
 5992W        W22466  12.283   2.686   2.730 -0.3718 -0.1059  0.2218
 5993W        W22467   6.108  16.087   5.042  0.2976 -0.0210 -0.0212
 5994W        W22468  17.065   6.810  15.560  0.1213  0.1556 -0.0197
 5995W        W22469  14.693  16.011   3.711  0.1130 -0.1364  0.2491
 5996W        W22470   4.463   7.855   3.988  0.0538 -0.3760 -0.2411
 5997W        W22471   7.548  14.080  13.946 -0.1407 -0.1482 -0.2578
 5998W        W22472  13.024  17.523   5.360 -0.0255  0.2997 -0.0343
 5999W        W22473   9.401  13.572   5.950  0.0780  0.0151 -0.1888
 6000W        W22474  16.090   3.269  16.274  0.1450  0.0028 -0.0579
 6001W        W22475  11.234   7.683   3.705 -0.0420 -0.2901  0.2036
 6002W        W22476  12.407  11.371  13.084  0.2969  0.4230  0.1721
 6003W        W22477   5.848   8.067  12.938 -0.3352  0.2140 -0.1845
 6004W        W22478   6.308   3.479   2.784  0.0162 -0.2416  0.2497
 6005W        W22479  15.336  14.237  13.049 -0.3842 -0.1296 -0.1732
 6006W        W22480   3.442   8.776   5.443 -0.2450 -0.1072  0.0472
 6007W        W22481  17.422   1.390   1.678  0.0961 -0.1400  0.0824
 6008W        W22482   7.786  13.115  13.837 -0.1167 -0.0978 -0.0575
 6009W        W22483   9.853   7.775  15.533  0.1037  0.1748  0.2984
 6010W        W22484   3.421   1.560   0.422  0.1802  0.0412 -0.2556
 6011W        W22485  13.750   4.074   5.886  0.0861 -0.1339  0.0087
 6012W        W22486  17.449  15.712   6.036  0.0088  0.0370 -0.1715
 6013W        W22487   2.648   0.937   3.306 -0.3938 -0.0325  0.0305
 6014W        W22488   0.340  13.140   2.223 -0.0017  0.0204  0.0458
 6015W        W22489   6.212   0.895  13.383 -0.1613 -0.0235 -0.1876
 6016W        W22490   8.511   1.842  15.375 -0.0208  0.2513 -0.2424
 6017W        W22491   3.824  11.413   2.645  0.1641  0.0509 -0.2767
 6018W        W22492  17.531  12.789  12.490  0.0944  0.1928 -0.0962
 6019W        W22493   8.708   6.322   0.465  0.1219  0.1165 -0.2612
 6020W        W22494   7.443  10.910   3.763 -0.0542  0.2977 -0.0721
 6021W        W22495  12.046   7.452  16.058 -0.0630 -0.0523 -0.2084
 6022W        W22496  12.394  12.127   4.166 -0.1355  0.0995 -0.1240
 6023W        W22497   0.807  16.049   3.117 -0.1730 -0.1490  0.0651
 6024W        W22498   9.179  11.410  16.629 -0.3523 -0.0151 -0.0620
 6025W        W22499  12.293   6.656  15.148 -0.1049 -0.2178 -0.0075
 6026W        W22500   0.483  14.826  13.824 -0.3494 -0.4396  0.0449
 6027W        W22501  17.108   1.788  13.604 -0.2460  0.1306  0.1648
 6028W        W22502   7.387  11.642   5.345  0.0532 -0.1522  0.0533
 6029W        W22503   3.667  10.329   3.431  0.0378 -0.0327  0.0285
 6030W        W22504   4.051   2.478  12.603  0.0853  0.2221 -0.1872
 6031W        W22505  17.277   2.039   3.437 -0.2580 -0.2307 -0.1380
 6032W        W22506  11.629   7.706  15.930  0.1617 -0.0622 -0.2717
 6033W        W22507   4.264   0.673   3.081  0.1423 -0.0004  0.2173
 6034W        W22508   0.929   2.697   1.631 -0.2045  0.0040 -0.0886
 6035W        W22509  16.004   9.069  16.713  0.1890 -0.1165  0.0265
 6036W        W22510  17.235   5.635  14.828 -0.0445  0.5087  0.1365
 6037W        W22511  15.927  11.392   6.485  0.3793  0.1966  0.2224
 6038W        W22512  12.896   8.335  13.609  0.0642  0.0748 -0.3087
 6039W        W22513  14.925   3.542   3.652 -0.0555  0.0041  0.2098
 6040W        W22514  11.713   2.989   4.324  0.0661 -0.2196 -0.0836
 6041W        W22515  11.331  16.849  15.959  0.1541  0.2640 -0.0681
 6042W        W22516   9.974   6.672  12.587  0.0960  0.0810  0.0391
 6043W        W22517  16.362   6.415  13.561  0.2620  0.2171  0.0295
 6044W        W22518  11.103  16.334  16.705 -0.1509  0.1844 -0.1775
 6045W        W22519   9.252  15.885   5.526 -0.0495  0.0529  0.1085
 6046W        W22520   4.309  15.113   0.685  0.0377 -0.2382 -0.0283
 6047W        W22521  10.417   6.267  14.957 -0.0015 -0.2978 -0.0292
 6048W        W22522   7.162  12.888  15.696 -0.0076 -0.2980 -0.1305
 6049W        W22523   5.831  14.698  15.823 -0.0944  0.1401 -0.0896
 6050W        W22524   3.633   8.851  13.947  0.2398  0.1953 -0.0194
 6051W        W22525   0.720   6.962   2.560 -0.1324 -0.1411  0.1663
 6052W        W22526  11.017   9.878  11.812 -0.1061  0.2134  0.0338
 6053W        W22527  13.840   6.770   5.179 -0.2849  0.0434  0.2433
 6054W        W22528   2.401   5.951   1.111 -0.1440 -0.1122  0.0128
 6055W        W22529   2.806   3.895   3.982  0.0736  0.0065 -0.0757
 6056W        W22530   8.501   6.316  13.649 -0.4300  0.0758  0.2420
 6057W        W22531  16.650   1.548  14.055 -0.0292 -0.0351  0.0135
 6058W        W22532   8.905  11.448   3.115  0.0810  0.1431  0.1577
 6059W        W22533  15.141   7.728  14.049 -0.0299 -0.1071  0.1162
 6060W        W22534  13.027  10.335   4.912 -0.3573  0.2447  0.1479
 6061W        W22535  13.337   4.281  13.153  0.3374 -0.2689  0.3081
 6062W        W22536  14.015  10.387  15.424  0.1249  0.2115 -0.0097
 6063W        W22537  14.022   1.487   1.891 -0.0953  0.3355 -0.1601
 6064W        W22538  15.766  16.084  11.417  0.3628  0.0798 -0.0880
 6065W        W22539   4.840   8.228  11.228 -0.0021 -0.2043  0.0411
 6066W        W22540  12.575  16.115   5.676 -0.2822  0.0812 -0.1591
 6067W        W22541  11.409   4.056   3.245  0.1026 -0.0133 -0.0173
 6068W        W22542  12.532  16.157   1.887  0.1337  0.4845  0.1158
 6069W        W22543   1.811   8.165   1.250  0.2255 -0.1379  0.0129
 6070W        W22544  17.672  15.356   5.131  0.0479  0.0550 -0.0157
 6071W        W22545   6.565   2.483   3.480 -0.1535  0.2084 -0.0948
 6072W        W22546  16.124  12.948  12.550  0.2976 -0.0969 -0.3576
 6073W        W22547   1.999   7.635   2.922  0.0481  0.0263 -0.1870
 6074W        W22548  16.652  15.002   4.580 -0.3678  0.0091 -0.0901
 6075W        W22549  16.076   8.216   0.349  0.0477  0.1272  0.0274
 6076W        W22550   5.598  11.813   4.142  0.2329 -0.0963  0.0949
 6077W        W22551  16.719   4.893  16.562 -0.2672  0.0075 -0.1036
 6078W        W22552  11.590   5.687   5.607  0.2934  0.2275 -0.2627
 6079W        W22553   0.821  15.799  15.343 -0.4562  0.0092  0.2405
 6080W        W22554   3.683   5.705  16.076 -0.1348  0.0760 -0.0606
 6081W        W22555  13.126  11.013  12.103  0.1942  0.1666 -0.2068
 6082W        W22556   0.697   9.937   1.615  0.3358 -0.0284 -0.1667
 6083W        W22557  14.661  17.803   3.971  0.1403 -0.2719 -0.1219
 6084W        W22558  15.857  17.544   4.789 -0.1590  0.2196  0.1547
 6085W        W22559  17.457  13.188  15.880  0.0646 -0.0093  0.0205
 6086W        W22560  11.261  14.080   0.378 -0.0392  0.1166 -0.3426
 6087W        W22561  14.506   3.371   3.020 -0.1428  0.2368  0.0601
 6088W        W22562  14.747   7.803  15.428  0.1665  0.0701  0.1454
 6089W        W22563   3.052  11.980  13.212 -0.1121  0.4067  0.0638
 6090W        W22564   7.514  11.030   0.534 -0.0140 -0.0627  0.1367
 6091W        W22565   7.138   4.605   2.823 -0.0120  0.0972 -0.2276
 6092W        W22566   5.970  16.660   4.090 -0.1410 -0.1223  0.2793
 6093W        W22567   1.732   4.518  16.502  0.1271 -0.0668  0.0012
 6094W        W22568  16.778  11.908   4.153  0.0487  0.1303  0.0080
 6095W        W22569   8.603  16.965   0.196 -0.0434 -0.2956 -0.1528
 6096W        W22570   0.517   9.332   3.221  0.2222 -0.2057  0.1729
 6097W        W22571  14.300  11.803   5.392  0.0525  0.1322  0.2109
 6098W        W22572   7.493   6.408  11.764  0.1455 -0.1220  0.1158
 6099W        W22573   6.853   8.136   2.378 -0.3769  0.2636 -0.0046
 6100W        W22574   9.628  15.013  16.165 -0.1462  0.1169  0.2650
 6101W        W22575   9.748  14.957  13.934 -0.1580  0.1873 -0.0789
 6102W        W22576   2.841   4.048  15.047 -0.0503 -0.0146  0.2607
 6103W        W22577   6.300  10.064   0.957  0.2082  0.1733 -0.1084
 6104W        W22578  15.711  16.168   0.967  0.0187 -0.3560 -0.3481
 6105W        W22579  15.709  11.944   0.933 -0.0753 -0.3279  0.1785
 6106W        W22580   1.343   3.957  13.492  0.1654 -0.1481  0.0900
 6107W        W22581   5.778   1.284  12.794  0.0272 -0.0501 -0.2990
 6108W        W22582   0.878   9.677   2.062  0.1038 -0.0448  0.0901
 6109W        W22583  13.062   4.985   1.211  0.1743 -0.3447 -0.2329
 6110W        W22584   7.734  10.686   3.402 -0.0238  0.0517  0.0386
 6111W        W22585  10.266   5.414  16.677  0.0670 -0.1095  0.0161
 6112W        W22586   0.960   2.058   5.594  0.0556 -0.2504 -0.0144
 6113W        W22587  12.688  16.841   0.614  0.2609  0.3351 -0.1093
 6114W        W22588   6.233   4.756   3.590  0.0002 -0.0900 -0.0867
 6115W        W22589   7.977  10.908   5.878  0.0549 -0.1922 -0.1712
 6116W        W22590  13.263  15.555  12.270  0.2377  0.4650  0.0610
 6117W        W22591  16.396   0.534   3.980  0.1084 -0.0562 -0.1793
 6118W        W22592   7.917   3.765   1.938  0.1065 -0.0745  0.1148
 6119W        W22593   7.497   8.984  15.472  0.1467  0.0425  0.2134
 6120W        W22594   1.356  10.994  12.917  0.2434  0.1024  0.1871
 6121W        W22595  10.114   6.458   3.474 -0.4564 -0.2475  0.1980
 6122W        W22596  15.076   7.189   4.356 -0.5792 -0.1636  0.1261
 6123W        W22597  11.928  10.673  12.981 -0.3415 -0.0767  0.0413
 6124W        W22598   7.641   3.379   5.032 -0.3116  0.0811 -0.0949
 6125W        W22599   7.393   3.896   5.020  0.1110 -0.1992 -0.0391
 6126W        W22600   6.711  14.040   4.607  0.1517  0.1817 -0.0316
 6127W        W22601  15.914  10.320  14.209 -0.1601 -0.0849 -0.2996
 6128W        W22602   0.719   2.134   0.851  0.0415  0.1025 -0.3747
 6129W        W22603  12.755  12.016   4.455 -0.1235 -0.0770 -0.1317
 6130W        W22604  13.886  10.258   4.700 -0.1446  0.0493 -0.0555
 6131W        W22605  12.655   3.188  12.135 -0.1981  0.1019  0.1285
 6132W        W22606  16.239   7.103   3.260 -0.1716 -0.1295  0.0910
 6133W        W22607  11.400   9.826   5.212  0.0062 -0.1450 -0.1542
 6134W        W22608   9.255  11.839   1.633  0.3426 -0.1078  0.0682
 6135W        W22609   4.304   5.422   2.538  0.2221 -0.0223  0.0258
 6136W        W22610   8.704   6.966   2.578  0.3682 -0.2470 -0.2418
 6137W        W22611   9.723   8.850   1.966 -0.0802  0.0183  0.3791
 6138W        W22612   5.562   3.440   2.509  0.0122 -0.3775 -0.3610
 6139W        W22613   9.867   5.950   2.199  0.0601  0.0532 -0.2171
 6140W        W22614  15.942   7.896  13.100 -0.0783 -0.0277  0.1480
 6141W        W22615  16.911   8.645   0.745  0.0127  0.4870  0.1600
 6142W        W22616   6.436  12.266  13.468  0.3589  0.0246 -0.0404
 6143W        W22617  14.886  13.378   1.721 -0.0928 -0.0548 -0.1623
 6144W        W22618   7.344   5.642   2.156  0.2934  0.0491 -0.0737
 6145W        W22619   5.775   0.468  11.198  0.0482  0.2206  0.0883
 6146W        W22620   2.363  16.097  16.730 -0.0241 -0.0677 -0.0810
 6147W        W22621   3.945   5.005  13.351  0.0049  0.3176  0.0841
 6148W        W22622  14.525  15.583  16.394 -0.5674 -0.2513  0.1033
 6149W        W22623  12.799   1.961   1.136 -0.1095 -0.2230 -0.1000
 6150W        W22624   1.556  16.346   0.204  0.0740  0.2392  0.0726
 6151W        W22625  14.631   3.489   4.044  0.0673 -0.0097 -0.0993
 6152W        W22626  16.469   7.075  16.616  0.0686  0.3427 -0.0317
 6153W        W22627  11.392  11.428  15.416  0.1412  0.1393 -0.3965
 6154W        W22628  10.105  15.019  15.220 -0.2301 -0.1628  0.2211
 6155W        W22629  14.193   0.186  14.710  0.1479  0.0845 -0.1325
 6156W        W22630   7.972  12.248   4.700 -0.2808 -0.5622  0.0395
 6157W        W22631   8.524  17.820  16.381 -0.0734 -0.1746 -0.1241
 6158W        W22632   5.335   6.676   3.544  0.1540 -0.2434 -0.0133
 6159W        W22633  11.469  15.402   1.218 -0.0262  0.0108 -0.0655
 6160W        W22634  13.301  11.971  13.360 -0.1454  0.0968 -0.0080
 6161W        W22635  17.331  16.967  12.494  0.3900  0.0439  0.2053
 6162W        W22636   4.125   1.347  13.146 -0.1251  0.1282  0.2020
 6163W        W22637   6.618  11.665   2.476  0.0573  0.0905 -0.4052
 6164W        W22638   4.578  17.397   4.513 -0.1047  0.0779  0.2441
 6165W        W22639   4.272   2.602   1.592  0.0140 -0.1211 -0.1586
 6166W        W22640   3.541   7.834  16.576 -0.0269 -0.0041  0.0934
 6167W        W22641   9.778  12.316   0.697 -0.1051 -0.0627  0.4391
 6168W        W22642   9.740   6.379  15.914 -0.0781  0.3196 -0.0840
 6169W        W22643  14.821  17.397   1.524 -0.0226 -0.0165  0.0245
 6170W        W22644  16.353  16.116  12.385  0.1922 -0.1653 -0.1208
 6171W        W22645  11.690   9.500   5.539  0.0977  0.3352 -0.1867
 6172W        W22646   7.054  14.430  15.860  0.2212 -0.1939  0.4181
 6173W        W22647  10.087  10.383  15.030  0.0350  0.1863 -0.1314
 6174W        W22648   5.446   6.432  14.307  0.1200  0.2992  0.1121
 6175W        W22649   3.149   5.405  14.900  0.1082 -0.0594 -0.2169
 6176W        W22650   8.931  14.723  13.613 -0.1848 -0.0164 -0.0822
 6177W        W22651   8.822  16.776  11.341  0.1264 -0.0059  0.1533
 6178W        W22652  16.734   6.802   1.929  0.1657  0.0863  0.0762
 6179W        W22653   7.757   0.335   5.122 -0.0776  0.0441 -0.0021
 6180W        W22654   7.858   8.685  12.867  0.3099 -0.0590  0.2754
 6181W        W22655   3.469   7.510  14.817 -0.2458 -0.1413 -0.0904
 6182W        W22656   2.817   3.249  16.094 -0.2036  0.2020 -0.1320
 6183W        W22657   6.643   8.433  15.367 -0.0471 -0.0981 -0.2110
 6184W        W22658  11.271   6.735   2.903  0.0301 -0.2818  0.2128
 6185W        W22659   5.418  14.278  12.399 -0.2359  0.0978  0.0506
 6186W        W22660  14.488   9.844   0.896 -0.0459  0.1320 -0.0196
 6187W        W22661   0.665   1.251   5.029 -0.1273  0.0084 -0.1137
 6188W        W22662   0.940   1.461   2.968 -0.3105  0.2299  0.0162
 6189W        W22663  13.943  15.280   3.945 -0.1087  0.0328 -0.1369
 6190W        W22664   1.083   4.916   3.613  0.1108  0.2377 -0.1604
 6191W        W22665  15.736   9.294   3.410  0.1156  0.0214  0.2819
 6192W        W22666   4.787   3.220   3.258 -0.2401 -0.0693 -0.0382
 6193W        W22667   6.975   6.467  11.517  0.1946 -0.2645  0.3206
 6194W        W22668   6.972   0.827  14.777 -0.0507 -0.2920  0.0883
 6195W        W22669   4.061  17.148  12.713  0.3724 -0.0720  0.0101
 6196W        W22670   4.024   8.397  14.153  0.2174 -0.0429  0.1504
 6197W        W22671   5.940  12.057   0.105 -0.2210 -0.0953  0.1242
 6198W        W22672   3.430   4.594  15.046 -0.1817 -0.0829 -0.0918
 6199W        W22673   9.009   0.283   5.291 -0.1687  0.3778 -0.2335
 6200W        W22674  10.807   1.353  11.817 -0.0378 -0.2398  0.0174
 6201W        W22675  11.019  16.488   4.865  0.0838  0.3157  0.0756
 6202W        W22676   6.684  16.379  11.651  0.0284 -0.1468 -0.2222
 6203W        W22677   9.347  14.521  13.332  0.2495  0.0946 -0.1752
 6204W        W22678   5.811  11.821  14.153 -0.0551  0.0194  0.0445
 6205W        W22679   6.871  10.847   2.159  0.2376 -0.2671 -0.1743
 6206W        W22680   7.959  13.030  11.243 -0.0735  0.2118  0.0435
 6207W        W22681   4.405   5.547   3.294 -0.0627  0.1987 -0.0174
 6208W        W22682   5.008  14.266  15.842  0.0601 -0.1290 -0.3971
 6209W        W22683  16.854  13.011  14.269 -0.1777  0.0988  0.2316
 6210W        W22684   1.237  12.799  13.498  0.0735 -0.0854 -0.0461
 6211W        W22685  17.361  13.333  14.142  0.0086 -0.2277  0.2836
 6212W        W22686  12.248  14.101  14.333  0.3029  0.0773 -0.0081
 6213W        W22687   0.469  16.420   4.943 -0.0009  0.0323  0.3163
 6214W        W22688   5.356   0.411  15.852 -0.2654 -0.1749 -0.5076
 6215W        W22689  12.459   0.897  11.614 -0.1043  0.3261  0.2258
 6216W        W22690  11.241   2.960  12.667 -0.2251  0.0782  0.1120
 6217W        W22691  15.803   5.606  14.415 -0.2495 -0.0197 -0.3287
 6218W        W22692   7.577  15.558   2.385  0.2944 -0.0865  0.4542
 6219W        W22693  13.013   9.513   4.347 -0.0671  0.1318  0.2418
 6220W        W22694   4.786  17.408  12.812  0.0266 -0.0711 -0.3616
 6221W        W22695  17.519   5.177  14.939  0.3093  0.3899  0.3300
 6222W        W22696   4.039   2.134   3.368 -0.0627 -0.0843 -0.3640
 6223W        W22697  11.811   3.078   1.949  0.0449 -0.1407  0.0490
 6224W        W22698  15.927  11.345   4.019  0.2338  0.0168 -0.1970
 6225W        W22699   3.045   0.668   2.680  0.1240 -0.0381  0.1034
 6226W        W22700  12.421   1.738  15.203  0.1716  0.0916  0.3233
 6227W        W22701   1.453  14.794   0.865 -0.1624 -0.1134 -0.1012
 6228W        W22702   6.161   7.543   0.949  0.1906  0.0200 -0.1063
 6229W        W22703   6.289  13.255   4.767 -0.1575  0.2094  0.0199
 6230W        W22704  11.375  12.868  11.829  0.1547  0.0743 -0.1508
 6231W        W22705   3.307  12.913   3.305  0.2346 -0.0388 -0.2117
 6232W        W22706   8.443  12.770   0.420 -0.1916  0.2506 -0.0412
 6233W        W22707  10.916  11.061  12.591  0.1405 -0.1228 -0.2409
 6234W        W22708   9.248  10.028  15.180 -0.1145 -0.0663 -0.2212
 6235W        W22709  13.497  13.754   1.953  0.1129 -0.0762  0.0231
 6236W        W22710  15.294  14.095   4.190 -0.0335 -0.1867  0.2289
 6237W        W22711   9.755   9.538   6.043  0.0599 -0.2326  0.0281
 6238W        W22712   6.487  11.032  15.270 -0.1184  0.1644  0.1559
 6239W        W22713  15.405   1.519   0.937  0.2022 -0.1287  0.1205
 6240W        W22714  15.863  10.615  11.622  0.3853  0.0191 -0.2205
 6241W        W22715   2.798   5.730  12.433 -0.0903  0.0179  0.2913
 6242W        W22716  14.856   7.080   3.097  0.3558  0.0058  0.0299
 6243W        W22717  12.800   3.359   3.953 -0.0181  0.1389  0.0406
 6244W        W22718   2.616   1.364   0.843  0.0057  0.4466  0.1382
 6245W        W22719  12.213   7.656  13.309 -0.0455 -0.0625  0.1426
 6246W        W22720   6.886   8.186   5.351  0.3192 -0.2077 -0.0399
 6247W        W22721   7.005   5.949  12.782  0.1640 -0.2331 -0.1352
 6248W        W22722  16.609  13.069  15.602 -0.0677  0.0723  0.0864
 6249W        W22723  10.776  11.454   0.129  0.2633  0.0900 -0.1326
 6250W        W22724   3.198  17.078  16.794  0.1091  0.1043  0.3000
 6251W        W22725  14.968   9.826   5.023  0.0008 -0.0488 -0.1521
 6252W        W22726   3.920   3.116   4.347  0.2793  0.3649  0.1377
 6253W        W22727   6.375  11.448  16.777  0.3565 -0.0899 -0.1001
 6254W        W22728   6.933  16.260  16.198 -0.0844  0.1918 -0.0634
 6255W        W22729  10.847  10.618  14.645 -0.0235  0.1568 -0.3828
 6256W        W22730   7.718  13.310   0.912 -0.1598 -0.1864  0.0083
 6257W        W22731   4.744   6.226   1.675  0.2631  0.1003 -0.0610
 6258W        W22732  13.401   1.000   4.580 -0.1516 -0.2657  0.1147
 6259W        W22733   2.108  12.840   4.670 -0.0431  0.0332  0.0826
 6260W        W22734  10.163   5.249   2.157 -0.0375 -0.3349 -0.1131
 6261W        W22735   6.486   5.163   1.941  0.1263 -0.0641  0.1142
 6262W        W22736   3.819   9.148   1.469 -0.0788  0.1823  0.1194
 6263W        W22737  13.806  16.628  12.590 -0.0451  0.2037  0.0711
 6264W        W22738  15.711   8.343  16.049  0.2059  0.0975 -0.2543
 6265W        W22739   9.189   5.606   5.887 -0.0813 -0.1785 -0.1768
 6266W        W22740   7.531   7.416   2.127 -0.1748  0.1803 -0.0177
 6267W        W22741   0.529  10.469  14.500 -0.0943  0.0693 -0.1704
 6268W        W22742   4.268   9.290   1.406 -0.1365  0.1632  0.1327
 6269W        W22743   4.090   8.661  11.868  0.1836 -0.1931 -0.1631
 6270W        W22744  10.278   1.735  16.642  0.0222  0.0219 -0.1905
 6271W        W22745   3.088   9.510  15.014 -0.1608  0.0583 -0.2351
 6272W        W22746   9.174   9.521   3.704 -0.1635  0.0416 -0.0985
 6273W        W22747  15.297   3.532  13.080  0.0709 -0.0935  0.0688
 6274W        W22748   1.589   3.272  15.229 -0.0215 -0.2346 -0.0927
 6275W        W22749   8.626  15.231   5.750 -0.3069  0.0071  0.0586
 6276W        W22750  17.431   1.728   3.014 -0.3659  0.1816  0.3002
 6277W        W22751  10.964  16.652   3.995 -0.2349 -0.1713  0.1070
 6278W        W22752   0.774   6.604  13.272 -0.2619 -0.2101 -0.0159
 6279W        W22753   7.615   3.988   3.270  0.1470  0.0167  0.1970
 6280W        W22754   1.724   9.403   0.724  0.3758  0.1891  0.0469
 6281W        W22755  17.730   1.865  15.055  0.1400 -0.3634  0.0369
 6282W        W22756   2.554  10.944  12.876  0.2583 -0.0957 -0.1641
 6283W        W22757   5.611   5.959   3.441 -0.3602 -0.2310 -0.3364
 6284W        W22758   3.205   1.712   1.641 -0.2019 -0.0455 -0.4461
 6285W        W22759   2.553   6.414   0.557  0.2567 -0.3147 -0.1233
 6286W        W22760  14.192   6.333   4.133  0.0622  0.0436  0.0165
 6287W        W22761   8.369  10.291  16.479 -0.1156 -0.2665 -0.0852
 6288W        W22762  10.938   0.231  13.360  0.1000  0.3860  0.0573
 6289W        W22763  15.119  10.170  16.570 -0.0109  0.0696 -0.1424
 6290W        W22764   5.881   1.800  15.390 -0.1606 -0.0105  0.0715
 6291W        W22765  13.581  17.072  13.026 -0.0205  0.0866 -0.0830
 6292W        W22766   1.212   6.606   5.108  0.1508 -0.2143 -0.1527
 6293W        W22767   5.403   8.292   1.562 -0.0145  0.0839 -0.2785
 6294W        W22768  15.393  14.290   0.427  0.0913 -0.1279 -0.1444
 6295W        W22769  14.370  17.337  11.994 -0.1135  0.2109  0.2573
 6296W        W22770  16.485   5.627   4.735  0.0492  0.0414  0.2008
 6297W        W22771  13.952  14.133  16.081  0.0646 -0.4017 -0.1692
 6298W        W22772  12.640  16.692  16.145 -0.0880  0.1735  0.1230
 6299W        W22773   2.965  16.387  15.118 -0.0682  0.1455  0.0569
 6300W        W22774  10.254  15.578   4.376 -0.0779 -0.2516  0.1029
 6301W        W22775   8.933   3.226  16.599 -0.0161 -0.0121 -0.2158
 6302W        W22776  12.533  12.112   0.772  0.3220  0.1795 -0.2858
 6303W        W22777  11.997  16.425   1.939  0.1106 -0.0054 -0.0157
 6304W        W22778  14.581   2.070   1.497 -0.2048 -0.2157  0.4570
 6305W        W22779  13.455  14.517   5.686  0.1069  0.0688  0.0328
 6306W        W22780  14.364   9.078   5.402  0.1956 -0.2961 -0.0393
 6307W        W22781   1.571  14.304   5.425 -0.1024 -0.2369  0.0645
 6308W        W22782   8.533  15.453   1.560 -0.1161  0.1978 -0.1492
 6309W        W22783  14.367  10.252   2.177 -0.1650  0.4464 -0.0100
 6310W        W22784  16.303  14.857  12.731 -0.0235  0.4197 -0.0272
 6311W        W22785  14.227   5.230  15.484 -0.0572  0.1419 -0.0129
 6312W        W22786  10.350   0.837  15.511  0.2666 -0.1482 -0.1431
 6313W        W22787  16.678   5.531   1.694  0.0442  0.0756 -0.1556
 6314W        W22788   1.647   9.263  12.645  0.1805  0.0174  0.0873
 6315W        W22789  14.050  12.094  12.697  0.2202  0.1460  0.3371
 6316W        W22790  11.410  11.964  16.869  0.1941  0.0257 -0.1125
 6317W        W22791   9.892   6.085   4.826 -0.0615  0.1326  0.0241
 6318W        W22792   6.453   8.534   2.836 -0.1127 -0.0531 -0.4123
 6319W        W22793  14.116   9.901  11.672 -0.2304 -0.1466 -0.0117
 6320W        W22794  10.782   7.025   4.080 -0.1658 -0.1377  0.0013
 6321W        W22795  12.918  10.526  12.976 -0.0984  0.1463 -0.0705
 6322W        W22796  17.617   0.041   0.291  0.2412 -0.0440 -0.0660
 6323W        W22797  17.798  11.082  16.773  0.1721  0.0365 -0.0796
 6324W        W22798  14.618   8.028   5.228 -0.0197 -0.2472  0.0621
 6325W        W22799   6.248  14.237  11.931  0.1765  0.0878 -0.0506
 6326W        W22800   8.673   2.140   4.449  0.1626 -0.2865  0.2712
 6327W        W22801   3.246   0.795   1.296  0.2299 -0.0271 -0.1624
 6328W        W22802  16.573   0.673   6.034  0.1274 -0.1220  0.0734
 6329W        W22803   3.667  17.820   3.555  0.0972  0.3685  0.0430
 6330W        W22804   2.869  17.782  13.757  0.0263  0.0882  0.0750
 6331W        W22805   0.652   6.755  12.587  0.1630  0.3806 -0.3057
 6332W        W22806  12.346   2.862  15.420 -0.2461  0.1624  0.1393
 6333W        W22807  17.178  11.338   2.354  0.2115 -0.0185  0.0950
 6334W        W22808   4.864   4.391   2.095  0.1804  0.0550 -0.1441
 6335W        W22809  10.953   1.802   1.093  0.1794  0.1414 -0.2205
 6336W        W22810   7.118  17.394   4.069  0.0787 -0.0996  0.2262
 6337W        W22811  17.250  12.699  11.157  0.5046  0.1692 -0.2584
 6338W        W22812  11.006   3.257   2.325 -0.2205 -0.3632 -0.0929
 6339W        W22813   0.648   9.550   0.350 -0.0375 -0.0262  0.0762
 6340W        W22814   0.835  17.489   0.928  0.1241  0.0393  0.2852
 6341W        W22815   7.979  10.025   3.816  0.0451  0.0859 -0.1612
 6342W        W22816  17.571  11.623   0.711 -0.0130  0.1111  0.0557
 6343W        W22817  16.290  15.143  13.804 -0.3162  0.0781 -0.0055
 6344W        W22818   8.059  15.296  12.749  0.0722  0.1704  0.0346
 6345W        W22819   4.595  13.771  14.431 -0.0755  0.1462 -0.3949
 6346W        W22820  16.116  16.252   1.461 -0.1270 -0.0518 -0.0977
 6347W        W22821  15.359   0.612   2.104 -0.0555  0.0025  0.0942
 6348W        W22822  16.947   5.335  12.303  0.2996 -0.0949  0.0803
 6349W        W22823   7.476  14.960   0.202 -0.1671 -0.2168 -0.0253
 6350W        W22824   8.034  10.191  11.985  0.0895 -0.1225  0.0185
 6351W        W22825  11.437  15.411   4.287 -0.0051  0.0023 -0.1094
 6352W        W22826  10.081  11.297  16.755  0.0671 -0.0954  0.0301
 6353W        W22827   8.319   5.422   4.464 -0.3474  0.1259 -0.0175
 6354W        W22828   3.258  13.114   4.946 -0.0153  0.0762 -0.2477
 6355W        W22829  14.977  13.900   1.528 -0.0437  0.0840 -0.3374
 6356W        W22830   3.112   4.077  13.911 -0.1458  0.1343 -0.0222
 6357W        W22831   4.494   3.939   1.706  0.0365 -0.0151 -0.2076
 6358W        W22832   2.744   2.415  14.724  0.2795 -0.1366 -0.1319
 6359W        W22833   7.090   8.484   1.587  0.0607  0.1567 -0.1040
 6360W        W22834   6.934  14.266   1.120 -0.0751 -0.1212 -0.0500
 6361W        W22835  12.793   4.017   1.897 -0.0054  0.0943 -0.2865
 6362W        W22836   5.325   7.727  16.284 -0.1747 -0.1256 -0.1065
 6363W        W22837   2.854   8.765  13.501  0.2194 -0.2375  0.0942
 6364W        W22838   1.513   5.532   2.784  0.1230  0.0898  0.1425
 6365W        W22839  10.181  13.401   3.001  0.0306 -0.0747  0.3623
 6366W        W22840  14.377  16.001   5.466 -0.2335  0.1542 -0.2084
 6367W        W22841   1.734   6.557   5.336 -0.1661 -0.0540  0.2473
 6368W        W22842   9.759   6.720  11.945  0.0369  0.0904 -0.3145
 6369W        W22843  13.184  13.707  11.828 -0.0060 -0.1679  0.0977
 6370W        W22844   8.042   5.325   3.596  0.0463  0.1926  0.1671
 6371W        W22845   9.134   0.520   5.760 -0.0579 -0.1123  0.0769
 6372W        W22846   6.889   3.973  13.151 -0.0418  0.0163  0.1245
 6373W        W22847  16.855   6.440   2.773 -0.0187  0.1176  0.1683
 6374W        W22848   5.253  14.937  13.169 -0.0976  0.0299 -0.0657
 6375W        W22849  14.199  14.178   2.438  0.1794 -0.0861 -0.1083
 6376W        W22850   6.742   1.929  12.156 -0.1006  0.1243  0.2589
 6377W        W22851   5.899   5.362  15.345 -0.2067 -0.2283 -0.0392
 6378W        W22852   4.242   9.232   3.173 -0.1018  0.4087 -0.2900
 6379W        W22853   0.907  13.556  14.187 -0.0904  0.1085  0.1217
 6380W        W22854  17.253   9.701   5.393 -0.1171  0.1953  0.2270
 6381W        W22855   2.130  12.284   0.218  0.4300  0.0136  0.2273
 6382W        W22856  14.571  17.108  13.964 -0.1471 -0.1035  0.0327
 6383W        W22857   9.648   0.721   0.203 -0.1517 -0.0428  0.2048
 6384W        W22858  10.592  12.406  16.886 -0.2337  0.4046 -0.3294
 6385W        W22859   6.880   7.398  12.346 -0.0048  0.1096 -0.0216
 6386W        W22860   9.448   1.097   2.226 -0.1743  0.0951 -0.2146
 6387W        W22861   0.877   9.643   2.548 -0.0537 -0.0867 -0.0411
 6388W        W22862   1.578   7.413   2.657  0.1984 -0.2190 -0.0225
 6389W        W22863  13.790   3.651  15.653 -0.0196  0.0384  0.1535
 6390W        W22864  15.968   2.900  14.287 -0.0863 -0.1540  0.0726
 6391W        W22865  15.732   8.956  15.118 -0.1049 -0.2359 -0.1272
 6392W        W22866  17.047   6.016  13.403 -0.1078 -0.0178 -0.0283
 6393W        W22867   6.605   2.840  16.396 -0.1404 -0.1525  0.1054
 6394W        W22868  13.726   2.747   2.316 -0.0646 -0.0293  0.0761
 6395W        W22869  16.566  15.149   2.326  0.0554  0.0722 -0.2241
 6396W        W22870   3.156   5.217  13.080 -0.0894  0.0728 -0.1777
 6397W        W22871   6.475  13.925  13.751  0.0026 -0.4156 -0.0915
 6398W        W22872   6.961   1.211  12.790 -0.0309  0.0053  0.0609
 6399W        W22873  10.821   3.735  12.111  0.1364  0.3257  0.1715
 6400W        W22874  11.212  10.818   4.329  0.1116  0.0909  0.1695
 6401W        W22875  10.871  12.956  11.925 -0.0416  0.2228 -0.0044
 6402W        W22876  12.817   5.856   5.191 -0.0012  0.2950 -0.1248
 6403W        W22877   4.921  17.262  14.978 -0.0334 -0.2542 -0.0173
 6404W        W22878  11.675   9.361  11.945 -0.3381 -0.0606 -0.1685
 6405W        W22879  13.156   7.634   1.232  0.2852 -0.1882  0.1924
 6406W        W22880  17.787   3.769   6.400  0.1028  0.1722 -0.1019
 6407W        W22881   4.075   8.075  14.982 -0.0346  0.0593  0.0998
 6408W        W22882   3.687   7.297   3.553 -0.2859 -0.1532 -0.1971
 6409W        W22883   0.799  13.728  12.266  0.2244  0.0397  0.0538
 6410W        W22884  13.288   1.857   1.192  0.2537  0.0584 -0.0778
 6411W        W22885  12.048   6.741   0.629  0.1810 -0.1624  0.0659
 6412W        W22886   2.558   4.784  14.555  0.1594  0.1591  0.0681
 6413W        W22887   1.851  16.858   4.836  0.1735  0.2674 -0.2140
 6414W        W22888  17.426   0.479   0.104 -0.0490 -0.1305  0.3911
 6415W        W22889   7.399  15.962   5.280  0.1258 -0.0686 -0.2351
 6416W        W22890  11.398  10.661  13.541  0.1404 -0.1489 -0.4082
 6417W        W22891  11.074   3.927  12.522  0.0722 -0.0237  0.0654
 6418W        W22892   2.157  16.908  13.261 -0.3788  0.2146 -0.1783
 6419W        W22893  10.283   3.565   1.903  0.0772 -0.3246 -0.0415
 6420W        W22894   4.446   7.223   4.672  0.0142  0.4411 -0.0688
 6421W        W22895   8.888  10.678   3.608 -0.3368 -0.1663  0.0962
 6422W        W22896  15.837  10.944   4.792  0.2430 -0.1021  0.1958
 6423W        W22897  13.986  17.738   5.269  0.1895  0.4652 -0.1905
 6424W        W22898   2.138  11.316   2.662 -0.1540  0.2295  0.3332
 6425W        W22899   5.195  11.396   1.455 -0.1408 -0.0700  0.0019
 6426W        W22900  17.642  17.008  15.628  0.1161  0.0617 -0.2064
 6427W        W22901  11.130   2.040  13.023  0.1906  0.0277 -0.0603
 6428W        W22902   1.583   8.329  13.367  0.2623 -0.3268 -0.1375
 6429W        W22903  16.883  12.728   1.269 -0.1858 -0.1325 -0.0257
 6430W        W22904  11.819  10.883   3.528 -0.0505 -0.0808 -0.1111
 6431W        W22905   2.326  12.122   0.713 -0.0965  0.1750 -0.2972
 6432W        W22906  16.366  10.041  16.806  0.0802 -0.1330 -0.1279
 6433W        W22907   6.460  10.301   0.486 -0.0391  0.0116 -0.0433
 6434W        W22908  15.237  17.620  13.630 -0.0666 -0.1561 -0.1388
 6435W        W22909   4.782  17.150   0.904 -0.2542  0.0393  0.0089
 6436W        W22910   3.294  12.758   0.164  0.0141  0.1148 -0.1772
 6437W        W22911   5.707  10.160  14.593 -0.0790  0.0298 -0.0154
 6438W        W22912   7.661   9.582   0.506 -0.2725 -0.1291 -0.0215
 6439W        W22913   0.204   6.486  14.522 -0.0301 -0.1121 -0.1734
 6440W        W22914   0.393  12.384  13.978 -0.2912 -0.1349 -0.1883
 6441W        W22915  12.407  16.895  12.875  0.0143  0.0857 -0.1043
 6442W        W22916   9.782   8.076   6.422 -0.2305 -0.2142  0.1300
 6443W        W22917  10.591  14.123   2.586 -0.1330  0.3136 -0.0203
 6444W        W22918  17.752   6.333  15.367  0.1395 -0.1789 -0.1413
 6445W        W22919   6.774   6.429   5.376 -0.0066 -0.0626  0.2161
 6446W        W22920   1.815   8.557   2.515  0.1241 -0.0461 -0.1484
 6447W        W22921  11.124   3.617   5.307 -0.0391  0.0351  0.0576
 6448W        W22922  13.073  15.069  13.034  0.0810  0.0108 -0.1023
 6449W        W22923   2.737  10.907  13.856  0.1179 -0.1039  0.0969
 6450W        W22924  10.497   7.908   0.334 -0.1510  0.1582 -0.1958
 6451W        W22925   9.233  12.144   2.659 -0.0596  0.0510 -0.2718
 6452W        W22926   6.562  11.304  14.182 -0.0258  0.1278 -0.0080
 6453W        W22927   3.730  16.361  12.415  0.0147  0.1986  0.0548
 6454W        W22928  11.456   8.124  14.311 -0.1453 -0.0154 -0.2761
 6455W        W22929   9.051   8.308  15.136 -0.0373  0.1104  0.0630
 6456W        W22930  10.822  12.612  14.179  0.0170  0.3070 -0.2321
 6457W        W22931   0.171   6.176  16.292  0.0078 -0.1763 -0.0269
 6458W        W22932  10.824   2.763  15.864  0.1182  0.2883  0.1875
 6459W        W22933   8.042   9.436   3.852  0.2212  0.2102  0.1121
 6460W        W22934  13.293   4.187   5.917  0.0791 -0.5556  0.2694
 6461W        W22935   4.058  14.298   5.751  0.0203 -0.2358 -0.1288
 6462W        W22936  10.871   4.671  15.537 -0.0251  0.0994  0.1973
 6463W        W22937   1.175   1.834   3.234 -0.0538 -0.1361 -0.0161
 6464W        W22938   2.673  14.103   4.882 -0.0185  0.1500  0.2844
 6465W        W22939   4.942   7.515   3.128  0.1157  0.1676  0.0141
 6466W        W22940   2.932  16.472  13.895 -0.1345 -0.0752 -0.0023
 6467W        W22941  14.671   6.500   2.160  0.2666  0.1435 -0.0412
 6468W        W22942  14.810   9.905   2.432 -0.0028  0.1448 -0.1941
 6469W        W22943  14.216   0.236   1.081 -0.2935  0.1490 -0.1406
 6470W        W22944   9.380  16.498   0.688 -0.2230  0.0850 -0.0216
 6471W        W22945  15.979   8.625   0.024 -0.1073  0.0211  0.1855
 6472W        W22946   4.024  13.513   4.717 -0.0860  0.1448  0.0734
 6473W        W22947  12.040   5.282  13.531 -0.1254 -0.1608 -0.0265
 6474W        W22948   8.697  13.861  14.632  0.1038  0.2032 -0.1376
 6475W        W22949  10.101  10.234  12.872  0.0132  0.5439  0.1611
 6476W        W22950   9.932  17.257  13.499 -0.0428  0.0067 -0.1232
 6477W        W22951   1.340  16.933   5.458 -0.0497  0.0450 -0.1511
 6478W        W22952  16.614   9.160   2.390  0.1601  0.2135 -0.3994
 6479W        W22953  10.566   3.924   0.206 -0.1180  0.0881 -0.0861
 6480W        W22954   3.515  10.737  15.352  0.3627 -0.1693  0.1068
 6481W        W22955  14.163   7.699   1.657  0.1944  0.4806 -0.1985
 6482W        W22956  13.898  14.509  12.832  0.1074 -0.3311 -0.1801
 6483W        W22957   8.400   8.650  16.368 -0.2385  0.3781  0.3299
 6484W        W22958  16.044  15.513   0.166 -0.2968  0.1168  0.0239
 6485W        W22959  11.816  12.962   2.514  0.1922  0.0043 -0.2853
 6486W        W22960  16.935   9.859   3.999 -0.0915 -0.3620  0.0907
 6487W        W22961  11.203  13.800  16.894 -0.1683  0.0123  0.2226
 6488W        W22962   1.121   0.894  11.832  0.0054 -0.0324 -0.0989
 6489W        W22963   2.447  16.497  14.121 -0.1848 -0.2061 -0.1321
 6490W        W22964   1.836  13.923  13.196  0.1734 -0.0854  0.1459
 6491W        W22965  15.452   0.031   4.718 -0.3003 -0.1659  0.3066
 6492W        W22966  13.726  16.187  12.321 -0.1576 -0.2868  0.2611
 6493W        W22967   9.409  10.313   2.434 -0.2843  0.0887  0.0066
 6494W        W22968   7.498  13.067   3.047 -0.0478 -0.0679 -0.0204
 6495W        W22969  15.150   1.678  16.820 -0.0140 -0.0067 -0.2071
 6496W        W22970   4.158   2.841  16.187 -0.2851  0.1209  0.1741
 6497W        W22971  15.902  10.929   4.282 -0.0820  0.0847  0.0167
 6498W        W22972  16.414   8.807   2.674 -0.2443 -0.3604  0.0599
 6499W        W22973   8.629   9.703  14.012  0.1597  0.0846  0.0396
 6500W        W22974  15.550  17.446  16.372 -0.0074  0.2137 -0.0818
 6501W        W22975   5.606  10.052   5.490  0.0945  0.0262 -0.0031
 6502W        W22976  15.098  13.840  12.903  0.2023  0.2262 -0.1636
 6503W        W22977   8.826   8.925  16.124  0.2052 -0.0307  0.0112
 6504W        W22978  12.224   3.054  13.658  0.0528  0.1123 -0.1509
 6505W        W22979  16.144   4.097   5.479 -0.0193 -0.0659  0.2682
 6506W        W22980  17.794   3.289  13.276  0.0034  0.2545  0.0625
 6507W        W22981   8.007   8.373   1.759  0.3190 -0.1017 -0.0392
 6508W        W22982   8.181   2.254  14.182  0.0178  0.0009 -0.2412
 6509W        W22983  11.281   6.895   2.157 -0.3732 -0.0895  0.3082
 6510W        W22984   4.056   6.667  12.870  0.1713  0.1359 -0.2019
 6511W        W22985   6.980   1.732  11.684 -0.0390 -0.0875  0.2618
 6512W        W22986   2.172   5.199  13.549 -0.1551  0.1915  0.1402
 6513W        W22987   3.981   6.792   1.195 -0.1643  0.2314  0.1010
 6514W        W22988  16.345  14.047  15.104 -0.1556 -0.0978  0.1474
 6515W        W22989  11.067   9.625  13.062  0.0988  0.0078  0.1056
 6516W        W22990  15.084  14.390   3.213 -0.2480 -0.1373 -0.0102
 6517W        W22991   1.785  14.796   5.521  0.3703 -0.0954  0.0112
 6518W        W22992   0.615   8.049   1.883  0.3773  0.2275  0.1872
 6519W        W22993   2.803   8.870   2.192 -0.1204 -0.2599  0.1615
 6520W        W22994  14.354  11.636  16.319 -0.0710 -0.4989  0.1505
 6521W        W22995  15.729  11.808   2.979 -0.0925  0.1535 -0.2431
 6522W        W22996   7.295   9.194  11.931  0.1268  0.1195 -0.1972
 6523W        W22997  17.614   4.454   3.738 -0.0767  0.0545 -0.0217
 6524W        W22998   6.992   8.539  14.090 -0.1817  0.1572 -0.2409
 6525W        W22999   4.294  15.730  16.764 -0.3350 -0.0904  0.0628
 6526W        W23000  12.492  16.526   4.356 -0.0132 -0.1080  0.2761
 6527W        W23001   8.121   8.135   3.170  0.0180 -0.2358  0.0723
 6528W        W23002  12.020   2.372  14.054 -0.3474 -0.2593  0.1701
 6529W        W23003  16.180   1.747   5.518  0.0397 -0.0216 -0.0040
 6530W        W23004  16.138   9.090   3.713  0.1364 -0.1609  0.1756
 6531W        W23005   4.966   2.056   3.654  0.1538 -0.1112  0.0595
 6532W        W23006  12.680  11.432   1.829  0.0411  0.1653 -0.1534
 6533W        W23007   7.255  16.552   2.089  0.1738  0.0070  0.2065
 6534W        W23008  16.757   7.807   0.567  0.4409  0.0444 -0.0726
 6535W        W23009  13.476   7.696  16.229  0.1768  0.1527  0.1534
 6536W        W23010  10.536   2.857  14.982 -0.3260  0.2773  0.4630
 6537W        W23011  17.379   5.409  13.939  0.2418  0.2632 -0.0580
 6538W        W23012   4.450  16.815   2.060 -0.0156  0.1536  0.0526
 6539W        W23013   6.070   2.744   1.557  0.1799  0.1483 -0.0378
 6540W        W23014  13.966   4.318  12.346  0.0388 -0.1860  0.1610
 6541W        W23015   7.010   2.412  14.837  0.0041  0.3481 -0.0250
 6542W        W23016  15.208   7.002  16.426 -0.1577  0.1703  0.1760
 6543W        W23017   0.196  17.221   2.354 -0.2462 -0.0363  0.0775
 6544W        W23018  15.230  17.357  12.324 -0.0820  0.1227 -0.0936
 6545W        W23019  11.235  14.818   2.606 -0.1836 -0.1040 -0.0736
 6546W        W23020   3.175  14.394  14.213 -0.0002  0.1496  0.5058
 6547W        W23021  16.026  17.430  16.528 -0.0613  0.0934 -0.0059
 6548W        W23022   8.404   8.942   1.465  0.0995 -0.1352 -0.1502
 6549W        W23023   8.304  15.474   4.484 -0.1512 -0.5204 -0.1950
 6550W        W23024   6.358   6.206   0.193  0.0658 -0.0770  0.4209
 6551W        W23025   6.986  13.821   5.363  0.0881 -0.1102  0.0208
 6552W        W23026  13.340  10.597   3.483 -0.0021  0.1308  0.1699
 6553W        W23027   5.380  13.754   4.554 -0.0192  0.1945 -0.2526
 6554W        W23028  13.305   5.806   0.786  0.2179 -0.2306  0.0396
 6555W        W23029  17.152  10.610  13.835  0.0574 -0.2192  0.1389
 6556W        W23030   9.383  11.700  15.751 -0.0719 -0.0419  0.3383
 6557W        W23031  12.939  16.015  16.547 -0.4325 -0.2282 -0.3574
 6558W        W23032   4.656   6.977  15.092  0.2347 -0.0285 -0.0234
 6559W        W23033   2.137   8.538   3.408  0.1625 -0.0552 -0.1106
 6560W        W23034  11.859  11.070  13.803  0.2027 -0.0176 -0.1296
 6561W        W23035   5.387   8.734   4.124  0.0259  0.1440 -0.1454
 6562W        W23036  13.582  11.370   2.316 -0.1587  0.0356 -0.1192
 6563W        W23037   7.284   4.358  16.532 -0.3724  0.0322 -0.1790
 6564W        W23038  17.728   9.553  13.258 -0.3998 -0.0651  0.0143
 6565W        W23039  12.567   9.342   2.694  0.1879 -0.1133 -0.1263
 6566W        W23040   6.118   8.324   5.743  0.3083  0.0344  0.0511
 6567W        W23041   0.094  17.191   5.428 -0.1308 -0.2030 -0.1567
 6568W        W23042   0.260  15.960  12.373  0.0737 -0.1645  0.0530
 6569W        W23043   3.924   8.397   2.710 -0.0881 -0.0063  0.0111
 6570W        W23044  16.341  12.690   2.261 -0.2543  0.3325 -0.1411
 6571W        W23045  14.208  15.209  16.263 -0.0330 -0.0301 -0.1864
 6572W        W23046   9.084   7.177  12.928  0.0422  0.0117 -0.1323
 6573W        W23047  15.306  10.535   1.717 -0.0480  0.2643 -0.0296
 6574W        W23048  10.440  15.133  16.685 -0.2126  0.0017 -0.0309
 6575W        W23049   6.027  15.583   3.182  0.0966 -0.2433  0.1413
 6576W        W23050   1.218   1.513   6.157  0.2084  0.2832 -0.2712
 6577W        W23051  16.360  15.909   4.226 -0.1428 -0.3181  0.1382
 6578W        W23052  14.481   8.620   1.898 -0.0711 -0.2252  0.0847
 6579W        W23053  11.042   0.833   3.610  0.2506 -0.0601  0.0583
 6580W        W23054   4.558   4.321   3.779 -0.0414 -0.1982  0.1589
 6581W        W23055  12.559   2.409  15.296  0.1554  0.3736 -0.1207
 6582W        W23056  11.765  16.967   3.162  0.0350  0.1772  0.0027
 6583W        W23057   1.732   4.312   1.326  0.0708 -0.1688  0.2412
 6584W        W23058  14.029  11.386  15.615  0.0771 -0.0378  0.2205
 6585W        W23059   7.338   9.259   0.123  0.1538 -0.1102  0.1059
 6586W        W23060   3.534   9.865   0.804 -0.1189 -0.1453  0.0165
 6587W        W23061  15.013   5.127   2.713 -0.1819  0.1195 -0.2915
 6588W        W23062   6.064   8.036  11.434  0.0294 -0.0942  0.1974
 6589W        W23063  13.994   5.835  12.402 -0.2765  0.1965 -0.4683
 6590W        W23064   4.179   5.504  16.044 -0.0557 -0.0977  0.2232
 6591W        W23065   1.600   6.170  13.318  0.1293  0.0170  0.1813
 6592W        W23066  15.980   1.219   5.692 -0.2645  0.0742  0.0783
 6593W        W23067   8.423   3.430   3.937  0.1775 -0.0953 -0.0858
 6594W        W23068   8.713   8.004   5.695 -0.0779 -0.1176 -0.0048
 6595W        W23069   0.930   4.525   2.276 -0.3915  0.0296  0.0014
 6596W        W23070  11.899  11.197  12.348  0.3375  0.0171  0.0894
 6597W        W23071   1.811  14.236  15.148 -0.1218 -0.1365  0.1514
 6598W        W23072   6.040   6.155  11.751 -0.1923 -0.1933 -0.4324
 6599W        W23073   4.325   4.617  14.428  0.1910  0.0073  0.1068
 6600W        W23074  13.196  17.593   1.889 -0.1619 -0.2053 -0.1422
 6601W        W23075  16.908   7.725  13.673  0.2258 -0.1932  0.2975
 6602W        W23076   1.346   8.505   2.106  0.2445  0.2216  0.1413
 6603W        W23077  10.849   0.095  16.511  0.2731  0.0367 -0.2003
 6604W        W23078  13.097   1.867  16.891  0.1043  0.0671  0.3921
 6605W        W23079   7.547   3.177   2.118 -0.2375 -0.1511  0.0174
 6606W        W23080   6.922  17.311   5.597  0.2825  0.1174  0.2109
 6607W        W23081  14.183  16.592  16.460  0.1185  0.1955  0.0320
 6608W        W23082  13.847   7.825   5.428  0.2526 -0.1127 -0.4220
 6609W        W23083   2.441  17.478   3.461  0.1447  0.0131 -0.1186
 6610W        W23084   4.660   3.193   4.201 -0.0016 -0.0181  0.1574
 6611W        W23085   5.223   8.443  14.159 -0.0287  0.2518  0.3153
 6612W        W23086  11.802  17.408   5.047  0.1582 -0.0562 -0.0169
 6613W        W23087   5.018   5.851  16.175 -0.3631  0.3938  0.0947
 6614W        W23088  10.854   0.933   2.078 -0.1580 -0.0629  0.0197
 6615W        W23089   0.256   0.983  13.857  0.1882 -0.1212 -0.3445
 6616W        W23090  13.863   2.012  13.929  0.0310 -0.1769  0.0749
 6617W        W23091  17.458   1.129   3.190  0.0062  0.2561 -0.2784
 6618W        W23092   3.314   5.840   5.473 -0.1153  0.0657  0.0070
 6619W        W23093  14.188   4.677  14.829  0.0954  0.0721 -0.0403
 6620W        W23094   9.819  15.796  13.436  0.0320 -0.1204 -0.0540
 6621W        W23095   1.903  13.721   2.547  0.0410 -0.2530  0.1418
 6622W        W23096   6.101  12.260  12.587 -0.0833  0.0731 -0.2619
 6623W        W23097   2.516   7.451   0.914  0.1589 -0.3384  0.1802
 6624W        W23098   3.606  15.161   4.076 -0.1441 -0.2168  0.0727
 6625W        W23099   0.968  17.730   2.708 -0.1844  0.1768  0.0075
 6626W        W23100   1.236   1.360   3.412  0.0410 -0.1749 -0.0195
 6627W        W23101   6.833  16.745   4.350  0.1564 -0.1389  0.1461
 6628W        W23102   5.059  15.942  16.385  0.0225  0.1446 -0.0285
 6629W        W23103  12.404  10.767  16.187 -0.0698 -0.1370 -0.1600
 6630W        W23104  16.650   4.354  14.880 -0.2781 -0.1737 -0.0928
 6631W        W23105  15.681  13.630   1.498 -0.1092  0.2830  0.3369
 6632W        W23106  15.721   7.509   2.358 -0.0180  0.0951  0.0470
 6633W        W23107   9.221  15.353   5.511 -0.0577 -0.1072 -0.0384
 6634W        W23108  15.008   5.105  15.222  0.1243 -0.2544  0.0499
 6635W        W23109  13.961  17.101   1.611 -0.2368  0.0460  0.0510
 6636W        W23110   5.991   9.556  15.197  0.0174 -0.0519  0.2311
 6637W        W23111  15.111   2.097  12.479  0.2255 -0.1996 -0.1318
 6638W        W23112   3.288  15.636  12.683  0.0015 -0.0158  0.1580
 6639W        W23113   7.105   4.964  16.804 -0.0968 -0.0263  0.0218
 6640W        W23114  12.607  11.613   5.990 -0.0681 -0.1111 -0.1689
 6641W        W23115   1.184  16.286   2.280  0.0184  0.1688  0.5777
 6642W        W23116  12.155   3.929  12.988  0.1073 -0.2167 -0.1295
 6643W        W23117  15.574  17.583   4.343 -0.1001 -0.0337  0.1020
 6644W        W23118   5.133   6.265   4.266 -0.1145  0.0846 -0.1836
 6645W        W23119   2.511   8.130  15.304  0.0120  0.1124 -0.0097
 6646W        W23120   2.314   8.737  13.171 -0.0632  0.1245 -0.0944
 6647W        W23121  14.778  14.211  13.140  0.0799  0.1881 -0.2502
 6648W        W23122   7.105   5.527   0.360 -0.1128  0.2402 -0.2789
 6649W        W23123   3.635   0.679  16.433  0.0091  0.0134 -0.1778
 6650W        W23124   4.060  13.664   0.786  0.3383 -0.0690 -0.0884
 6651W        W23125   1.326   2.085  12.539 -0.0772 -0.0687 -0.2047
 6652W        W23126   9.844  15.856   2.605  0.0686 -0.1327 -0.2153
 6653W        W23127  15.543   1.723   0.472  0.0848 -0.0258  0.2504
 6654W        W23128  14.685  16.624   2.997 -0.1003  0.1526  0.0840
 6655W        W23129  10.757  11.565   4.682 -0.0702  0.1007 -0.1960
 6656W        W23130   8.755  16.554   0.629  0.1730  0.0297 -0.0513
 6657W        W23131   8.765  12.245   5.211  0.0880 -0.0758 -0.0498
 6658W        W23132   1.554   9.206   4.314 -0.0503  0.2998 -0.4169
 6659W        W23133  14.768   3.670   2.330  0.1973  0.4883  0.1276
 6660W        W23134   1.269   9.177  13.074  0.0146  0.3280 -0.1401
 6661W        W23135  15.432   9.438   4.792  0.2335  0.1323 -0.0822
 6662W        W23136   8.159  13.193   1.075 -0.3483  0.0786  0.1152
 6663W        W23137   4.284   7.890  16.407  0.3729  0.0191  0.1571
 6664W        W23138   8.848  13.502   4.876  0.1383  0.1377  0.3575
 6665W        W23139   1.690   9.665   4.166 -0.4227 -0.0780 -0.0650
 6666W        W23140   6.844   9.424  14.188 -0.1472 -0.4389  0.2842
 6667W        W23141  10.063  14.491  14.963 -0.2083  0.0075 -0.1196
 6668W        W23142   4.254  14.982   3.036  0.1596  0.0396 -0.1266
 6669W        W23143   8.683  12.084  11.639  0.1299  0.0632 -0.1331
 6670W        W23144  11.908  11.402  12.953 -0.0405  0.1104 -0.6289
 6671W        W23145   8.255   1.228  13.600  0.2057 -0.3570 -0.0063
 6672W        W23146  10.078  14.410   1.638  0.0385  0.1355  0.1057
 6673W        W23147  13.815  12.378   0.196  0.1034  0.0810  0.1428
 6674W        W23148  10.186   0.612   0.637 -0.1707  0.0022  0.1982
 6675W        W23149   9.752   2.138   4.308 -0.0932  0.1554  0.0451
 6676W        W23150  14.744   0.847   0.607  0.1514  0.3300 -0.0375
 6677W        W23151  16.984   4.405   2.619  0.1243 -0.0489 -0.0098
 6678W        W23152   6.953   0.460   1.318  0.1732 -0.0898 -0.0344
 6679W        W23153  14.548   6.029   3.254  0.1683  0.1045  0.1157
 6680W        W23154   2.477   9.806   4.773 -0.0332 -0.1914 -0.2408
 6681W        W23155   5.766   8.259  11.912  0.0126 -0.1386 -0.0971
 6682W        W23156   8.173  15.499  13.191 -0.1865  0.2332  0.1470
 6683W        W23157   4.322   6.812  11.719 -0.1430  0.2687 -0.2548
 6684W        W23158  14.853   0.841   6.303 -0.0238 -0.0187 -0.0412
 6685W        W23159  12.806   7.050  16.342 -0.4243  0.1137  0.2638
 6686W        W23160   9.659   3.487   1.834 -0.0001  0.3620  0.4274
 6687W        W23161   7.763   2.811  13.342  0.0600  0.0391  0.1951
 6688W        W23162   8.629   9.731  12.988  0.0871  0.0591  0.0171
 6689W        W23163  10.676   0.698  14.092 -0.1731  0.0218  0.0602
 6690W        W23164  15.654   9.798   4.048 -0.0183 -0.0369 -0.3419
 6691W        W23165   9.631   0.110  15.526 -0.3352 -0.0187  0.1259
 6692W        W23166  15.299   0.786   6.057  0.0027 -0.3484 -0.0541
 6693W        W23167  10.804  11.182  15.982  0.0184 -0.0003 -0.1682
 6694W        W23168   9.779   9.913  15.143  0.1342 -0.1879 -0.1744
 6695W        W23169   6.950   5.897  15.887 -0.3680  0.1195  0.0492
 6696W        W23170   0.734   7.941   0.260 -0.2605  0.2746  0.0612
 6697W        W23171  15.596   0.647   5.274 -0.1731 -0.3270 -0.0771
 6698W        W23172   0.569   8.096  15.327 -0.1375  0.3062  0.0528
 6699W        W23173   1.384  11.137  14.252 -0.1234 -0.0297 -0.2779
 6700W        W23174   4.010   1.521   5.854 -0.2044  0.2925 -0.0122
 6701W        W23175  14.517   3.991  16.115  0.2130 -0.0217  0.2460
 6702W        W23176  17.494   6.766   3.836 -0.0156  0.2397  0.0956
 6703W        W23177  17.336  12.428  14.765 -0.2317  0.0629 -0.5180
 6704W        W23178  12.611   2.665   2.153  0.3078  0.2771  0.2172
 6705W        W23179  17.751  11.581  12.436 -0.0270  0.2577  0.0437
 6706W        W23180   6.440   4.257  14.930  0.1258  0.0988 -0.1379
 6707W        W23181  13.314  14.288  15.458 -0.0193 -0.3534  0.0985
 6708W        W23182  17.187   4.157  15.781 -0.0944  0.0071 -0.1732
 6709W        W23183  17.148  11.646   0.022  0.1926  0.1515 -0.2034
 6710W        W23184  16.832   2.441   6.050  0.1757  0.0738 -0.2374
 6711W        W23185   6.269   1.397  15.302 -0.0457  0.0467 -0.1075
 6712W        W23186  11.856   2.933   3.164 -0.1622  0.0151  0.1247
 6713W        W23187  13.510  16.793  15.245 -0.1124 -0.1044 -0.0129
 6714W        W23188   5.341   6.094   0.894  0.2467 -0.1325 -0.0079
 6715W        W23189  16.648  11.590   3.190  0.0491  0.0042 -0.1272
 6716W        W23190  12.858  12.850   4.360 -0.0099 -0.0753 -0.1796
 6717W        W23191   6.315  13.145   1.015 -0.1326  0.1832  0.0599
 6718W        W23192  10.364   9.786   4.474 -0.3335 -0.1766  0.0947
 6719W        W23193   5.008   7.977   0.151 -0.2269  0.0608  0.0663
 6720W        W23194  11.507   1.874   1.733  0.1368 -0.0690  0.2396
 6721W        W23195   4.598   8.673  15.377  0.1846 -0.1600  0.2731
 6722W        W23196  11.035   3.363   2.809 -0.0622 -0.3291 -0.3893
 6723W        W23197   0.124  11.307   1.053  0.0761 -0.1346  0.0512
 6724W        W23198   1.264  16.873  15.659 -0.0696  0.0198  0.0942
 6725W        W23199  11.537   8.525   2.386 -0.1050 -0.2223 -0.1695
 6726W        W23200  14.273   6.196   0.484  0.0376  0.0481 -0.2044
 6727W        W23201   8.409   2.138  16.482 -0.0202 -0.1956 -0.3997
 6728W        W23202   1.947   7.296  14.117 -0.0481  0.2123 -0.1109
 6729W        W23203   0.291  17.187   2.995  0.0491 -0.0052  0.2055
 6730W        W23204   2.967   8.352   3.146 -0.0035  0.1872  0.0173
 6731W        W23205  17.710   6.349   3.248 -0.1900  0.1295 -0.2953
 6732W        W23206   2.296   6.448  15.989 -0.0647 -0.1380  0.2515
 6733W        W23207  17.692   3.874   2.363  0.1751 -0.1110  0.2601
 6734W        W23208  14.579  16.049   2.799  0.0403  0.0627 -0.2436
 6735W        W23209  13.620  15.280  12.065  0.1923 -0.1330 -0.3732
 6736W        W23210   2.215   8.139  11.710 -0.1198 -0.1124  0.0193
 6737W        W23211   6.271   0.426   0.171  0.4231 -0.0936 -0.4890
 6738W        W23212   9.536   6.792   0.084  0.2161 -0.2248 -0.1666
 6739W        W23213   2.887  11.111  13.437  0.0827 -0.1721 -0.0547
 6740W        W23214   8.361  16.593  11.773 -0.5234  0.2684 -0.0438
 6741W        W23215   0.059   9.692   2.223 -0.0321  0.3031  0.0420
 6742W        W23216   1.065  10.602  14.159 -0.3103  0.1122  0.1877
 6743W        W23217  10.742   1.462  15.707  0.1793  0.0102 -0.1855
 6744W        W23218   2.318   5.359  16.080  0.0119  0.1054 -0.0997
 6745W        W23219  15.845  11.231  14.763 -0.6302  0.1913  0.0040
 6746W        W23220   7.371   9.953   1.817 -0.0704 -0.3419  0.1178
 6747W        W23221   6.327  16.434   2.920  0.2184  0.0024 -0.0852
 6748W        W23222  10.789  15.450  16.402 -0.2143  0.2145 -0.1393
 6749W        W23223  16.698   5.167  14.365  0.0949  0.2012 -0.2806
 6750W        W23224   2.963  12.061   0.257  0.2098 -0.1433  0.0327
 6751W        W23225  10.107   7.059  16.034 -0.0928  0.1666  0.0542
 6752W        W23226  13.330   0.532  12.234 -0.0560  0.3994 -0.6454
 6753W        W23227   3.060   5.732   0.553 -0.0998 -0.1264  0.0888
 6754W        W23228   0.678   1.515  16.761 -0.0833 -0.0162  0.3201
 6755W        W23229   8.354  11.789   4.138  0.3733  0.5010  0.0627
 6756W        W23230   3.816   2.321   0.774 -0.2277 -0.0215 -0.2646
 6757W        W23231   3.078  10.563  16.648  0.3163 -0.0336  0.0003
 6758W        W23232   3.731  15.781   1.768 -0.0348  0.0361 -0.1974
 6759W        W23233   3.094   9.769   4.774  0.1077 -0.1357 -0.3904
 6760W        W23234   3.031  12.261  14.415 -0.1092  0.0569 -0.1873
 6761W        W23235   4.614  10.881   5.258 -0.0632 -0.1454  0.1683
 6762W        W23236  13.567   1.193  15.256 -0.0723  0.2358 -0.0875
 6763W        W23237   5.909   8.779   4.642  0.0312  0.1622  0.0820
 6764W        W23238   9.611   3.590  13.096 -0.0862 -0.1769 -0.2226
 6765W        W23239   2.629   1.263   0.324  0.3838 -0.1161 -0.0980
 6766W        W23240   6.335   6.150  12.889  0.0121  0.2834  0.3970
 6767W        W23241   1.323   0.460  16.389 -0.1873  0.1889  0.0974
 6768W        W23242   7.332   1.540   4.806  0.0817 -0.1738  0.3007
 6769W        W23243  14.437   0.860   1.391  0.1204 -0.1548  0.0301
 6770W        W23244   2.793   1.243   2.624  0.1451  0.0671  0.1309
 6771W        W23245   3.578  16.970  15.290 -0.2497 -0.0005  0.2474
 6772W        W23246   7.813   4.951   4.522  0.0411  0.1164 -0.0205
 6773W        W23247   2.845  12.850  12.825  0.0595  0.2069 -0.1758
 6774W        W23248   7.065  16.188  15.335  0.2258 -0.1213  0.0326
 6775W        W23249   6.812   3.015  14.865 -0.0574  0.1201  0.0284
 6776W        W23250   0.265   7.599  12.938  0.4734 -0.0268 -0.4090
 6777W        W23251  10.557   1.006   3.116  0.1644  0.1717 -0.0419
 6778W        W23252   0.942   0.375   2.928  0.1026  0.3632  0.1928
 6779W        W23253  16.697   5.536   3.898  0.2404 -0.0084 -0.3060
 6780W        W23254   2.907   7.813   3.066 -0.1656 -0.0660  0.0329
 6781W        W23255   0.249   3.900   0.493 -0.0158 -0.0102 -0.0315
 6782W        W23256   1.847  17.328  15.026  0.1284 -0.1297 -0.4826
 6783W        W23257   6.988  10.376   4.413  0.2293  0.0140 -0.0929
 6784W        W23258  13.324  13.812   4.645 -0.2262 -0.3425  0.5337
 6785W        W23259   2.869  10.187   2.879  0.2406  0.1444  0.1253
 6786W        W23260   6.752   5.287   0.652 -0.1263 -0.3783 -0.0264
 6787W        W23261   4.881   3.898  11.652  0.4484  0.0313  0.1100
 6788W        W23262   9.089  16.942  13.590  0.0624  0.2275  0.0733
 6789W        W23263   1.994   0.203  12.674 -0.4574  0.0349 -0.1308
 6790W        W23264   4.733   7.474  12.009 -0.1605  0.1716  0.1061
 6791W        W23265   1.911   9.012   1.601  0.0608  0.2197  0.5510
 6792W        W23266   7.347  10.589   0.302  0.1949 -0.2340  0.0317
 6793W        W23267   2.710   8.131  12.939 -0.0914 -0.2339 -0.0032
 6794W        W23268  14.645   8.021   4.282  0.0446  0.0375 -0.0866
 6795W        W23269  15.926  13.343  15.249  0.1980  0.3491  0.4586
 6796W        W23270  11.118   4.915  16.898  0.1382  0.0777 -0.0109
 6797W        W23271  13.326  16.579  11.975  0.0714  0.1196 -0.2604
 6798W        W23272  13.712   8.380   5.544  0.1667 -0.0604  0.1456
 6799W        W23273   3.378   9.400   2.672 -0.3514  0.1713  0.0120
 6800W        W23274  13.768  17.366  13.397 -0.1609  0.2023 -0.2001
 6801W        W23275  15.177  14.237  16.590 -0.0107  0.2618 -0.2983
 6802W        W23276   0.913  11.191  11.679 -0.0125  0.3168 -0.2636
 6803W        W23277   6.740   0.934   5.836 -0.1537  0.0564 -0.0032
 6804W        W23278   8.397  12.294  14.836  0.3021 -0.0954 -0.1084
 6805W        W23279   6.447  12.212   4.646 -0.2634 -0.1935  0.2705
 6806W        W23280  11.330   4.850   4.622  0.2186  0.1462 -0.2921
 6807W        W23281   6.502   8.889  15.056  0.2744  0.0633  0.1120
 6808W        W23282   3.928   2.172   6.413  0.3270 -0.0571  0.1177
 6809W        W23283   9.968  12.921  14.295 -0.2066 -0.1571 -0.1876
 6810W        W23284   7.772  13.928  11.148  0.1693 -0.2569 -0.4098
 6811W        W23285  11.394   4.586   2.008  0.0969 -0.0729  0.2131
 6812W        W23286   7.330  10.656   4.685 -0.0973  0.0571 -0.3161
 6813W        W23287  15.153   6.786   4.786  0.0336  0.0993 -0.2535
 6814W        W23288   1.492   1.995  13.041  0.0980  0.0704  0.2587
 6815W        W23289   6.416   9.631   2.197  0.0234 -0.0026 -0.0007
 6816W        W23290  11.596  16.002  15.862  0.0804  0.3004  0.0314
 6817W        W23291   7.017   9.111   4.773  0.1206 -0.3864 -0.1120
 6818W        W23292   8.038   5.984   4.992 -0.0078  0.1430  0.0409
 6819W        W23293   0.046   7.163   2.252  0.0786 -0.1010 -0.2753
 6820W        W23294   4.471  10.027  12.386 -0.0426 -0.0187  0.0779
 6821W        W23295  16.942  13.888   0.319 -0.0233 -0.0503  0.1101
 6822W        W23296   4.103  13.580  12.356  0.0763 -0.0408  0.0939
 6823W        W23297  15.907   4.211  16.516  0.2144 -0.1802 -0.1433
 6824W        W23298   0.378   5.244   2.755 -0.2275  0.1380  0.0552
 6825W        W23299   9.231   0.413   3.412  0.2055 -0.1239 -0.1746
 6826W        W23300   4.090   3.466   1.600 -0.1252 -0.3094 -0.2748
 6827W        W23301  11.961  10.536   4.828  0.1073 -0.1795 -0.0403
 6828W        W23302   9.392   2.015  13.680 -0.0170  0.3241  0.0006
 6829W        W23303   7.186   9.343  14.551 -0.0564 -0.0502  0.0509
 6830W        W23304  12.341   1.971  13.837  0.2281 -0.2751 -0.0964
 6831W        W23305   4.556   3.161  14.241  0.2101  0.0795  0.3072
 6832W        W23306  11.222  15.450  15.225  0.0176 -0.1751 -0.3089
 6833W        W23307   3.937   1.370   0.958 -0.1752  0.4045  0.0759
 6834W        W23308  14.939  15.353   4.749 -0.1301  0.0312  0.4155
 6835W        W23309   4.682  10.959   3.641 -0.1867  0.0311 -0.2419
 6836W        W23310   1.714   9.369  16.729 -0.0722 -0.1607  0.0558
 6837W        W23311   0.395   3.690   4.140 -0.3476 -0.4161 -0.1302
 6838W        W23312   8.934   2.068  16.306  0.0118  0.0601  0.1207
 6839W        W23313  10.353   9.083   3.253 -0.0777  0.0973 -0.2412
 6840W        W23314   0.513   0.364   4.428  0.0945  0.2697 -0.0352
 6841W        W23315   6.801   4.294   2.367 -0.2049 -0.0005 -0.3113
 6842W        W23316   4.098   8.675   2.286  0.3283 -0.1590  0.1122
 6843W        W23317  16.274   4.584   6.322 -0.0011  0.0183  0.1127
 6844W        W23318  15.928   2.001  16.638 -0.0389  0.1283  0.0962
 6845W        W23319  17.662  16.445  13.105 -0.1123 -0.3730  0.0301
 6846W        W23320  16.416   9.635   0.687 -0.2251  0.1492  0.3058
 6847W        W23321  13.770   2.212  13.003  0.2344 -0.1006  0.2369
 6848W        W23322  16.830  14.427   4.537  0.3163  0.0694  0.0401
 6849W        W23323  15.111  10.639  16.657 -0.2746  0.2009 -0.0667
 6850W        W23324  14.542   7.851  14.870 -0.0910  0.0413 -0.2422
 6851W        W23325  17.477   5.821   2.528 -0.1649  0.1660 -0.2196
 6852W        W23326   5.477  17.125   4.642  0.1931  0.1051  0.1162
 6853W        W23327   9.878  15.649   1.275 -0.0927  0.2578  0.0905
 6854W        W23328   4.862   9.208   2.290  0.1666  0.0670 -0.1860
 6855W        W23329   7.758   5.120   0.772  0.1526 -0.0747 -0.0608
 6856W        W23330   4.416  10.313   1.085  0.1273 -0.1930 -0.0581
 6857W        W23331   0.941   4.939  16.087 -0.2138 -0.0601  0.0895
 6858W        W23332   7.786   8.071  14.777 -0.2303  0.0754  0.0785
 6859W        W23333   8.522  15.690   6.000 -0.0104  0.0037  0.4438
 6860W        W23334   1.915  10.823   1.779 -0.2180 -0.1632  0.2837
 6861W        W23335  15.911  16.369   0.311  0.0450  0.1016 -0.0830
 6862W        W23336   2.678  11.897  10.959  0.1776  0.1942 -0.0928
 6863W        W23337  11.685  17.500  12.567 -0.1245  0.0515 -0.2715
 6864W        W23338  11.939  12.126   2.156 -0.2366 -0.0417  0.0142
 6865W        W23339   8.259  16.129  10.507 -0.1679  0.1159 -0.1305
 6866W        W23340   1.955   7.922   6.056 -0.1385 -0.2085  0.3920
 6867W        W23341   6.628   9.805  13.932 -0.0890  0.0282  0.1960
 6868W        W23342   9.365  13.389   3.373  0.3553  0.0759 -0.1611
 6869W        W23343   8.092   1.327  13.140  0.0683  0.0465  0.1731
 6870W        W23344  15.660  15.111  15.029 -0.1829  0.0216  0.1156
 6871W        W23345  15.778   3.871  15.843 -0.1691 -0.3308 -0.2919
 6872W        W23346  13.572   0.993  16.550 -0.0238  0.1663 -0.0306
 6873W        W23347   6.509   6.576  16.406  0.2851 -0.0340  0.2908
 6874W        W23348  12.254  15.789  12.032  0.1049  0.1132 -0.0710
 6875W        W23349  11.944  11.997   4.362  0.2331 -0.1609  0.0432
 6876W        W23350   3.682   9.881   1.836 -0.0482  0.0772  0.1786
 6877W        W23351  10.279  17.174   5.184  0.0723 -0.1422  0.0970
 6878W        W23352   3.783   7.349   2.667 -0.2598  0.0992  0.1086
 6879W        W23353  10.576  11.701  13.250 -0.0557  0.1520 -0.2902
 6880W        W23354   6.198   4.715  13.057  0.1708 -0.2197  0.0105
 6881W        W23355  15.013   3.931   2.611  0.4272  0.3242  0.2080
 6882W        W23356  17.055  10.751   1.168  0.1393 -0.3035 -0.2570
 6883W        W23357  12.270   8.405   4.670 -0.0882 -0.1253 -0.0897
 6884W        W23358   1.397  11.994   1.072  0.2500 -0.0834  0.3464
 6885W        W23359   7.658  16.931   6.200 -0.0812 -0.1263 -0.1637
 6886W        W23360   1.322  17.040   4.142 -0.0552  0.0518 -0.2431
 6887W        W23361  10.737   5.711  13.215  0.0039  0.1141 -0.0904
 6888W        W23362   5.107   7.892   1.512 -0.0347 -0.1187  0.2577
 6889W        W23363  12.738   7.913  15.203  0.1385  0.0355 -0.3194
 6890W        W23364  12.020   0.279   3.067 -0.0445  0.0588 -0.1064
 6891W        W23365  17.291  16.779  14.053  0.0706  0.0314 -0.3634
 6892W        W23366  10.756  15.588  14.964 -0.1821 -0.0199  0.2165
 6893W        W23367  11.559  14.870   4.480 -0.0717  0.0856  0.0570
 6894W        W23368   1.264  17.690   4.143 -0.0168 -0.2041 -0.0196
 6895W        W23369   4.273   9.656  12.069  0.2301  0.1459 -0.2291
 6896W        W23370  16.912  10.137   2.953 -0.0233  0.1571 -0.2780
 6897W        W23371  14.302   4.301   2.962 -0.0779  0.2659  0.0743
 6898W        W23372   3.745  12.631  16.697 -0.1265  0.2986  0.2409
 6899W        W23373  16.231   9.114  14.280 -0.0940  0.0785  0.0817
 6900W        W23374   6.279  11.835   5.064  0.1045  0.1920 -0.3317
 6901W        W23375   5.734  16.038   2.160 -0.4139 -0.3092 -0.0676
 6902W        W23376  13.493   6.064   0.177 -0.0667 -0.4145 -0.1579
 6903W        W23377   3.726   5.738  13.776  0.0096 -0.1613 -0.0109
 6904W        W23378  10.350   4.327   4.076  0.0897  0.0270  0.1555
 6905W        W23379  11.417   0.212   5.693  0.0178  0.1775 -0.2310
 6906W        W23380   2.640  15.340  16.525 -0.1436  0.0242 -0.1551
 6907W        W23381  11.197  12.980  16.922  0.2471  0.0452  0.2192
 6908W        W23382   4.226   3.080   3.003  0.2127 -0.2420  0.0457
 6909W        W23383   3.909   7.269   4.222 -0.0295 -0.2911 -0.0467
 6910W        W23384   8.835   7.068  16.829  0.3093 -0.2743  0.0832
 6911W        W23385   3.698  12.738  15.038 -0.1414  0.2727 -0.0016
 6912W        W23386   2.280   1.435  11.736 -0.0071 -0.2010 -0.0182
 6913W        W23387   0.156   4.780  15.550 -0.0733  0.1196 -0.0013
 6914W        W23388  10.359   7.973  15.028  0.3597 -0.0174  0.0677
 6915W        W23389   2.581  12.374   0.408 -0.2886  0.0115  0.0725
 6916W        W23390  11.138  17.506   0.851 -0.0882 -0.0616 -0.0311
 6917W        W23391  15.327   4.393  16.542 -0.1401  0.3542  0.0101
 6918W        W23392   0.834   9.337  15.378  0.1321  0.0779  0.2733
 6919W        W23393   8.418   8.652  11.888  0.0350  0.0930  0.0066
 6920W        W23394   0.985   2.997  15.853  0.3904  0.3039 -0.2018
 6921W        W23395   0.665   7.231  13.978  0.1592 -0.2834  0.4671
 6922W        W23396  14.901   0.711  15.277 -0.1052 -0.0889  0.0488
 6923W        W23397   4.998  12.905   5.174  0.1812  0.2799 -0.2424
 6924W        W23398  12.030   5.959  15.854  0.1009  0.0361 -0.0021
 6925W        W23399   2.175   0.672   4.175 -0.1392 -0.1908 -0.0905
 6926W        W23400  12.056   7.977  16.909  0.0932 -0.3192 -0.0410
 6927W        W23401  13.368   5.565   2.854 -0.2233  0.2557  0.0426
 6928W        W23402  13.583   1.496   2.190 -0.1110  0.3340  0.0593
 6929W        W23403  14.204  11.571   0.934  0.3314  0.2645 -0.0126
 6930W        W23404  13.936  13.464   0.667  0.1649  0.1216 -0.3632
 6931W        W23405   2.994   6.361  16.831  0.1368  0.0591  0.1591
 6932W        W23406   8.261  10.938   1.719 -0.0333 -0.0319  0.0041
 6933W        W23407  10.013   1.383   2.381 -0.1018  0.1441  0.0530
 6934W        W23408   7.025   9.408   3.177 -0.2532  0.1946  0.1968
 6935W        W23409   6.597   0.163   4.012 -0.0220 -0.1379 -0.3742
 6936W        W23410  11.224   4.399  15.978  0.1903 -0.4864 -0.0460
 6937W        W23411   6.648  14.155  11.614 -0.0464  0.2653  0.2145
 6938W        W23412   0.294  13.345  12.981 -0.2860 -0.0680 -0.0534
 6939W        W23413  10.418  14.837   1.958  0.2903 -0.0176  0.3210
 6940W        W23414   1.855  15.100   1.633  0.2216  0.0581  0.3394
 6941W        W23415   9.848  16.327   0.641 -0.1629  0.2673  0.0855
 6942W        W23416   0.087  15.778   4.223 -0.2119 -0.0243 -0.1778
 6943W        W23417   1.017  13.665   5.134 -0.0953 -0.1146 -0.0113
 6944W        W23418   5.565   7.277  13.435  0.0130  0.3512 -0.0849
 6945W        W23419  12.287   2.323   4.388  0.1601 -0.0382  0.2358
 6946W        W23420   1.294   7.887  13.296 -0.0971  0.0991 -0.0063
 6947W        W23421  16.924  11.743  15.304  0.3300 -0.1017 -0.0509
 6948W        W23422   5.041   3.792   5.269 -0.0283  0.2415  0.0852
 6949W        W23423   0.014  16.275  16.118  0.0765  0.0087 -0.0134
 6950W        W23424   9.275   0.178   4.329  0.2053  0.1670  0.1047
 6951W        W23425  16.166   1.363  15.428  0.1325  0.1859 -0.2608
 6952W        W23426  12.441  14.292  16.814  0.1026  0.1098 -0.4223
 6953W        W23427  17.253  17.200   2.497 -0.0447 -0.1274 -0.4533
 6954W        W23428   5.261   9.273  13.716 -0.0820 -0.0170 -0.3868
 6955W        W23429  10.711  11.651  12.725  0.1364 -0.1737  0.2513
 6956W        W23430  16.388  15.879   6.317  0.2571 -0.2478  0.3882
 6957W        W23431  10.864   9.601   3.655 -0.1695  0.0490 -0.1722
 6958W        W23432  11.251   1.053  15.530 -0.2186 -0.0897  0.0430
 6959W        W23433   2.112   2.130  13.779  0.2533  0.0700 -0.0062
 6960W        W23434   8.039   2.959  16.325  0.0310  0.1909 -0.0696
 6961W        W23435  15.224   5.317  12.475  0.0192 -0.0630 -0.0024
 6962W        W23436   7.841   0.171  12.819  0.1047  0.1632  0.1291
 6963W        W23437   7.014  12.753  13.654  0.3233  0.1053 -0.0795
 6964W        W23438   0.444   7.361   4.103 -0.1277 -0.4070  0.2199
 6965W        W23439   5.514   3.693   3.263 -0.2000  0.1049  0.2015
 6966W        W23440   7.860   2.783   1.821 -0.2122 -0.2362  0.1606
 6967W        W23441  12.005   9.416  16.639 -0.1002 -0.0138  0.0631
 6968W        W23442  11.104  14.217  15.646  0.0926  0.1601  0.1339
 6969W        W23443   1.920   2.325   5.819  0.0923  0.0158 -0.0870
 6970W        W23444   6.701  17.356  12.427 -0.1855  0.0028 -0.3021
 6971W        W23445   3.484   7.653  13.964 -0.0907  0.1750 -0.2854
 6972W        W23446   6.751  13.363   5.479  0.1116 -0.1729  0.1619
 6973W        W23447   0.426   9.460  13.933  0.0084 -0.0141  0.1076
 6974W        W23448  12.830   0.129   3.040 -0.3540  0.1052 -0.1338
 6975W        W23449   9.448   8.523   2.955 -0.1153 -0.2261  0.0505
 6976W        W23450   6.392   0.198  14.834 -0.0863 -0.2041 -0.0123
 6977W        W23451  13.131   7.361   2.395  0.1392 -0.3727 -0.0473
 6978W        W23452   0.071  16.715   1.254 -0.0056 -0.0600 -0.1805
 6979W        W23453   8.233  15.817  12.715 -0.1574  0.0533 -0.0759
 6980W        W23454  11.043   5.057   0.718  0.0882  0.1136 -0.1170
 6981W        W23455  12.149   9.735   0.053  0.2130 -0.0580 -0.0323
 6982W        W23456  13.837   0.743   4.783 -0.0098  0.2035  0.1540
 6983W        W23457  15.487   5.053   4.005 -0.3515 -0.5668 -0.0887
 6984W        W23458   4.641   1.037   5.827 -0.0174 -0.0383 -0.6189
 6985W        W23459   4.628   6.061   0.289 -0.1486  0.2173  0.0823
 6986W        W23460   6.699  14.184  15.477 -0.1127  0.2263  0.1559
 6987W        W23461  13.853   1.863  11.013 -0.3540 -0.0326  0.0927
 6988W        W23462   9.632   8.166   0.016  0.0764 -0.3864  0.0078
 6989W        W23463   6.596   5.434   4.967  0.1240 -0.3324 -0.1369
 6990W        W23464   0.971   8.978  14.517 -0.1076  0.1139 -0.1247
 6991W        W23465   1.115   7.642   1.176  0.3536  0.4024  0.0870
 6992W        W23466  10.205  10.905   0.730 -0.1336 -0.0213  0.0479
 6993W        W23467   9.004  13.286  15.988 -0.0840 -0.0601 -0.2288
 6994W        W23468  12.177  13.629   1.244 -0.0475 -0.0974 -0.1095
 6995W        W23469   1.673   0.938   4.902  0.2100 -0.1874 -0.3149
 6996W        W23470  14.817  14.583   5.095 -0.3930 -0.0545  0.0453
 6997W        W23471   0.604   6.819   1.728  0.1221  0.0370 -0.0627
 6998W        W23472  12.842   9.588  12.715  0.1927 -0.2989 -0.0502
 6999W        W23473   5.823  17.382  15.357 -0.0767  0.3563  0.0802
 7000W        W23474  17.181  15.943   0.048  0.0385 -0.1100 -0.1587
 7001W        W23475  16.493   8.424   0.974  0.1993 -0.0604 -0.1341
 7002W        W23476   9.648  16.968  15.506  0.2440  0.1310  0.1709
 7003W        W23477   0.263   7.554  11.650 -0.0699 -0.3408 -0.1555
 7004W        W23478  13.360   6.976  11.716 -0.2624  0.0337  0.1633
 7005W        W23479  16.951   1.312   6.155  0.2043 -0.0825  0.2462
 7006W        W23480  17.218   9.143  13.175 -0.1004  0.0760 -0.0813
 7007W        W23481  15.091   5.372  13.477  0.0424 -0.0769 -0.0618
 7008W        W23482   2.743  14.779   2.983 -0.1122 -0.0145  0.1686
 7009W        W23483  11.744   8.272   3.419  0.2141  0.2401  0.3491
 7010W        W23484  16.378   2.202  13.821 -0.0268 -0.0619 -0.4909
 7011W        W23485   2.376  14.121  16.929  0.1788  0.0666 -0.2250
 7012W        W23486  10.111   4.350   6.241 -0.0964  0.2113 -0.1530
 7013W        W23487   6.350  13.628  14.602 -0.0085 -0.0670 -0.2311
 7014W        W23488  14.623   5.388  15.154  0.2505 -0.0796  0.0945
 7015W        W23489  15.650   6.464   5.087 -0.1668  0.0145 -0.1928
 7016W        W23490  10.745   2.232  12.296  0.1393 -0.1326 -0.3217
 7017W        W23491   2.417  15.638   3.336  0.0592 -0.1052 -0.2656
 7018W        W23492  11.184   1.364   6.092 -0.4462  0.0512 -0.2178
 7019W        W23493  11.340  14.516   4.104 -0.0093 -0.0740  0.1147
 7020W        W23494   4.356   8.037  14.185  0.0156  0.2778 -0.1943
 7021W        W23495  13.583   1.647   1.620 -0.2243 -0.0812  0.1569
 7022W        W23496   7.377   7.480   2.574  0.0710 -0.0372 -0.0342
 7023W        W23497  12.375  17.729  14.450 -0.2509 -0.2698  0.0669
 7024W        W23498  17.636  11.588  16.607  0.0647 -0.0980 -0.1321
 7025W        W23499   8.316   8.925  14.692  0.1742  0.2645  0.0186
 7026W        W23500   2.512   7.070   2.183  0.1148 -0.0557 -0.0855
 7027W        W23501   4.156   5.547   5.552 -0.2215 -0.1459  0.1548
 7028W        W23502   5.529  11.682   4.861  0.0032 -0.0516  0.0419
 7029W        W23503   0.795  13.291   4.839 -0.1452 -0.2060 -0.0683
 7030W        W23504  13.032  12.126  15.586  0.1818  0.3121 -0.2184
 7031W        W23505  10.240  14.648   5.644 -0.2325 -0.2485 -0.0850
 7032W        W23506   6.274   1.318   0.258 -0.1980  0.2179  0.0644
 7033W        W23507  14.076   5.262   3.843 -0.1676 -0.0971 -0.0198
 7034W        W23508  16.057   3.193  12.694 -0.2935 -0.0075 -0.0179
 7035W        W23509  16.169  13.082  11.612  0.0721  0.2314 -0.1829
 7036W        W23510   7.782   4.714  16.013 -0.0092 -0.1315  0.0759
 7037W        W23511   8.728   0.495  14.651  0.0497  0.4442  0.1328
 7038W        W23512   9.725  15.479  11.768 -0.1009 -0.2949  0.1062
 7039W        W23513  10.364   5.669   2.384  0.0992 -0.2185  0.0107
 7040W        W23514   1.161  14.669   0.054 -0.3613 -0.0379  0.1707
 7041W        W23515   9.302  16.886  14.060 -0.1775 -0.1467 -0.0645
 7042W        W23516   9.580   8.337  14.814 -0.0630 -0.0759  0.0018
 7043W        W23517  17.047   5.071  16.222 -0.1404  0.2660  0.1830
 7044W        W23518   2.131  16.257   1.554  0.2491  0.0653 -0.1008
 7045W        W23519  12.461   0.121   5.598  0.0559 -0.0859  0.1674
 7046W        W23520   7.164   5.243  13.722  0.2148  0.1262 -0.0744
 7047W        W23521   0.744   3.932   4.411  0.2061 -0.0164 -0.1149
 7048W        W23522   5.325  10.161   4.461  0.0694 -0.3729 -0.1927
 7049W        W23523   4.460   5.092  14.205  0.0265 -0.2847  0.0059
 7050W        W23524  11.820  11.339   2.609  0.0036  0.0265 -0.0149
 7051W        W23525  16.787  15.380  15.516  0.1300 -0.1257 -0.1836
 7052W        W23526  14.504   3.979  15.149  0.0534  0.0731  0.0469
 7053W        W23527   2.929  10.050  15.685  0.1351  0.3939  0.1328
 7054W        W23528   5.744  11.879  12.993  0.0586  0.2692 -0.0262
 7055W        W23529  15.988   7.693  13.786 -0.2837  0.0241 -0.2545
 7056W        W23530  15.106  16.066  12.186  0.1910  0.2481  0.0910
 7057W        W23531  17.534   5.561   5.747 -0.0349  0.0128 -0.1332
 7058W        W23532   6.261  17.633   3.820  0.0898 -0.0651 -0.2065
 7059W        W23533   9.326  16.534  14.905  0.0267  0.1675 -0.1685
 7060W        W23534  14.779  12.963   0.962  0.0786 -0.1346  0.0326
 7061W        W23535  15.367   1.880   3.846 -0.1354 -0.1413 -0.2474
 7062W        W23536   0.038   9.502   0.567 -0.0665 -0.3243 -0.0068
 7063W        W23537  16.091   0.903   0.726 -0.0426  0.1058 -0.1964
 7064W        W23538   2.827   5.099  11.529 -0.0145 -0.1672  0.2481
 7065W        W23539   7.785   9.831   6.020  0.1110  0.1602  0.0386
 7066W        W23540  11.876   2.801  13.874 -0.2333  0.0222  0.1043
 7067W        W23541  15.458   1.766  12.751 -0.0201 -0.0647  0.4278
 7068W        W23542  15.180   6.184  14.518  0.0970 -0.0149 -0.1659
 7069W        W23543   0.017  14.144   3.796 -0.0505 -0.1804  0.0917
 7070W        W23544  11.391  11.974  14.411 -0.1412  0.0373  0.0459
 7071W        W23545   6.129   5.426   2.818  0.2174 -0.0180  0.1486
 7072W        W23546  11.172  16.028   1.750  0.0970  0.1707 -0.0253
 7073W        W23547  15.681  17.048   1.496 -0.1720 -0.2433  0.1839
 7074W        W23548  15.163   2.842   2.773  0.0160 -0.2150  0.1578
 7075W        W23549   4.966   7.976   2.813 -0.2118  0.2524 -0.2403
 7076W        W23550  16.539   3.523   3.357  0.0148  0.0670 -0.0164
 7077W        W23551   1.150   9.399   0.595  0.0947  0.0423  0.0448
 7078W        W23552   0.775  15.078  13.551 -0.0146  0.4458 -0.1171
 7079W        W23553   3.459   2.410   2.326  0.0529 -0.2896  0.0515
 7080W        W23554  12.029   0.521  13.725  0.0539  0.1872  0.0990
 7081W        W23555  13.564   8.524   5.085  0.3870 -0.0440 -0.0717
 7082W        W23556   2.811   8.817  15.972 -0.1223  0.2440  0.1353
 7083W        W23557  10.672  17.172  15.731  0.2160  0.1018 -0.0907
 7084W        W23558  17.626  11.654  14.771  0.1456  0.1489 -0.1349
 7085W        W23559   4.815   2.965  11.866  0.0778  0.0934 -0.1752
 7086W        W23560   5.959  14.309   3.870  0.2060 -0.1910 -0.0151
 7087W        W23561   8.395   1.765   0.984  0.1942 -0.0341 -0.0147
 7088W        W23562   6.613  14.304  14.049  0.0737  0.3639  0.0886
 7089W        W23563  10.154   3.324   3.329 -0.0292  0.0440  0.1800
 7090W        W23564  12.689  11.612   5.317 -0.2044  0.0267 -0.0157
 7091W        W23565   0.017   3.466   2.171 -0.0049 -0.1349 -0.0406
 7092W        W23566   8.107   4.472   1.885 -0.1333  0.0235 -0.0412
 7093W        W23567   7.558   9.011   5.105  0.0198 -0.0933 -0.1274
 7094W        W23568  14.312   0.705   2.840  0.1429  0.3201 -0.1890
 7095W        W23569   4.760   3.607   2.493  0.1166  0.0409 -0.2127
 7096W        W23570  13.520   4.869  15.617  0.1908 -0.0333 -0.1116
 7097W        W23571  16.311   1.860   2.286  0.2745 -0.0020  0.0033
 7098W        W23572   8.230   5.368  12.121  0.2728 -0.2633 -0.0268
 7099W        W23573   1.047  11.986  13.804  0.0058  0.1241 -0.1580
 7100W        W23574   2.631   3.125   2.465  0.1884  0.0537  0.0970
 7101W        W23575   0.497  15.898   5.681 -0.0125  0.0404  0.1885
 7102W        W23576   9.061  16.855   0.508  0.1830  0.0262  0.2602
 7103W        W23577  10.847  17.299  14.521 -0.1804  0.1015 -0.1756
 7104W        W23578   1.286   4.226  15.541 -0.1598  0.0481 -0.0729
 7105W        W23579   9.555   3.779   5.316 -0.0395 -0.2161  0.1917
 7106W        W23580   4.160   3.046   3.903 -0.1654  0.3848  0.0814
 7107W        W23581  13.041  17.668   3.871 -0.2288 -0.1422  0.2369
 7108W        W23582   2.523   9.440   5.173  0.2636  0.0779 -0.1308
 7109W        W23583  13.268   5.750   1.755 -0.2059 -0.0532  0.0962
 7110W        W23584   3.179  16.662   5.377 -0.1732  0.0953  0.3413
 7111W        W23585   9.589  10.939   1.491  0.1080 -0.2107  0.0909
 7112W        W23586  17.777  17.273   3.371 -0.2819  0.0924  0.0298
 7113W        W23587   2.112  13.565   4.040  0.1891 -0.0109 -0.0422
 7114W        W23588  12.153   4.709   4.721  0.3398  0.0219 -0.1461
 7115W        W23589  14.828   5.573   0.686  0.1277 -0.1453  0.1639
 7116W        W23590   8.965   1.639  12.463 -0.0545  0.2290  0.5307
 7117W        W23591   5.016   2.492   3.943 -0.3015  0.1473  0.1787
 7118W        W23592  12.061   9.256   0.196  0.0241 -0.1279  0.1132
 7119W        W23593   8.307   4.268  15.452 -0.2145  0.1831 -0.0241
 7120W        W23594   9.737   5.094  14.128  0.4100 -0.0535  0.4384
 7121W        W23595  14.441  16.496  15.919 -0.2386  0.1164  0.0097
 7122W        W23596  13.749   1.627  14.199  0.1047 -0.0930 -0.0978
 7123W        W23597  10.377   4.637   6.652 -0.0894  0.0041 -0.1818
 7124W        W23598  13.344  16.473   0.122  0.0243 -0.2238 -0.1138
 7125W        W23599   4.281   0.086  15.028  0.1096  0.0580  0.1176
 7126W        W23600   5.089   9.481  15.685  0.0084  0.0513  0.1301
 7127W        W23601  10.205  13.504  12.960 -0.1253 -0.0443  0.1224
 7128W        W23602   6.059   7.375   2.018  0.4208 -0.0490 -0.1048
 7129W        W23603   1.094  11.428  12.992  0.0789 -0.0868 -0.1345
 7130W        W23604  12.768   7.264   0.537 -0.0325 -0.1249  0.2150
 7131W        W23605  10.677   1.205   4.638 -0.0531  0.1746  0.1349
 7132W        W23606   0.838  12.749  11.986 -0.0694 -0.2086 -0.1975
 7133W        W23607   0.789  10.318   1.921  0.1888 -0.0001 -0.0365
 7134W        W23608   7.106   2.629   3.484  0.0322 -0.0948  0.2847
 7135W        W23609   8.931   1.647  13.907  0.0511  0.0447 -0.0095
 7136W        W23610   7.203   1.673   0.025 -0.1454  0.1633  0.1814
 7137W        W23611  10.070   3.154   4.801  0.1797  0.2895  0.2137
 7138W        W23612   3.682   5.101   2.088  0.0437 -0.1149  0.1894
 7139W        W23613   5.259   5.652   3.564  0.0654  0.2856 -0.2053
 7140W        W23614  11.488   4.780   2.510 -0.0839  0.2520  0.0123
 7141W        W23615   1.897   8.801   0.628  0.4340 -0.1477 -0.2373
 7142W        W23616   8.502  14.500  16.300 -0.0061  0.1595 -0.1572
 7143W        W23617   6.187   0.161   1.894 -0.1308  0.2482  0.1501
 7144W        W23618  14.773  14.909   0.041 -0.1266 -0.2823 -0.0414
 7145W        W23619  16.255   9.011  15.244  0.6444  0.0118 -0.1041
 7146W        W23620   2.662   0.727   3.970 -0.1946  0.0936 -0.0475
 7147W        W23621  12.252   5.370   4.200  0.1070 -0.0092 -0.3517
 7148W        W23622  17.083  14.203  13.460  0.2339  0.2154  0.0218
 7149W        W23623  13.178   8.223  16.883 -0.2623 -0.1825 -0.0852
 7150W        W23624  15.338  14.104   3.691 -0.0196  0.0785  0.0141
 7151W        W23625   9.904  11.135   2.892  0.1773  0.1288  0.4194
 7152W        W23626  17.257   9.615   1.808 -0.0756  0.2172  0.2515
 7153W        W23627   5.841  13.826  11.765  0.0678 -0.0832  0.0798
 7154W        W23628   5.071  11.744  15.880 -0.0003 -0.2556  0.0691
 7155W        W23629  16.035  12.482  14.353  0.0205  0.1917  0.1319
 7156W        W23630   4.103  12.673  13.839  0.6320  0.0369  0.0984
 7157W        W23631   6.473  13.564  16.154 -0.1098 -0.0994 -0.0519
 7158W        W23632   7.802  14.091  15.991  0.0997  0.0107  0.0815
 7159W        W23633  13.412   6.487   2.503  0.4497 -0.1967 -0.0388
 7160W        W23634  17.731  16.167   1.028 -0.3475  0.1354  0.0515
 7161W        W23635   7.705   4.294  13.628 -0.0218 -0.0860  0.1681
 7162W        W23636  15.915  11.959  13.304  0.3371 -0.2964  0.2326
 7163W        W23637   5.888   4.490   2.612 -0.0160 -0.1135  0.0353
 7164W        W23638  10.377   9.367  11.627  0.0021  0.0853 -0.1284
 7165W        W23639   3.785   8.227  11.796 -0.3059 -0.2424 -0.0748
 7166W        W23640  12.566  14.361   1.523 -0.0817  0.3167 -0.0738
 7167W        W23641   5.037  15.262  16.901  0.0949 -0.2418 -0.1176
 7168W        W23642   2.046   9.387   3.318  0.6394  0.0545  0.0565
 7169W        W23643  14.260   1.028   5.587 -0.1725 -0.2531 -0.0802
 7170W        W23644   9.453  13.378  12.508  0.0352 -0.2811 -0.0038
 7171W        W23645   2.625   8.510   5.644 -0.4469 -0.1748 -0.2176
 7172W        W23646   5.549   5.698   6.031  0.1590  0.0698  0.1182
 7173W        W23647   1.575  11.341   0.080  0.0124  0.0464  0.3734
 7174W        W23648   5.910  14.905  12.840 -0.0485  0.1210 -0.1111
 7175W        W23649  13.318  15.162  12.591 -0.0990  0.0867  0.0237
 7176W        W23650   1.851   0.734   2.786  0.0944  0.1417 -0.3560
 7177W        W23651  13.522   6.523   4.151  0.0245  0.2994 -0.1632
 7178W        W23652   0.269   8.792   2.984 -0.0110  0.2461  0.2476
 7179W        W23653   0.929   7.106   4.171 -0.0224  0.0540  0.0494
 7180W        W23654   9.815  13.658   4.805 -0.0591 -0.1723  0.2865
 7181W        W23655  10.419   2.194  11.679  0.1701  0.2902  0.0365
 7182W        W23656   7.382   1.769   5.570  0.1639  0.0446 -0.1132
 7183W        W23657  14.389  12.186  12.359 -0.1252  0.0297 -0.1082
 7184W        W23658   0.349   1.147   1.301 -0.1744  0.1817 -0.0243
 7185W        W23659  15.083   2.137   2.485 -0.4242  0.0063  0.1244
 7186W        W23660   9.118   6.542  12.726  0.2138 -0.0403  0.0107
 7187W        W23661   2.155  17.392   5.286  0.3242 -0.0522 -0.4322
 7188W        W23662   1.676  12.112   0.075 -0.0577  0.1979 -0.0636
 7189W        W23663   5.435   5.854  13.542  0.0622  0.0329  0.1140
 7190W        W23664  13.687   1.478  14.734  0.0768  0.0413 -0.1051
 7191W        W23665   4.064   9.861  16.530 -0.2926  0.0478  0.1419
 7192W        W23666  12.712   0.720  16.361  0.0543  0.2397 -0.1470
 7193W        W23667  15.851  15.393   1.069 -0.1442  0.0719  0.0048
 7194W        W23668   6.729   4.563  12.183 -0.2217  0.0528 -0.0244
 7195W        W23669  11.990   2.959  15.059  0.2764 -0.0607  0.4019
 7196W        W23670   5.204   5.593  15.761  0.2134 -0.4786  0.2017
 7197W        W23671   9.208   2.754  15.971 -0.0205 -0.4196 -0.1297
 7198W        W23672   0.036   9.241   2.534  0.0098  0.0214  0.1785
 7199W        W23673   9.431   3.272   5.695 -0.1056 -0.0688  0.4553
 7200W        W23674  11.426  16.851  11.974  0.2672  0.0534  0.2319
 7201W        W23675  13.538  11.073   1.558  0.0337 -0.1464  0.2335
 7202W        W23676   3.458   7.951   0.573  0.0830 -0.0070  0.2764
 7203W        W23677   8.837   4.048  11.973 -0.3452 -0.1447  0.2778
 7204W        W23678   5.051   0.586   0.748 -0.1712  0.1587 -0.1604
 7205W        W23679  10.696   9.772   5.351  0.0699  0.1548  0.0769
 7206W        W23680   8.821  15.027   6.300  0.0592 -0.0144 -0.0707
 7207W        W23681  13.940  17.296   3.980 -0.0028  0.1360  0.2281
 7208W        W23682   8.870   1.955  15.789  0.0193  0.0977 -0.0124
 7209W        W23683   0.132  13.512  12.132 -0.0355 -0.1166  0.2895
 7210W        W23684   4.780   9.685  12.625 -0.1698 -0.0940 -0.1348
 7211W        W23685   3.114  10.119   1.482  0.0543  0.2890 -0.1332
 7212W        W23686  12.756  16.149  15.297  0.0387  0.3032  0.0037
 7213W        W23687  11.019   4.122  15.621  0.1120  0.0061  0.2416
 7214W        W23688   1.421  14.758  12.895 -0.1916 -0.1870 -0.0795
 7215W        W23689  15.495  12.675   1.445  0.3469 -0.0497 -0.0941
 7216W        W23690   9.435  14.555  16.089 -0.0115  0.0509  0.0823
 7217W        W23691  17.182  15.007   0.356  0.3841 -0.1953  0.1095
 7218W        W23692   5.117   6.634  12.212  0.1971 -0.1109 -0.0348
 7219W        W23693  14.614   7.505   0.036 -0.0201  0.0114 -0.1381
 7220W        W23694   6.987   2.178   4.323  0.0678  0.0743 -0.0581
 7221W        W23695  15.087   3.242   2.379  0.1394  0.0624  0.1650
 7222W        W23696  10.166  16.168   2.835  0.0866  0.0598  0.0962
 7223W        W23697   3.741   9.538   1.097 -0.1926 -0.0230  0.0465
 7224W        W23698  13.247  14.158   2.835 -0.0143 -0.2529  0.1490
 7225W        W23699  10.915  12.008  12.482  0.2082 -0.0042 -0.2134
 7226W        W23700   2.361   0.848  13.105 -0.0264  0.0655 -0.1786
 7227W        W23701  16.571  14.264  13.429 -0.2204  0.1599 -0.3625
 7228W        W23702   9.900   7.395   4.294 -0.0066  0.2742  0.0123
 7229W        W23703   6.474  12.605   4.928 -0.2639 -0.0589  0.2621
 7230W        W23704   9.964   5.891   6.424 -0.0612 -0.3449  0.0756
 7231W        W23705  14.913  15.513   2.568  0.2019 -0.0532  0.1525
 7232W        W23706  13.992   1.101   3.536 -0.0405  0.3293 -0.0816
 7233W        W23707   0.161  16.764   1.772  0.1252  0.0326 -0.0715
 7234W        W23708   4.684   3.944   1.049 -0.1264 -0.0055  0.1354
 7235W        W23709  13.248  10.913  16.369 -0.0249  0.2577 -0.1287
 7236W        W23710   1.269  15.298  13.486 -0.1471  0.0349  0.3377
 7237W        W23711   9.050   6.542   1.894  0.1186  0.1668 -0.4185
 7238W        W23712  14.409   2.060   5.967  0.0186 -0.0348 -0.1607
 7239W        W23713   3.543  10.184  14.428 -0.1891  0.0648 -0.1193
 7240W        W23714  11.459  17.574   5.465  0.0991  0.2090  0.1116
 7241W        W23715  11.315   3.160  13.197 -0.2114  0.0666  0.2811
 7242W        W23716  16.772  17.506  16.870  0.2861 -0.1016 -0.1999
 7243W        W23717   4.530  13.696   1.501 -0.1373  0.1800  0.1251
 7244W        W23718   9.258  14.142   5.900  0.2441  0.3476  0.0987
 7245W        W23719   6.135   9.283  16.483 -0.0919 -0.2789  0.2201
 7246W        W23720   0.385  11.645  15.770 -0.0291 -0.0380 -0.0720
 7247W        W23721   8.858  17.359   1.817 -0.1163  0.0837 -0.2084
 7248W        W23722   8.413  16.046  16.333  0.3369 -0.2018  0.1460
 7249W        W23723  14.508  16.399  15.109  0.1555  0.1953  0.2305
 7250W        W23724   2.196   9.588   0.891 -0.2906 -0.0996  0.0453
 7251W        W23725   2.789   7.738  14.378  0.1875  0.3502 -0.2059
 7252W        W23726   8.893  12.742  13.220 -0.0911  0.1254  0.1634
 7253W        W23727   0.849  15.405  13.177  0.2124 -0.4851 -0.1213
 7254W        W23728   2.976   4.317   4.252 -0.1484 -0.2434 -0.1771
 7255W        W23729   0.329   8.151  13.743  0.1824  0.1854  0.0061
 7256W        W23730   1.237  14.431  14.426  0.1245  0.2619 -0.0127
 7257W        W23731  15.597   3.096   3.394  0.2767 -0.0776  0.1949
 7258W        W23732   1.830  11.921  10.493  0.1223  0.1297  0.0853
 7259W        W23733  10.427   1.001   1.672 -0.0300  0.1002 -0.1787
 7260W        W23734   4.935  17.801  14.931  0.3056  0.2302  0.1281
 7261W        W23735   6.977   9.746   4.783  0.0901 -0.1190 -0.0086
 7262W        W23736   5.677  14.375   5.111 -0.2134  0.1328 -0.3535
 7263W        W23737   5.665  12.459  12.847 -0.2516 -0.2173 -0.3187
 7264W        W23738  17.418   1.528  15.938  0.0328  0.1177 -0.1984
 7265W        W23739  14.198  14.637  11.908  0.0737 -0.0689  0.0047
 7266W        W23740  13.066  11.818   3.458  0.1650 -0.3952  0.2260
 7267W        W23741   1.293  12.314  13.233 -0.1553 -0.0457  0.0045
 7268W        W23742  12.430  13.290   0.419  0.1883 -0.0567 -0.0051
 7269W        W23743   5.070   9.628  16.526 -0.2219  0.2127 -0.0895
 7270W        W23744  14.433   1.732  14.873  0.1520  0.0079  0.2762
 7271W        W23745   6.004   0.690   2.894 -0.1376  0.2451  0.0965
 7272W        W23746   8.190   8.317  16.670  0.2342 -0.0152  0.0817
 7273W        W23747   4.873   9.397  14.431  0.0755  0.0945 -0.0388
 7274W        W23748   9.371   3.032  12.755 -0.0324 -0.1989  0.1773
 7275W        W23749   0.996  12.352   0.879 -0.1656  0.3830 -0.1704
 7276W        W23750  17.391  11.116  16.293  0.0648  0.1865 -0.0504
 7277W        W23751  17.374  15.555  13.196  0.4245 -0.1372 -0.1417
 7278W        W23752  15.015  15.667   0.796 -0.0365  0.4347 -0.0959
 7279W        W23753  13.159   5.716  13.330  0.2203  0.2089  0.1417
 7280W        W23754  17.233   1.126   1.229  0.0782 -0.2678  0.0759
 7281W        W23755  10.766   2.932  14.006  0.1268 -0.1689  0.1979
 7282W        W23756  11.648   3.551   4.385  0.0501 -0.4328 -0.1150
 7283W        W23757  14.852   4.101   5.148  0.0493 -0.2439  0.1045
 7284W        W23758   9.386   7.457  12.546 -0.1095  0.0755  0.0386
 7285W        W23759   9.262   1.548   1.065  0.0882 -0.2482  0.1608
 7286W        W23760  15.053  10.488   3.098  0.0678  0.0008  0.0053
 7287W        W23761   7.528   1.577   3.529  0.2337 -0.2190 -0.0344
 7288W        W23762   7.991   7.225   0.243 -0.1633  0.1020  0.1290
 7289W        W23763   7.096  15.726  16.083 -0.2544  0.0070 -0.0720
 7290W        W23764   7.240  12.171  15.169 -0.0778 -0.0509 -0.0530
 7291W        W23765   7.622   2.373  13.447  0.0089  0.0373  0.0092
 7292W        W23766  11.099   4.056   5.638 -0.2544  0.4231  0.2220
 7293W        W23767  13.185   9.904   0.614 -0.0982  0.1707 -0.0937
 7294W        W23768  14.881   0.703   2.113 -0.0022 -0.3613  0.0902
 7295W        W23769  15.956  16.706   0.714 -0.1094 -0.1126 -0.0879
 7296W        W23770   7.607  17.572  14.678 -0.1057  0.1098 -0.0444
 7297W        W23771  12.012  12.145   0.925  0.2691 -0.1718 -0.0245
 7298W        W23772  13.501   9.305   6.000 -0.1204  0.2993  0.2615
 7299W        W23773  14.470   7.174   2.785 -0.0804 -0.0257 -0.0517
 7300W        W23774   4.736  13.877  12.671  0.0640  0.0704  0.0512
 7301W        W23775  11.744   8.241   1.721 -0.1574  0.0857  0.0627
 7302W        W23776  17.103   1.863   4.922 -0.3392  0.2222 -0.2495
 7303W        W23777  12.840   6.290  16.563 -0.0020 -0.2538  0.1818
 7304W        W23778   0.243  11.297   4.821 -0.2824  0.0929  0.0410
 7305W        W23779   2.360   8.487   5.092 -0.2315 -0.2453  0.3064
 7306W        W23780   4.669  12.747  13.298  0.0565 -0.3892  0.0776
 7307W        W23781   5.385   9.627   2.340  0.1899 -0.1550 -0.1896
 7308W        W23782  12.732  16.647   1.958  0.1459  0.2185  0.0835
 7309W        W23783   1.737  14.873  15.173 -0.2992  0.2593 -0.0185
 7310W        W23784  10.846   6.649   0.392  0.2773 -0.0061 -0.0014
 7311W        W23785  15.023  13.318   0.349 -0.0629  0.1256  0.3506
 7312W        W23786  12.223   8.984   2.961 -0.2051 -0.0158  0.4166
 7313W        W23787  11.874  16.303   4.957  0.0358  0.0667 -0.1395
 7314W        W23788  11.280   3.934  14.920  0.0738 -0.1242  0.1236
 7315W        W23789   2.204   0.148  15.898 -0.2182  0.3402 -0.0491
 7316W        W23790   5.936  12.190  14.988 -0.1069 -0.1439 -0.0677
 7317W        W23791  11.336  10.327   1.593 -0.0491  0.0487 -0.0958
 7318W        W23792   1.104   9.933   4.077 -0.2893  0.4536  0.1649
 7319W        W23793   5.172   3.170   2.585  0.0588  0.0909  0.2086
 7320W        W23794  15.490   6.011   5.418  0.2088  0.2198 -0.1208
 7321W        W23795  16.406  13.870   2.213  0.1672  0.0499  0.3189
 7322W        W23796  14.897  17.708  12.258  0.0706 -0.0623  0.2962
 7323W        W23797   9.487   0.620   2.525  0.0845  0.1733  0.0283
 7324W        W23798   6.105  12.902   5.133  0.0410  0.2109  0.1788
 7325W        W23799   9.739  17.637   0.205  0.1860  0.0416  0.0776
 7326W        W23800   1.621   3.041  16.183 -0.1405  0.1610  0.0848
 7327W        W23801  15.304  13.581  12.091  0.0460 -0.0891 -0.1988
 7328W        W23802  16.895  13.302   0.480 -0.0940 -0.0620  0.1165
 7329W        W23803   6.650  10.832  13.993 -0.4096  0.0825 -0.2076
 7330W        W23804   4.692   4.563  15.487 -0.0614 -0.0581  0.1122
 7331W        W23805  16.971  13.471  13.871  0.0116 -0.3273 -0.0068
 7332W        W23806  16.399   8.755  16.645 -0.0530 -0.0328 -0.0928
 7333W        W23807  11.494  10.146   2.012 -0.1360 -0.0906  0.0307
 7334W        W23808  14.602   2.115   4.844 -0.0337  0.1126  0.2644
 7335W        W23809   3.103   6.566   1.821 -0.0268 -0.2544  0.0445
 7336W        W23810  10.772  12.465   5.695  0.2346  0.0488 -0.0006
 7337W        W23811  14.157   8.223   1.927  0.0366 -0.0938 -0.1620
 7338W        W23812   4.231   6.609   4.788 -0.0546  0.2658  0.3083
 7339W        W23813  14.934   3.217   5.976 -0.1436  0.2977 -0.2603
 7340W        W23814  16.219   3.460  13.289 -0.1539 -0.2577  0.0457
 7341W        W23815   1.532  15.504   1.704  0.2033 -0.1247  0.3701
 7342W        W23816   4.624  16.354   2.949  0.0573 -0.1629 -0.0613
 7343W        W23817  14.426   0.124  12.481  0.1790  0.0256 -0.0277
 7344W        W23818   9.021  10.151   4.590 -0.0887 -0.1211 -0.0321
 7345W        W23819   9.370  11.069  14.103  0.0531 -0.0030  0.1831
 7346W        W23820  17.435  15.199   6.128 -0.1079  0.1095  0.2383
 7347W        W23821   8.090   1.858   5.609 -0.0981  0.2956  0.1474
 7348W        W23822  15.028  13.737   5.414 -0.3407 -0.1415 -0.1983
 7349W        W23823   6.878   1.759  14.613 -0.1865 -0.0762  0.1554
 7350W        W23824   4.781   3.744  15.181 -0.1118  0.2413  0.0080
 7351W        W23825   7.184   5.344  15.456 -0.0389 -0.0499 -0.2541
 7352W        W23826  10.822   0.695  15.680  0.0296 -0.3594  0.0552
 7353W        W23827   4.723  15.185   1.687 -0.2137 -0.0993  0.2219
 7354W        W23828   3.002  15.115  16.245 -0.0356  0.2408 -0.0232
 7355W        W23829  16.547   6.117   0.907 -0.1244 -0.0077 -0.0301
 7356W        W23830  10.233   1.048   4.849  0.0255 -0.1127 -0.5147
 7357W        W23831  10.378  13.290  16.389  0.1084  0.0664  0.3100
 7358W        W23832   8.242  13.157  13.557  0.2579  0.0753  0.0142
 7359W        W23833  17.347  13.814  16.696  0.1532 -0.0231  0.2446
 7360W        W23834   4.726  10.472  12.516 -0.0931 -0.0063  0.1318
 7361W        W23835   6.279   6.624   0.880 -0.1562 -0.0597 -0.0725
 7362W        W23836  17.016  15.057  11.981  0.0824 -0.1408  0.1316
 7363W        W23837  10.877  10.757  12.993  0.1267  0.1642  0.0898
 7364W        W23838  15.982   7.211  16.499 -0.2451 -0.1072 -0.2265
 7365W        W23839   4.193  17.629   2.085  0.3488  0.1013 -0.1573
 7366W        W23840   2.896   1.133  13.079 -0.3224  0.2472  0.2695
 7367W        W23841  13.747   8.410   4.447  0.1769  0.0779  0.0101
 7368W        W23842   5.194  10.828   1.804 -0.0036 -0.0246 -0.2168
 7369W        W23843  13.365   9.739   5.623  0.0212 -0.0380 -0.2111
 7370W        W23844  16.470   5.244   1.237 -0.0287 -0.2784 -0.2030
 7371W        W23845  12.610  17.159   2.802 -0.1666 -0.1065 -0.0134
 7372W        W23846  14.446  14.861  16.594 -0.3400  0.0713 -0.0654
 7373W        W23847   0.675   9.700   5.404  0.0843 -0.0221 -0.0653
 7374W        W23848   8.314   8.327   0.286  0.0700  0.2104  0.1429
 7375W        W23849  14.881  11.786   4.892  0.0398 -0.0094 -0.2855
 7376W        W23850   8.516  13.522  13.670  0.0840 -0.1045  0.2984
 7377W        W23851  11.516  12.960   5.708 -0.0066 -0.0747  0.1232
 7378W        W23852  15.539   1.400   2.878  0.0281  0.0467 -0.1909
 7379W        W23853   2.023  10.475   4.160 -0.1113  0.3923 -0.1260
 7380W        W23854  16.225  11.698   2.184  0.2791  0.0053  0.1742
 7381W        W23855   5.593   5.778   1.208 -0.0003 -0.0575  0.3136
 7382W        W23856   0.156   3.611   4.623 -0.0402  0.0465 -0.0337
 7383W        W23857  12.156  10.527   2.011 -0.1884 -0.3370 -0.0790
 7384W        W23858   4.790   9.285   0.158 -0.4375 -0.1563  0.2225
 7385W        W23859  14.385   8.902   0.396 -0.2788 -0.1916 -0.2399
 7386W        W23860   6.504   8.479  14.178 -0.0372  0.1666  0.0804
 7387W        W23861  11.334   5.685   4.529 -0.2361 -0.1560  0.2622
 7388W        W23862  10.900   5.012   4.639  0.2963 -0.1674  0.3183
 7389W        W23863  10.294  17.777  11.661 -0.0678 -0.2170 -0.2066
 7390W        W23864   2.069   4.875   2.828 -0.3011 -0.2623 -0.0140
 7391W        W23865   9.373   8.815   4.819  0.0460  0.0072 -0.1163
 7392W        W23866  14.527  16.220  14.414  0.1440 -0.0098 -0.4229
 7393W        W23867   4.581  16.543   4.330  0.1815  0.2616  0.1383
 7394W        W23868   0.867   1.616   0.711 -0.0407  0.0673  0.1732
 7395W        W23869  11.547   2.172  15.452 -0.0776 -0.2671 -0.0722
 7396W        W23870   2.691   9.772   0.940  0.0576 -0.2288  0.0577
 7397W        W23871   4.676  10.414   1.998 -0.3059  0.0786 -0.2502
 7398W        W23872   0.260   7.750   5.440  0.2992  0.0824 -0.1025
 7399W        W23873   3.130   7.453  13.529  0.1496 -0.1824  0.4066
 7400W        W23874   7.788  13.140  16.693  0.1595 -0.0057  0.3506
 7401W        W23875  12.696  17.412   1.774  0.2135  0.0238  0.0946
 7402W        W23876   3.680   2.933   1.007 -0.0576 -0.3406  0.2140
 7403W        W23877  13.191  14.286   4.376  0.0011  0.0793 -0.2733
 7404W        W23878  10.702   4.182   2.451  0.4136 -0.1572 -0.2213
 7405W        W23879   0.806  10.668   1.224 -0.0011 -0.0712 -0.0306
 7406W        W23880  17.255  14.816  14.051 -0.0182 -0.2238 -0.1348
 7407W        W23881   6.941  15.761  13.613 -0.1791  0.0092  0.2668
 7408W        W23882   6.992   7.167   0.215 -0.3402 -0.2107  0.2851
 7409W        W23883  16.995   3.872  13.345  0.1331 -0.1506  0.1966
 7410W        W23884  15.548  10.775  14.187  0.0138  0.0544 -0.0012
 7411W        W23885  15.656  12.480   5.059 -0.2157  0.0615  0.2449
 7412W        W23886   0.965   3.892   2.836  0.0112 -0.0217  0.0942
 7413W        W23887  13.598  15.625   5.027 -0.1004 -0.1065  0.3206
 7414W        W23888   3.046   5.064  13.571 -0.1309 -0.1109  0.2424
 7415W        W23889  16.640   9.508   4.242  0.2643  0.2739  0.0070
 7416W        W23890  11.350  16.687   3.575  0.2038 -0.0325 -0.0969
 7417W        W23891   7.430  15.354   3.664 -0.2288 -0.1231 -0.0636
 7418W        W23892  17.727   5.275   1.366 -0.0924 -0.1650 -0.1231
 7419W        W23893   6.719  16.265  14.988 -0.0876 -0.0319 -0.0240
 7420W        W23894   6.672   1.468  16.222 -0.0320 -0.1251  0.0953
 7421W        W23895   9.613   9.362   3.975  0.1570 -0.1534 -0.0898
 7422W        W23896   1.306   9.801  11.147  0.1116  0.2750 -0.2761
 7423W        W23897  17.630   3.514   4.952  0.2913 -0.2096  0.4900
 7424W        W23898  12.344   8.095   2.390  0.0885  0.1414  0.0723
 7425W        W23899   3.579  14.456   1.704  0.0290 -0.1719  0.1012
 7426W        W23900   1.623   0.512   3.672 -0.2861  0.3142 -0.4538
 7427W        W23901  16.055  11.326  16.673 -0.4665 -0.1520 -0.3377
 7428W        W23902   8.000  16.036   2.368 -0.0222  0.1334  0.0123
 7429W        W23903  13.930   2.956   4.632 -0.1012 -0.1127  0.0533
 7430W        W23904  12.020  13.330  14.861 -0.1172  0.2950 -0.0229
 7431W        W23905   8.222  11.306   2.506  0.0362  0.1760 -0.2012
 7432W        W23906  16.638  14.801  13.179 -0.1877  0.4074  0.1244
 7433W        W23907  15.085   5.855   5.142 -0.2601  0.2798 -0.3115
 7434W        W23908   3.715  14.347  12.294 -0.2715 -0.2575  0.0320
 7435W        W23909   1.631  10.559  16.284  0.2397 -0.1004 -0.2658
 7436W        W23910   2.811   6.688  16.077 -0.2004 -0.0271 -0.1293
 7437W        W23911   7.991   0.552   4.275  0.0623  0.1383  0.1959
 7438W        W23912  16.743   0.363  14.394  0.2004  0.2124 -0.0744
 7439W        W23913   1.511  12.279   1.459  0.0824  0.0682  0.2723
 7440W        W23914  13.086   8.235   0.466  0.0926  0.1228  0.2545
 7441W        W23915   6.086  17.518   5.508 -0.1448 -0.2039  0.1006
 7442W        W23916   5.908   4.320   1.373  0.1392 -0.1703  0.0526
 7443W        W23917   1.555   0.323   0.264 -0.0968 -0.1635 -0.2234
 7444W        W23918   8.773   6.282  12.441 -0.1780  0.0957 -0.0993
 7445W        W23919  12.009  14.106  16.607  0.0515 -0.1643  0.0159
 7446W        W23920   8.003   2.671  14.990  0.2779  0.1991  0.1246
 7447W        W23921   9.159   6.547   3.609 -0.1706  0.2709 -0.0030
 7448W        W23922  14.620   9.547  11.696 -0.1904 -0.0043  0.2711
 7449W        W23923  14.311   5.060  14.498  0.0785  0.0361  0.2202
 7450W        W23924   0.414   9.881   2.496  0.4382 -0.0962 -0.1210
 7451W        W23925   0.900   5.189   3.975  0.0857 -0.2554 -0.2924
 7452W        W23926   2.582   6.243  15.624  0.0160 -0.0806  0.0038
 7453W        W23927   8.929   8.464   3.093  0.1013  0.1149 -0.1021
 7454W        W23928   4.366   5.033  16.602  0.4076 -0.3118 -0.1001
 7455W        W23929   0.441  14.323   0.341  0.1459  0.0942  0.2470
 7456W        W23930   8.598   7.630   4.292  0.1335 -0.0241 -0.0910
 7457W        W23931  12.828   5.363   4.998  0.0136 -0.2368  0.2076
 7458W        W23932   2.477   6.341   2.502 -0.3571  0.1817  0.0142
 7459W        W23933   8.185   1.855  10.493 -0.0370 -0.0673 -0.0229
 7460W        W23934  13.426   2.206  16.138  0.2432 -0.1441 -0.1601
 7461W        W23935   2.013   3.112  14.873 -0.1886 -0.0421 -0.1012
 7462W        W23936  15.601  15.507  12.642 -0.1854 -0.0443  0.1314
 7463W        W23937   9.594   0.368   2.047  0.0430 -0.0233  0.1439
 7464W        W23938  14.751  10.378   1.683  0.0980 -0.1256 -0.1297
 7465W        W23939   4.333  14.242   3.098 -0.3127 -0.2488 -0.1395
 7466W        W23940   2.841  17.544   2.682 -0.2379  0.3507 -0.2698
 7467W        W23941  14.975   7.660  14.807 -0.5358  0.3866 -0.0438
 7468W        W23942  15.855   6.066  12.648  0.2114  0.1070 -0.1304
 7469W        W23943   4.543   2.766   1.237  0.1059  0.2754 -0.0350
 7470W        W23944   6.726   5.922  14.048 -0.0232 -0.2070  0.0384
 7471W        W23945   4.153   1.631  12.701 -0.1475 -0.1121  0.1752
 7472W        W23946   8.534  17.395   2.293  0.0355 -0.2793  0.0459
 7473W        W23947  12.646   1.645  16.026  0.0788 -0.0267 -0.2638
 7474W        W23948  16.518   7.320   1.885 -0.0666 -0.0898 -0.0602
 7475W        W23949   0.033  14.094  13.872 -0.1612  0.3108 -0.0735
 7476W        W23950   6.331   4.814  16.157  0.1306 -0.0813 -0.2908
 7477W        W23951   5.939  13.869  16.399 -0.0773 -0.0302  0.3873
 7478W        W23952   8.948   9.608  16.590  0.5313 -0.0801 -0.0220
 7479W        W23953  15.555  15.659   5.402  0.1100 -0.0723 -0.1533
 7480W        W23954   8.011  10.444  14.838 -0.0774  0.0774  0.0470
 7481W        W23955  14.078  13.099   1.819 -0.0097 -0.1882 -0.2909
 7482W        W23956  12.095   7.173   2.634 -0.0240 -0.0036 -0.0103
 7483W        W23957   6.402   8.806   0.183  0.3968 -0.2018  0.0326
 7484W        W23958   2.398   4.352  15.135  0.0295 -0.3299 -0.1003
 7485W        W23959   5.367   2.762  11.970 -0.0996  0.2091  0.0076
 7486W        W23960  13.784   0.104  14.344  0.3570 -0.5316  0.0408
 7487W        W23961  15.878   9.874  12.936 -0.1995  0.0067  0.1522
 7488W        W23962   4.769   9.353  13.060  0.2601 -0.0016 -0.0520
 7489W        W23963  15.118  15.709  13.556 -0.0903  0.1020 -0.1364
 7490W        W23964   7.130   1.566  15.930 -0.0458 -0.1194 -0.1484
 7491W        W23965  10.566  12.708   6.097 -0.0095  0.0005 -0.1866
 7492W        W23966   8.339   1.714  14.907  0.0709  0.0372 -0.1238
 7493W        W23967  12.567   3.656   5.026  0.0774 -0.0066  0.0229
 7494W        W23968   8.688  15.733   4.632 -0.4602 -0.4327  0.1682
 7495W        W23969   6.778  15.326   2.734  0.1352 -0.3204 -0.2810
 7496W        W23970  12.490  16.127  14.891 -0.0974 -0.0604  0.0218
 7497W        W23971   2.595   5.738  14.072  0.3415 -0.0803  0.1347
 7498W        W23972   9.016  14.085   6.381  0.2482 -0.3105 -0.0360
 7499W        W23973   9.036  14.072  11.521 -0.2088  0.3461 -0.1851
 7500W        W23974   9.961  17.719  16.040 -0.0383  0.2630  0.2834
 7501W        W23975   7.438  17.643   4.452 -0.1641  0.2663 -0.4135
 7502W        W23976  11.991   7.745   3.244 -0.0720  0.1136  0.4651
 7503W        W23977   9.961  12.638   3.183 -0.2898  0.0429  0.2323
 7504W        W23978  13.634  11.820   2.671 -0.1426 -0.0256  0.1447
 7505W        W23979   6.127  16.442  15.545 -0.0315 -0.2102  0.0957
 7506W        W23980   8.924  11.174  16.247 -0.1412 -0.0087 -0.0847
 7507W        W23981   8.061  10.782   0.882  0.3378  0.0393  0.0247
 7508W        W23982   4.758  10.468  15.680  0.0159 -0.0345 -0.0654
 7509W        W23983   8.685   3.985   4.313 -0.1426  0.0653  0.1112
 7510W        W23984   7.459   1.568   1.203 -0.1943 -0.1002 -0.2639
 7511W        W23985  12.578   2.585  12.307 -0.2369  0.0063 -0.0557
 7512W        W23986   1.465  15.085   5.787 -0.4475  0.2566  0.1728
 7513W        W23987  12.008  13.214   4.064  0.1348 -0.1690 -0.0485
 7514W        W23988  16.801  15.226   2.786  0.2486 -0.2861  0.2673
 7515W        W23989   1.438   2.600   0.788  0.3563  0.1594  0.0008
 7516W        W23990  16.331   9.611  14.615 -0.1603  0.1099  0.2851
 7517W        W23991  13.631  14.962   2.459 -0.0920  0.0423  0.1420
 7518W        W23992   8.736  12.435   3.273  0.3028 -0.3889  0.2035
 7519W        W23993   8.901  12.847  16.309 -0.0806 -0.2911 -0.0946
 7520W        W23994   1.103  13.032  10.264  0.0349 -0.0489 -0.0091
 7521W        W23995  13.483   3.450   5.348  0.2705 -0.1290  0.0825
 7522W        W23996   0.431  14.197   2.216 -0.0162  0.2706  0.0931
 7523W        W23997   2.965  13.178   0.676  0.2592 -0.1943 -0.2047
 7524W        W23998  17.278  16.490   0.410 -0.3136 -0.3219  0.1619
 7525W        W23999   1.221  14.570  12.470 -0.3098  0.0092 -0.0076
 7526W        W24000   3.132   8.345   0.927 -0.2204  0.1150 -0.1602
 7527W        W24001  16.471   7.114   5.823 -0.0560 -0.2281 -0.1244
 7528W        W24002   5.060   0.494  11.763 -0.0089 -0.3835 -0.1017
 7529W        W24003  15.957   8.972   1.595  0.0936 -0.1523  0.0194
 7530W        W24004   4.714  11.068  16.391 -0.0903  0.1897  0.0965
 7531W        W24005   4.782  10.000  13.831  0.0447 -0.0387 -0.0539
 7532W        W24006   4.552  14.573  12.490 -0.0873 -0.0043  0.0886
 7533W        W24007  14.875  11.968   3.798  0.0631  0.4102 -0.0542
 7534W        W24008  10.185   1.264   2.842 -0.1583 -0.1147  0.0862
 7535W        W24009  16.269   6.668  10.890 -0.0729 -0.2852 -0.1412
 7536W        W24010  11.854  13.783  15.576  0.1943 -0.0391 -0.2714
 7537W        W24011   5.421   3.610  12.657 -0.0994  0.1682 -0.0252
 7538W        W24012   4.419   1.784  15.612 -0.1757  0.2286  0.0747
 7539W        W24013  11.161  13.477   4.942 -0.0620  0.0924 -0.3000
 7540W        W24014   5.475   9.593  12.298  0.0242 -0.2244 -0.0022
 7541W        W24015  10.007   6.428   1.983 -0.0027 -0.1960 -0.0225
 7542W        W24016  16.930  16.205   5.580 -0.0470 -0.0135  0.1599
 7543W        W24017   6.511  15.898  16.019  0.0742  0.2538 -0.0219
 7544W        W24018  13.935  10.264  16.407  0.1176 -0.0563 -0.0624
 7545W        W24019   1.434  12.212  15.888 -0.2474 -0.0673  0.0425
 7546W        W24020  15.368  16.188  16.377 -0.2616 -0.0089  0.0623
 7547W        W24021   3.568   6.765   3.462 -0.1501 -0.0913  0.1151
 7548W        W24022   9.489   0.456   5.176 -0.3674  0.0547 -0.2972
 7549W        W24023   5.563   2.144  12.812 -0.0099 -0.0566  0.0115
 7550W        W24024  11.855  14.292  11.702 -0.0360 -0.1929 -0.1877
 7551W        W24025  10.155   8.607   3.403 -0.1026  0.0087 -0.1051
 7552W        W24026  15.998   8.875  11.909 -0.0632 -0.1106  0.2521
 7553W        W24027  15.551  10.171   3.212  0.1265 -0.0756  0.1369
 7554W        W24028   3.287   2.064   0.608  0.2921 -0.2533  0.1171
 7555W        W24029  16.562   2.346   1.935 -0.0006  0.3833 -0.0473
 7556W        W24030  14.708  14.749   1.997  0.1815 -0.2632 -0.0556
 7557W        W24031   5.021  11.412  16.346  0.0586  0.0189  0.2826
 7558W        W24032   5.467   8.745  16.558 -0.1821  0.2424 -0.2510
 7559W        W24033  17.754   7.927   2.152 -0.1869  0.0689  0.1008
 7560W        W24034  16.975  16.947  14.515 -0.0389 -0.2899 -0.1245
 7561W        W24035   1.250  10.864  16.073  0.2614 -0.1477  0.0490
 7562W        W24036   5.506   0.666  12.577  0.1231  0.0000  0.1336
 7563W        W24037  15.716   5.458   0.451  0.0906 -0.0067  0.0643
 7564W        W24038   2.496   6.264  13.254 -0.1030 -0.6007  0.0422
 7565W        W24039  10.484   5.271   1.166  0.0249  0.1676  0.2905
 7566W        W24040   9.884  13.227   5.026  0.0641 -0.0747  0.3004
 7567W        W24041   2.588   4.078   5.965 -0.2382 -0.1511 -0.3877
 7568W        W24042   6.445   3.451  13.154  0.1646  0.0707  0.1363
 7569W        W24043   1.176   5.631  14.751 -0.0163 -0.6642 -0.0276
 7570W        W24044   9.514  17.619  16.696  0.2505  0.0864 -0.1959
 7571W        W24045   9.472  17.757  13.576  0.1177  0.1060  0.0955
 7572W        W24046   2.660   3.692   1.680  0.0161  0.0501  0.0427
 7573W        W24047  14.788   1.601   4.392 -0.1131  0.0663 -0.2920
 7574W        W24048   6.010  17.005  13.166  0.2334 -0.0289  0.1529
 7575W        W24049  13.259   0.823  13.148 -0.0376  0.0060 -0.1639
 7576W        W24050   3.834  13.377  13.218 -0.2659 -0.1081  0.2125
 7577W        W24051   5.641   3.880  12.335  0.1886 -0.0978  0.1157
 7578W        W24052  17.167   6.873   4.496 -0.1306  0.0035 -0.0832
 7579W        W24053  10.447  16.476   2.566  0.0854  0.1459 -0.1067
 7580W        W24054  10.095   1.412   0.074 -0.2114 -0.3185 -0.0771
 7581W        W24055  10.217  17.636  12.833  0.0876 -0.2562  0.3898
 7582W        W24056   1.292   7.798  15.027 -0.2161  0.0191 -0.1486
 7583W        W24057   8.025   5.087   5.427 -0.2387 -0.1326  0.1184
 7584W        W24058   0.300  10.058  14.753 -0.1057  0.0666 -0.0747
 7585W        W24059   8.305   8.003  14.769 -0.0947  0.0781  0.0558
 7586W        W24060  12.889   0.876  11.283 -0.1103 -0.1013  0.2887
 7587W        W24061   8.999   6.318   6.201 -0.0731 -0.0809  0.0812
 7588W        W24062  14.254   4.114  14.752 -0.0512  0.3423 -0.1591
 7589W        W24063   1.076  14.118  11.607  0.0042 -0.0777  0.0680
 7590W        W24064   7.183   5.835  15.377  0.1015 -0.1811 -0.2018
 7591W        W24065   6.424   1.005   4.660  0.2370 -0.0194 -0.1500
 7592W        W24066   0.481   3.211  15.521  0.3139  0.2094 -0.2425
 7593W        W24067   9.814  14.168   0.284  0.0937  0.2697  0.1075
 7594W        W24068   6.083  11.970   3.355  0.3838  0.3064 -0.1102
 7595W        W24069  15.678   3.324  14.121  0.1988 -0.0786  0.2230
 7596W        W24070  13.122   8.490   6.079  0.0641  0.0585 -0.0341
 7597W        W24071  11.310   5.309  16.008 -0.0574 -0.0619 -0.2336
 7598W        W24072   2.856  11.997  15.933 -0.2001  0.0384  0.1132
 7599W        W24073   1.969   0.630   3.342 -0.0973 -0.2023  0.0311
 7600W        W24074   3.046   4.319   0.429  0.0078  0.3179  0.2675
 7601W        W24075   3.291   3.129  14.157 -0.1364  0.0526 -0.1576
 7602W        W24076  16.667  10.371   4.584  0.1591 -0.1400  0.2240
 7603W        W24077  16.994  16.610   4.725  0.1057 -0.0769  0.0788
 7604W        W24078   5.346  15.344   0.952 -0.0856  0.0535  0.2122
 7605W        W24079   7.051  13.368   3.716 -0.0944 -0.0825 -0.0933
 7606W        W24080  12.500  12.966   4.699  0.0112 -0.1655 -0.4335
 7607W        W24081  15.993  16.137  12.083 -0.3263 -0.0735 -0.2549
 7608W        W24082   2.694  17.374  15.600  0.0616 -0.2005  0.0739
 7609W        W24083   3.831   0.851   3.929  0.2324 -0.0088 -0.3872
 7610W        W24084   9.280   2.101   4.034 -0.1522 -0.0183 -0.3244
 7611W        W24085  15.522   1.525   3.425 -0.1563 -0.0419 -0.3370
 7612W        W24086   4.494   8.367   1.453  0.0543 -0.3116  0.0357
 7613W        W24087   8.178  10.396   4.704  0.0305 -0.0171  0.2481
 7614W        W24088   1.351   6.885   0.019 -0.3861  0.0933 -0.2681
 7615W        W24089   8.246   8.505  15.699 -0.1956 -0.0327  0.0594
 7616W        W24090  17.730  10.461   1.271  0.2815  0.3293 -0.1984
 7617W        W24091  16.929   3.149   5.195  0.0916 -0.2998 -0.2801
 7618W        W24092   4.706   6.510  15.019  0.0599  0.2755  0.1393
 7619W        W24093   0.589   1.463  15.593  0.3683 -0.0578 -0.0127
 7620W        W24094   6.749   9.483   2.535  0.1116 -0.0473 -0.1122
 7621W        W24095   7.952   2.882   0.369 -0.1688  0.0741  0.1249
 7622W        W24096  14.717   6.176   3.752  0.4432  0.2879 -0.1624
 7623W        W24097   9.219   6.783  13.228 -0.1884 -0.1578 -0.1116
 7624W        W24098  14.260  12.239  11.763 -0.3479 -0.1234 -0.1185
 7625W        W24099   7.529   0.284  16.028  0.0201 -0.2488  0.1037
 7626W        W24100   2.006   5.168  16.845 -0.0882  0.3204  0.0901
 7627W        W24101   4.841   0.158   3.709  0.2219 -0.0863  0.2351
 7628W        W24102   5.810  13.879  15.250 -0.0343  0.0018  0.0838
 7629W        W24103  12.762  13.905   4.180  0.3843 -0.1538 -0.0836
 7630W        W24104   6.321  12.796   0.218 -0.0550 -0.1304  0.1787
 7631W        W24105   5.390  16.757  12.312 -0.1959 -0.1966 -0.0059
 7632W        W24106   2.726   5.128  14.906 -0.0431  0.0887 -0.1442
 7633W        W24107  14.062   8.601   1.648 -0.0161  0.0710 -0.0220
 7634W        W24108  12.069   3.595   5.065 -0.2829  0.4305  0.4632
 7635W        W24109  15.638   8.076   4.144 -0.1361  0.0870 -0.0811
 7636W        W24110  12.136   9.420   3.844  0.0303  0.0937  0.0969
 7637W        W24111  15.282  13.377  15.788 -0.2363  0.0340  0.2276
 7638W        W24112   3.952   7.123   4.711 -0.0089  0.4344 -0.2111
 7639W        W24113  15.136   8.911   3.032 -0.1116  0.3364 -0.0720
 7640W        W24114  10.592   3.434  13.913  0.2214 -0.2122  0.3152
 7641W        W24115   5.111   0.965   1.871 -0.0695 -0.1307  0.0265
 7642W        W24116   4.052  12.184  16.696 -0.1521 -0.2632 -0.1935
 7643W        W24117   0.373  15.402   4.389  0.0220  0.0959 -0.1350
 7644W        W24118   6.163   8.864  10.956  0.1993  0.0746 -0.1858
 7645W        W24119   5.580   5.689  11.243  0.1704  0.0681 -0.0572
 7646W        W24120   3.127   2.201  12.513  0.1254 -0.0954  0.0884
 7647W        W24121   6.626  14.169   2.059  0.0463 -0.2283  0.0892
 7648W        W24122  16.647   5.708  12.524 -0.0640 -0.1594 -0.2223
 7649W        W24123   2.336  16.214   4.966 -0.2302  0.0820  0.0753
 7650W        W24124   8.015   1.796  15.341 -0.1642  0.1278 -0.3445
 7651W        W24125   2.910  15.360   5.131  0.0744  0.0748 -0.0634
 7652W        W24126  17.758  13.098   3.709  0.2218 -0.0808  0.1004
 7653W        W24127  14.062   4.189   1.470 -0.0867 -0.2097 -0.2502
 7654W        W24128   7.833   1.117  13.809 -0.1671 -0.1096  0.1788
 7655W        W24129   1.445  15.743   0.851  0.2369  0.2471  0.0887
 7656W        W24130   7.219  16.362  16.596  0.1878  0.1657 -0.0689
 7657W        W24131  14.879  12.817  12.474 -0.3790  0.2237 -0.0724
 7658W        W24132   9.870   6.427   5.655 -0.0872 -0.1028  0.1900
 7659W        W24133   5.559  12.007   0.412  0.1426 -0.0930  0.1084
 7660W        W24134   2.248  17.000  12.571  0.3444 -0.4069 -0.1490
 7661W        W24135   7.093   6.463   3.357  0.2617  0.0344 -0.3732
 7662W        W24136   4.923   9.103  11.989 -0.1166  0.1947  0.1610
 7663W        W24137   9.827   6.770  13.131  0.0745 -0.2157 -0.0806
 7664W        W24138  12.832  10.563  12.181  0.2758  0.2007 -0.1254
 7665W        W24139   7.674   2.011  12.385 -0.0323  0.1841 -0.1928
 7666W        W24140  12.178  14.620  11.417  0.1867  0.0427  0.0262
 7667W        W24141   4.165  11.808  16.405 -0.0961  0.0671  0.2043
 7668W        W24142   6.201   1.277  14.254 -0.2460 -0.1079  0.1199
 7669W        W24143   3.402   7.906  14.405 -0.0992 -0.0362  0.2172
 7670W        W24144  17.189  14.693  11.644  0.1565  0.2689 -0.2525
 7671W        W24145  16.829  10.343  11.179 -0.1421  0.0779  0.3691
 7672W        W24146   1.389  16.810  14.686  0.1680  0.1595 -0.0393
 7673W        W24147  10.022   4.892  15.920  0.0178 -0.0983 -0.2239
 7674W        W24148  11.507   2.226  12.659  0.1376 -0.3653 -0.0817
 7675W        W24149  16.911   2.932   5.650  0.0726  0.2002 -0.3402
 7676W        W24150   6.755  16.233  13.531 -0.3821  0.0357 -0.1918
 7677W        W24151  14.056   9.001   3.833  0.0598 -0.0544  0.2311
 7678W        W24152   7.346   1.879   0.832  0.0131 -0.1368 -0.1087
 7679W        W24153   8.436   0.929  16.450 -0.0136 -0.3133  0.2482
 7680W        W24154  14.998   1.942   1.791 -0.0623  0.0378 -0.1709
 7681W        W24155   3.355   5.838  12.295 -0.0267  0.2028 -0.1604
 7682W        W24156  16.350   7.767  11.816 -0.2100 -0.1193 -0.1845
 7683W        W24157  15.433   8.778   2.624  0.1384 -0.0164 -0.0418
 7684W        W24158  13.786  16.148   1.132  0.2699 -0.0547 -0.0443
 7685W        W24159  17.014   3.166  14.596 -0.0869 -0.3445  0.1149
 7686W        W24160   7.179   3.689  15.418 -0.0837  0.1067 -0.0749
 7687W        W24161   7.513  12.401   3.064 -0.1001  0.1942  0.0044
 7688W        W24162  13.895   1.981   3.874 -0.0782 -0.1226  0.0734
 7689W        W24163   3.508   8.545  11.068 -0.0647  0.0161  0.1920
 7690W        W24164  14.614   5.704  16.560  0.0670 -0.2339 -0.4265
 7691W        W24165   8.902  11.909   2.909  0.0485  0.0484 -0.0535
 7692W        W24166   6.542  14.129   5.092  0.0687  0.1961 -0.0716
 7693W        W24167   8.285   1.205   3.951  0.0496 -0.2188  0.0666
 7694W        W24168   6.847   6.015   1.751  0.1727 -0.2460  0.1609
 7695W        W24169  13.003  12.842   6.126  0.0364  0.1155  0.0557
 7696W        W24170   8.965   3.758  15.217  0.2611  0.1210 -0.2393
 7697W        W24171  16.605  12.410  12.626  0.1330 -0.0480  0.0782
 7698W        W24172  15.045   0.228  14.985  0.0301 -0.0172  0.0056
 7699W        W24173   2.563  12.563  15.114  0.2109 -0.0624  0.2874
 7700W        W24174   5.462   9.728   3.729  0.1668 -0.0566  0.0567
 7701W        W24175  10.503   2.434   3.774 -0.2257 -0.0488 -0.0080
 7702W        W24176  17.332   3.481  13.298  0.2255 -0.2246 -0.1831
 7703W        W24177   0.065   3.750  12.520 -0.1031  0.2983  0.0033
 7704W        W24178   8.501   4.648   3.305  0.0787  0.1844  0.2235
 7705W        W24179  11.536   4.170   6.131 -0.0940  0.0893  0.0158
 7706W        W24180   8.407  17.081  11.424  0.1784 -0.1292  0.0873
 7707W        W24181   9.617   6.858  14.517 -0.0620 -0.0641  0.0844
 7708W        W24182  11.406   4.285   0.943 -0.3908 -0.0247 -0.1082
 7709W        W24183   4.514   0.759   6.237 -0.0319  0.2223 -0.0716
 7710W        W24184   7.078  16.962   1.377  0.0620 -0.3592  0.2148
 7711W        W24185   0.703  12.915  13.512  0.3012 -0.1893 -0.2627
 7712W        W24186   7.358   1.983  15.649 -0.0228 -0.1369 -0.1885
 7713W        W24187   3.094   5.569  13.981  0.0487  0.0952 -0.0445
 7714W        W24188   8.638   1.299   4.423  0.0270  0.1969 -0.4925
 7715W        W24189   2.181   9.255  16.520 -0.4533  0.1859  0.2532
 7716W        W24190  11.081   8.621   4.601  0.2387  0.2974  0.1127
 7717W        W24191  13.486  15.842  13.373  0.1527  0.2217 -0.0905
 7718W        W24192   4.645   5.448   1.037 -0.0303 -0.2844  0.0061
 7719W        W24193  11.420   0.932  13.140  0.1954 -0.2235  0.0095
 7720W        W24194  10.419  16.932  16.078  0.2426 -0.1486 -0.0111
 7721W        W24195   6.692   0.968   5.289 -0.0022  0.0250 -0.0928
 7722W        W24196   8.031  12.320   1.923 -0.1698 -0.2436 -0.0809
 7723W        W24197   3.690  17.398   1.954 -0.0589 -0.2453  0.0440
 7724W        W24198  16.775   3.565  12.028 -0.0994  0.0137 -0.1683
 7725W        W24199  10.347   7.590   6.230 -0.1355  0.1621  0.0426
 7726W        W24200  10.970  14.155  15.115 -0.1754  0.0025 -0.0406
 7727W        W24201  11.353  16.210  13.872  0.1067  0.0529  0.1418
 7728W        W24202   8.068   2.480   4.203 -0.1021 -0.3893 -0.0528
 7729W        W24203  14.816  15.547   3.404 -0.0173  0.0325 -0.4417
 7730W        W24204  13.008   2.664   3.114  0.0960 -0.2342  0.1028
 7731W        W24205  14.426  14.521   1.250 -0.1139  0.0239 -0.2466
 7732W        W24206   6.288  17.254   1.275 -0.3670  0.4223  0.1335
 7733W        W24207  11.861  10.388  14.300 -0.3414  0.1075 -0.2850
 7734W        W24208  10.698  10.862   2.646  0.1943 -0.2011 -0.0988
 7735W        W24209   8.192  17.210   0.318 -0.0230 -0.1166 -0.1142
 7736W        W24210   0.091  12.509   1.946 -0.3393  0.2497 -0.0525
 7737W        W24211  14.510   9.249   3.782 -0.0301  0.1464 -0.0706
 7738W        W24212   6.879  13.837  11.877 -0.0667  0.0311  0.4685
 7739W        W24213  14.265  15.667   3.768  0.1935 -0.0404  0.1902
 7740W        W24214   9.725   6.863  15.697 -0.1076 -0.0565  0.0233
 7741W        W24215   9.830   6.888   2.603 -0.2110 -0.1967 -0.2318
 7742W        W24216   4.016   8.058   1.760  0.0372 -0.3835  0.1274
 7743W        W24217  15.660   8.545  13.703  0.0660 -0.0843  0.4267
 7744W        W24218   1.153  16.984  13.093  0.0507  0.0231  0.0498
 7745W        W24219   1.262   1.957   1.980 -0.2292 -0.3729  0.0420
 7746W        W24220   8.740   3.490  12.046  0.4754 -0.1828  0.2379
 7747W        W24221   2.089  13.145  15.746  0.1836 -0.3100  0.2241
 7748W        W24222   1.968  16.556  14.320 -0.0959  0.1501 -0.3361
 7749W        W24223   4.210   6.819   4.325 -0.0802  0.0629  0.1147
 7750W        W24224  10.504  10.082  14.109  0.1180 -0.1164  0.0130
 7751W        W24225   2.469  15.362   3.773  0.0438  0.2581  0.1424
 7752W        W24226  10.779  14.042  11.477 -0.1788  0.0960 -0.0386
 7753W        W24227   4.940   3.472  12.001 -0.0930  0.0076  0.0712
 7754W        W24228  13.322  17.737  15.090  0.0763  0.0597 -0.3655
 7755W        W24229  16.338  17.694   2.359 -0.0201  0.0965  0.0138
 7756W        W24230   6.958   1.314  14.754 -0.0391 -0.3104 -0.1124
 7757W        W24231   2.934   2.635  14.283 -0.1224  0.1240 -0.1161
 7758W        W24232   5.200  16.833   3.379 -0.4814  0.0029  0.0763
 7759W        W24233   0.753   0.258  14.819  0.0161  0.1078  0.2231
 7760W        W24234  16.878   6.830   4.963  0.1089  0.2079  0.2119
 7761W        W24235  13.422   6.051  16.027  0.1792 -0.2041  0.1009
 7762W        W24236  16.391   5.521   2.253  0.0483  0.0410 -0.0950
 7763W        W24237   4.883   7.949  12.127  0.1936 -0.1262  0.0579
 7764W        W24238   5.662  17.561  14.306 -0.1055  0.1794 -0.2537
 7765W        W24239  10.724  13.530   4.423 -0.1344 -0.2211 -0.1554
 7766W        W24240   4.861  16.002  15.465  0.0696  0.2448  0.0300
 7767W        W24241   5.925   1.731  14.406  0.0945  0.2644  0.1113
 7768W        W24242  14.220  12.384  13.110 -0.0663 -0.0351 -0.0929
 7769W        W24243   7.274   7.226  12.029  0.1391  0.0549  0.3985
 7770W        W24244   3.553   5.653   0.442  0.1907  0.0042 -0.3420
 7771W        W24245  11.113   3.506  12.814  0.0819 -0.1202  0.0945
 7772W        W24246   2.860   4.274   2.011  0.1699 -0.2503 -0.1334
 7773W        W24247   4.005   9.317  15.497  0.0035 -0.1974  0.0635
 7774W        W24248   1.573   7.845   2.987  0.1012 -0.1167 -0.0301
 7775W        W24249   2.043   2.351  15.139  0.2424  0.0650  0.0211
 7776W        W24250  10.381   6.660   3.845  0.1053  0.2940  0.2078
 7777W        W24251   5.293   7.291   4.428 -0.0054 -0.0203 -0.4143
 7778W        W24252  17.714   1.522   5.921 -0.1052  0.2470  0.0421
 7779W        W24253   1.759   0.107  11.543  0.1440 -0.3050 -0.1520
 7780W        W24254  17.759  12.089  16.678  0.1118  0.3110 -0.0972
 7781W        W24255   1.966   9.097   1.056  0.1958 -0.1947 -0.3242
 7782W        W24256  17.819  16.271   3.120  0.2367 -0.0810 -0.0429
 7783W        W24257   3.351   6.876   2.700 -0.2380  0.1348  0.2313
 7784W        W24258   9.694  14.190   4.579 -0.0921 -0.0704 -0.2345
 7785W        W24259  13.468   2.105  15.527  0.3818 -0.0445 -0.4885
 7786W        W24260  12.475   7.790   3.626 -0.5142  0.1690  0.0848
 7787W        W24261  16.528  12.060   0.955 -0.1256  0.1030  0.1991
 7788W        W24262  13.722   3.143  16.478 -0.0940 -0.0066 -0.0668
 7789W        W24263   2.705   8.647  15.282 -0.0074  0.1024 -0.2481
 7790W        W24264   3.251  16.780  14.453 -0.0218  0.0468  0.0242
 7791W        W24265   0.817   6.561   0.307  0.1433 -0.1069 -0.0609
 7792W        W24266  13.223  13.409  15.909 -0.0841 -0.0028 -0.1820
 7793W        W24267   8.921  12.999  15.129 -0.0269  0.3253 -0.1074
 7794W        W24268   2.797   9.058  14.967  0.2945  0.1508  0.1360
 7795W        W24269  13.392   6.853  13.385 -0.2800  0.0685 -0.0546
 7796W        W24270   6.993  10.809  15.447 -0.2716 -0.0296 -0.2667
 7797W        W24271  11.536  12.771   4.646  0.1019  0.0052 -0.1808
 7798W        W24272   7.860  12.392   5.215  0.1566  0.0036  0.2376
 7799W        W24273   7.953   5.109   4.966 -0.1989 -0.0596  0.0099
 7800W        W24274  15.531  13.130   4.674  0.2234  0.0902 -0.0345
 7801W        W24275   8.530   5.622   1.080 -0.1210  0.1290  0.0434
 7802W        W24276   6.034   0.477  14.203 -0.0393  0.2156  0.1703
 7803W        W24277   4.299   3.825   5.494  0.2458 -0.1640  0.2988
 7804W        W24278   1.174  11.639   4.821 -0.3916  0.0181  0.1985
 7805W        W24279   2.787  13.467  14.134 -0.0556 -0.1179 -0.2737
 7806W        W24280   7.204  10.516  16.741 -0.0243  0.0585 -0.1259
 7807W        W24281  10.304  11.603   6.517  0.1317  0.0131  0.1217
 7808W        W24282   1.414   1.767   4.728  0.1341  0.2086  0.4947
 7809W        W24283   6.704   0.692   0.400  0.0726  0.1038  0.0772
 7810W        W24284   3.801   9.342   4.358  0.1122  0.1395  0.0733
 7811W        W24285   5.669   3.464   1.205 -0.1920  0.0244  0.1583
 7812W        W24286  16.951  12.222  15.410  0.0568 -0.1655  0.0624
 7813W        W24287   4.095   5.203  12.663 -0.0138 -0.1444 -0.0492
 7814W        W24288   0.409   5.718  12.922  0.1044 -0.2146 -0.2502
 7815W        W24289  10.143   9.898   3.287 -0.1213  0.2018 -0.1684
 7816W        W24290  11.680   0.644   4.703 -0.2006  0.0198  0.0024
 7817W        W24291  10.203   6.484   1.567  0.0899  0.1360 -0.0016
 7818W        W24292  11.259   9.586   0.795 -0.3410  0.1343 -0.1786
 7819W        W24293  17.358  10.043   3.499 -0.2084 -0.0913 -0.3651
 7820W        W24294   4.305   8.199  15.534  0.1613  0.4044  0.1317
 7821W        W24295  16.464   2.456   4.187  0.1555 -0.0010  0.1619
 7822W        W24296  13.817  14.156   5.960 -0.0413 -0.0647  0.0124
 7823W        W24297   8.664   0.567   3.090 -0.2530 -0.0477 -0.2529
 7824W        W24298   1.823   1.040   4.351  0.1079 -0.1693 -0.1272
 7825W        W24299   4.122   7.617  12.688  0.1900  0.0223  0.0811
 7826W        W24300   5.107  11.080  16.711  0.1297 -0.0886 -0.0490
 7827W        W24301  10.907  15.168   5.124 -0.2742 -0.2760 -0.4364
 7828W        W24302  10.047   8.945  12.496 -0.0952  0.2143 -0.0655
 7829W        W24303  16.423   1.034   4.196  0.2311  0.3535 -0.1989
 7830W        W24304  16.353  11.616   3.682 -0.1201  0.2690  0.6574
 7831W        W24305   7.328   6.934   3.048  0.0665 -0.0934  0.1944
 7832W        W24306   8.243   4.058  12.457  0.1908 -0.1394 -0.1734
 7833W        W24307   9.393   9.531  15.328  0.1775 -0.0115 -0.3610
 7834W        W24308  17.589   3.729   4.247  0.0070  0.2806  0.3538
 7835W        W24309  11.725  10.653   4.361  0.0825 -0.3061 -0.1554
 7836W        W24310  16.953  14.449   5.071 -0.3622  0.1805 -0.3245
 7837W        W24311   1.879  16.006  16.772  0.2610 -0.0058  0.2003
 7838W        W24312   6.967  11.952   2.726 -0.2192 -0.0527 -0.0073
 7839W        W24313   7.761  14.377  11.680 -0.0673  0.1431 -0.1966
 7840W        W24314   0.456  11.350  12.633  0.1069 -0.2594 -0.2570
 7841W        W24315  16.003   4.782  12.780  0.0000  0.0985  0.3247
 7842W        W24316  14.244  12.566   0.236 -0.0146 -0.0283 -0.0820
 7843W        W24317  15.881   7.379  16.045 -0.0910 -0.0805  0.0090
 7844W        W24318  13.220   9.841  12.629 -0.1151 -0.1502  0.2625
 7845W        W24319  15.351   5.031   1.771 -0.0228 -0.0440  0.2401
 7846W        W24320  16.823  15.167  13.561 -0.3882 -0.1226  0.2057
 7847W        W24321   2.783  11.961  14.679 -0.0415 -0.0250 -0.1142
 7848W        W24322   0.701   1.143  16.483  0.1366 -0.0586  0.3899
 7849W        W24323  12.521   6.561  16.827  0.0169  0.2703  0.2209
 7850W        W24324   7.652  15.223  15.470 -0.3467  0.1537  0.1228
 7851W        W24325   7.898  10.163   2.469 -0.0323  0.1200 -0.0053
 7852W        W24326   4.520   9.002   0.834 -0.1029  0.0766  0.0876
 7853W        W24327   0.039   7.028   3.987 -0.1171  0.0259  0.0312
 7854W        W24328   9.574  12.279   2.313  0.0429  0.0873 -0.2355
 7855W        W24329  10.111   2.719  16.638  0.0331  0.0358  0.0193
 7856W        W24330   2.435   3.151  12.539  0.1224  0.0843 -0.1330
 7857W        W24331  11.763   8.597   4.461  0.1248  0.2664 -0.0952
 7858W        W24332   8.968   0.418   0.893 -0.1454  0.0310  0.1254
 7859W        W24333  16.023  12.273   4.786  0.0629  0.0381 -0.2230
 7860W        W24334  14.552   6.519   3.344 -0.0042 -0.1618  0.2742
 7861W        W24335  17.768  11.024   2.912  0.2029  0.2956 -0.0462
 7862W        W24336  10.685   0.828  12.166  0.0777  0.0689  0.0533
 7863W        W24337   7.112  17.684   0.525 -0.1717  0.0160  0.0694
 7864W        W24338  16.081   9.603  12.603 -0.4049  0.0615 -0.0417
 7865W        W24339   2.497   1.681  12.853 -0.1385  0.2629 -0.0510
 7866W        W24340   0.508   4.231   2.125  0.0218  0.3719  0.2003
 7867W        W24341   0.713   0.683   5.202 -0.0566  0.2042 -0.0684
 7868W        W24342   1.599   3.868   0.321  0.1580  0.3322 -0.2607
 7869W        W24343  16.594   4.832  15.046  0.0189  0.0350  0.0597
 7870W        W24344   7.653  16.615  16.659 -0.3441 -0.1699  0.0943
 7871W        W24345   7.758  11.217   0.988 -0.0461  0.1335  0.0810
 7872W        W24346  11.644  11.250   3.209  0.4583  0.0697 -0.0592
 7873W        W24347   3.128   4.613  13.653 -0.1361  0.2109 -0.3179
 7874W        W24348  11.087   5.941   5.148 -0.0315  0.0275 -0.0426
 7875W        W24349  12.011  15.924  14.920  0.0741  0.2568 -0.1360
 7876W        W24350  13.046   5.888   2.454  0.2277 -0.1218  0.0122
 7877W        W24351  17.746   1.958  16.753  0.2484 -0.0585 -0.3465
 7878W        W24352  11.249  12.132  14.991 -0.0988 -0.0885  0.0454
 7879W        W24353   8.796   9.867   3.396  0.4103 -0.0342  0.0391
 7880W        W24354   2.999   5.496   1.613 -0.0248  0.0721 -0.0233
 7881W        W24355  10.716   3.146   4.029 -0.1460 -0.1486  0.2387
 7882W        W24356   1.711   4.035  13.899  0.0426  0.1499 -0.0756
 7883W        W24357   6.301   4.875  13.552 -0.1374 -0.1220  0.0070
 7884W        W24358  12.222  14.587   0.498 -0.0618 -0.1129  0.2727
 7885W        W24359  13.135  11.610  11.703  0.2280 -0.0518  0.1046
 7886W        W24360  16.147  11.095   3.647 -0.1493  0.1749  0.1760
 7887W        W24361  11.851  11.959   3.848  0.2091  0.1061  0.1190
 7888W        W24362   0.444  15.913   5.187 -0.0270  0.1291  0.1399
 7889W        W24363   6.525   6.120  15.699  0.2288 -0.1737  0.0591
 7890W        W24364  17.284  10.153  13.425 -0.3539 -0.2021 -0.1438
 7891W        W24365  13.117   3.209   3.124 -0.0662 -0.1828  0.0961
 7892W        W24366  16.951   1.384   2.899  0.0165  0.0350  0.0588
 7893W        W24367   3.794   7.471  14.354 -0.0552 -0.0109  0.1834
 7894W        W24368  14.358  10.746   0.401  0.0964 -0.1498  0.0810
 7895W        W24369   8.728  10.251  16.126  0.0888  0.0786 -0.1726
 7896W        W24370  17.679  14.604  12.024  0.2079 -0.2013  0.0761
 7897W        W24371  16.705  11.552   2.452 -0.0748 -0.3289  0.0360
 7898W        W24372   2.874  15.439   0.178  0.0421 -0.0312  0.0814
 7899W        W24373  12.022   1.919  11.964  0.4041 -0.0822  0.1208
 7900W        W24374   7.423  15.723  15.625 -0.1581 -0.2721  0.0217
 7901W        W24375   9.579  15.301  14.837 -0.1039 -0.1176  0.1343
 7902W        W24376  17.072  15.581  12.697  0.0805 -0.1738  0.0324
 7903W        W24377   3.542   5.930  11.269 -0.1418 -0.0660 -0.0953
 7904W        W24378  16.702   7.308  13.346  0.1687  0.1127 -0.1960
 7905W        W24379   5.879   3.143  15.480 -0.0131 -0.1537  0.1628
 7906W        W24380   4.786   6.955  11.993  0.0970 -0.2994  0.2007
 7907W        W24381  12.115   8.444  14.099  0.1309 -0.2292  0.0978
 7908W        W24382   0.899  16.126   1.354  0.1263  0.0086  0.1011
 7909W        W24383   7.320  17.560   3.151  0.0359 -0.2968 -0.1083
 7910W        W24384  12.260   4.920  12.310  0.3099 -0.0555 -0.0146
 7911W        W24385  14.651   5.943   2.168  0.0402  0.0854 -0.0199
 7912W        W24386  13.652   1.292   3.957  0.2504 -0.0793  0.2019
 7913W        W24387   4.681   8.962   4.774 -0.2882  0.2750  0.1184
 7914W        W24388  14.028   8.411  15.987  0.3293  0.0221  0.0418
 7915W        W24389   2.354   6.907  14.918  0.2827 -0.0241  0.0890
 7916W        W24390  14.334   5.601  12.738 -0.0397  0.0468 -0.1053
 7917W        W24391   1.570   8.017   5.104 -0.2442 -0.0090 -0.1361
 7918W        W24392   1.435   4.331   3.204  0.1662  0.2390  0.1379
 7919W        W24393  17.264   2.678   0.760  0.1482  0.1458  0.0104
 7920W        W24394   7.660   7.960   1.391 -0.3909  0.0748  0.0129
 7921W        W24395   7.680  13.069   0.512  0.1812  0.0023 -0.1067
 7922W        W24396   0.975  14.703   4.991 -0.1516 -0.0668 -0.0538
 7923W        W24397   3.573   0.158  14.749  0.0354  0.1815 -0.0787
 7924W        W24398   6.245  10.528  14.062  0.0164  0.1440 -0.1175
 7925W        W24399  12.845   4.680  16.889 -0.0885  0.0106 -0.0903
 7926W        W24400   2.215  15.987   5.362  0.0874 -0.1817 -0.0399
 7927W        W24401   3.317   9.476   0.106 -0.0650  0.2561 -0.1518
 7928W        W24402   9.205   3.741  14.769 -0.2030  0.1019  0.1479
 7929W        W24403  10.767   8.534  14.727 -0.2354 -0.2139  0.2690
 7930W        W24404   8.590  10.775   3.990 -0.1858  0.1525  0.0578
 7931W        W24405   9.417  12.392  12.324 -0.0870 -0.2047  0.2256
 7932W        W24406  15.074   2.182   6.479 -0.0611  0.2966  0.2116
 7933W        W24407   6.470   0.084  13.111  0.3422  0.1748 -0.0160
 7934W        W24408   2.391  16.184  16.101 -0.0232  0.3253  0.1622
 7935W        W24409  17.442  15.060   5.499 -0.0514  0.1316  0.0599
 7936W        W24410  13.555   9.387  13.467 -0.1813 -0.0111 -0.1440
 7937W        W24411   4.603  17.218  13.399  0.2643 -0.1098  0.2101
 7938W        W24412   3.573   0.636  16.909 -0.1773 -0.2767 -0.1098
 7939W        W24413   1.748   7.083  11.462 -0.1465  0.0738  0.1256
 7940W        W24414  17.356   3.094  13.550  0.0672 -0.2635 -0.5344
 7941W        W24415   6.034   9.964   5.001 -0.2696  0.3945  0.1032
 7942W        W24416  14.958  15.254  13.234 -0.2312  0.0488 -0.0644
 7943W        W24417  10.351   6.886   2.724 -0.0828 -0.1584 -0.0836
 7944W        W24418   5.454  12.415  13.295  0.1348  0.0120  0.0615
 7945W        W24419  14.641  11.344  12.164  0.0515  0.4487  0.3656
 7946W        W24420  13.905   1.010   1.578 -0.1628 -0.1838 -0.1129
 7947W        W24421   0.384   9.113  12.246  0.3341  0.1346 -0.3644
 7948W        W24422   0.051   6.060   4.071  0.1256  0.4115 -0.4339
 7949W        W24423   1.244   6.472  13.124  0.1335  0.2286 -0.1288
 7950W        W24424   5.488   1.397   3.470  0.1232  0.0044 -0.0932
 7951W        W24425  10.551   6.542  13.529  0.2314  0.0724 -0.1146
 7952W        W24426   9.619   4.331   2.928  0.0609 -0.0511  0.1714
 7953W        W24427  14.811   2.794   5.009  0.2466  0.1388 -0.0121
 7954W        W24428  11.015   5.636  14.455 -0.1672  0.1485  0.0241
 7955W        W24429   8.889   3.109   0.316 -0.0700  0.0301  0.2146
 7956W        W24430   2.781   8.299  14.835  0.3373 -0.1511 -0.1041
 7957W        W24431  16.772   0.486  15.113  0.1990 -0.1035  0.1685
 7958W        W24432  14.100  14.581  16.259 -0.0453 -0.3285  0.0476
 7959W        W24433   1.164  11.782   9.690  0.1107 -0.1591 -0.0096
 7960W        W24434   5.913   8.992  15.815  0.0909  0.1151  0.0101
 7961W        W24435   2.308  17.029   4.565 -0.0411  0.3638 -0.1498
 7962W        W24436  16.466  13.073  14.516  0.2020  0.0101 -0.3292
 7963W        W24437   2.966  12.831   1.029 -0.0551 -0.2846 -0.0256
 7964W        W24438   3.967  13.080  14.805  0.3069  0.0105 -0.1299
 7965W        W24439   2.850  17.777  12.779  0.5018 -0.1043  0.1043
 7966W        W24440   1.022   9.455   3.127 -0.0587  0.3489  0.0614
 7967W        W24441   0.443  11.119   3.819 -0.1893  0.0758 -0.1826
 7968W        W24442   6.279  15.489  16.191  0.2130 -0.1377  0.0462
 7969W        W24443  14.575  12.548  12.735 -0.0986 -0.3552  0.0574
 7970W        W24444   3.949  12.442  11.563  0.0401 -0.1261  0.0134
 7971W        W24445  11.795  17.694  15.912 -0.2437 -0.3475 -0.0544
 7972W        W24446  14.094   1.359  15.094  0.0366 -0.0822 -0.1960
 7973W        W24447   6.260  14.877   4.667  0.0002  0.1030 -0.0230
 7974W        W24448  12.620   2.248   3.443  0.0046  0.0344 -0.0350
 7975W        W24449   5.860  17.814  14.922 -0.0593 -0.0542 -0.1822
 7976W        W24450  10.195   9.381  14.137  0.1664 -0.1954 -0.0152
 7977W        W24451   2.019   8.281  13.291 -0.2538 -0.0748 -0.0096
 7978W        W24452  15.100   0.383  14.424 -0.0461 -0.2104  0.0248
 7979W        W24453  16.109  13.865  14.083 -0.1492  0.0852  0.2767
 7980W        W24454   0.832   3.670  12.161  0.2334 -0.1004 -0.0098
 7981W        W24455  15.190   2.560   5.823 -0.3091 -0.0005  0.0079
 7982W        W24456  16.073   0.744   2.849 -0.0692  0.0062 -0.1007
 7983W        W24457  10.576   7.166  11.800  0.2893  0.0931  0.0551
 7984W        W24458   5.374   9.825  16.919  0.0837 -0.1806  0.2269
 7985W        W24459  12.649  13.569  16.454  0.1611  0.0862  0.1717
 7986W        W24460   6.530   7.985  16.578 -0.2118 -0.1188  0.2877
 7987W        W24461   6.635  17.011   5.924 -0.1012 -0.0813 -0.2195
 7988W        W24462  16.923   0.406  12.225  0.1788  0.0774 -0.0187
 7989W        W24463   2.891   4.547  15.922 -0.0139 -0.1794 -0.1080
 7990W        W24464   7.292   0.812   1.506 -0.1190 -0.1423  0.0866
 7991W        W24465  17.078  15.528   1.310 -0.1000  0.0796  0.1372
 7992W        W24466   7.248  16.574  14.917  0.1091  0.0188 -0.2142
 7993W        W24467  10.761   3.736   4.960 -0.0446  0.0121 -0.1185
 7994W        W24468  11.463   2.911   3.922  0.1107  0.0544  0.3467
 7995W        W24469   3.264   8.665   1.306 -0.0280  0.1392  0.0601
 7996W        W24470  15.416  16.027  14.184 -0.1815 -0.1816 -0.0538
 7997W        W24471  17.772   8.237   3.068  0.2361 -0.0470 -0.2741
 7998W        W24472   2.222  11.303   4.034 -0.0149 -0.0177  0.0890
 7999W        W24473   6.502  11.023   3.328 -0.0914 -0.4554 -0.2255
 8000W        W24474  10.190  12.042  13.185 -0.3275 -0.0791  0.1602
 8001W        W24475   8.617  12.495  11.951 -0.1192 -0.0974 -0.0384
 8002W        W24476  16.872   9.535  15.008  0.1799 -0.2515  0.2897
 8003W        W24477   7.750  12.170  14.935  0.2133  0.2017 -0.0374
 8004W        W24478  10.164   1.595   3.919 -0.1192 -0.2153  0.0951
 8005W        W24479  13.541   3.255   0.649 -0.0409 -0.1342 -0.0860
 8006W        W24480   2.992  10.717   0.717  0.0368 -0.0248 -0.0560
 8007W        W24481  11.408  14.428   2.305 -0.0192  0.0677  0.0307
 8008W        W24482  13.732   9.244   4.968 -0.1230  0.0119 -0.0153
 8009W        W24483   3.451   8.086   1.998  0.0765 -0.1882 -0.1205
 8010W        W24484  11.701   0.266  16.773 -0.2848 -0.0451  0.3013
 8011W        W24485  10.477   4.180   2.983  0.1421  0.2516 -0.0138
 8012W        W24486  13.719   7.070  14.993  0.0408 -0.0748  0.0179
 8013W        W24487   9.098   8.497   0.818 -0.1657  0.0571  0.1179
 8014W        W24488   9.450   9.126  11.568  0.0895  0.0592 -0.0040
 8015W        W24489   5.561   0.197   4.706 -0.2621 -0.0407  0.1795
 8016W        W24490   7.081   2.976  14.058 -0.2478 -0.0296  0.1024
 8017W        W24491   5.307   9.518   3.228 -0.0584 -0.2303  0.6400
 8018W        W24492  13.988  14.164  14.758 -0.0841  0.0189 -0.0391
 8019W        W24493  11.761  14.271   3.260 -0.0908 -0.1207 -0.0825
 8020W        W24494   8.678   6.877   0.746  0.3420 -0.1100  0.2261
 8021W        W24495  17.676  15.720  15.222 -0.0442 -0.0154 -0.1056
 8022W        W24496  13.780  15.012  16.293  0.2639 -0.2602 -0.2359
 8023W        W24497   0.182   4.951  16.647 -0.0314 -0.5210 -0.0996
 8024W        W24498  16.441   3.814   1.055  0.0841  0.1902  0.1347
 8025W        W24499  12.577  10.242  13.198  0.0613  0.1110 -0.1378
 8026W        W24500  14.476  14.090   3.426  0.0636 -0.1791  0.2790
 8027W        W24501   3.262   6.124   4.528  0.1185 -0.2188  0.0651
 8028W        W24502   4.998   1.308   2.883 -0.1742 -0.1903  0.4168
 8029W        W24503  15.204   7.276   0.757  0.0145 -0.3378 -0.1667
 8030W        W24504   4.975   3.457  15.553  0.2857  0.0703  0.0060
 8031W        W24505  13.909   0.076   5.771 -0.0409 -0.2516 -0.1473
 8032W        W24506   0.925  16.941   1.714 -0.0238  0.0742 -0.1593
 8033W        W24507  13.476   8.687  14.817  0.1970 -0.2149 -0.1079
 8034W        W24508  13.925  11.422   2.891  0.1119 -0.0048 -0.0064
 8035W        W24509  10.520  10.494   1.733 -0.0821  0.2223 -0.0216
 8036W        W24510   1.479   0.252   5.399 -0.3200 -0.1687 -0.3380
 8037W        W24511   8.874   3.166   3.097 -0.1742  0.0538 -0.1349
 8038W        W24512   9.162  12.635  14.229 -0.0961 -0.1932  0.1414
 8039W        W24513  12.074   7.697   0.984 -0.1166 -0.0594 -0.0770
 8040W        W24514   6.296   9.446   3.889 -0.1502  0.2757 -0.1481
 8041W        W24515  15.865  17.811   3.237 -0.1158  0.1970  0.1322
 8042W        W24516  16.818  16.474  14.414 -0.2764  0.0112  0.1955
 8043W        W24517  14.431  15.735  12.844 -0.0923 -0.1991  0.0488
 8044W        W24518  15.635   6.370  14.820  0.1844  0.1757  0.1863
 8045W        W24519   9.033  15.944  12.853 -0.0603  0.0182  0.1920
 8046W        W24520  17.403   3.319  12.025 -0.2100 -0.0879 -0.1987
 8047W        W24521  10.460  17.008  13.627  0.2190 -0.0194  0.2519
 8048W        W24522   9.463   7.424   1.339 -0.0494  0.0885  0.0966
 8049W        W24523  15.558  16.491   2.702  0.0112  0.1711  0.1754
 8050W        W24524   7.238  15.797   3.422  0.0932 -0.2624  0.0364
 8051W        W24525   8.918   8.362   1.632  0.1953 -0.2717 -0.0117
 8052W        W24526  15.517  15.577  13.979 -0.1050  0.1235  0.1895
 8053W        W24527   5.075   0.434  12.704  0.0584 -0.1960 -0.1794
 8054W        W24528   0.956   8.954  16.331  0.0948  0.0796  0.1186
 8055W        W24529   9.018   4.158   2.925 -0.0088 -0.1060 -0.1246
 8056W        W24530   0.354   8.893   4.155  0.2061  0.0784  0.0400
 8057W        W24531  13.209  12.652   4.969 -0.1873  0.0181 -0.0336
 8058W        W24532   7.381  11.934   3.098 -0.0070  0.3841  0.0959
 8059W        W24533   9.596  12.112   1.147  0.1636  0.0788  0.0428
 8060W        W24534   3.714   1.988  16.754 -0.3220  0.1325  0.1021
 8061W        W24535   5.387  13.953  13.451  0.2288 -0.1692 -0.0649
 8062W        W24536  17.020   0.581   0.427  0.1075 -0.0311  0.0200
 8063W        W24537  16.751   8.307  13.533 -0.2992  0.1117 -0.1178
 8064W        W24538  12.788   3.114  13.168  0.0474 -0.4268  0.0309
 8065W        W24539  11.328  16.414  15.756  0.3031  0.1441 -0.1944
 8066W        W24540   2.607   6.499   1.037 -0.0228 -0.0153 -0.1501
 8067W        W24541   7.821  16.431   4.561  0.2178 -0.1124  0.0435
 8068W        W24542   2.364   7.007  14.186  0.0427  0.1809 -0.0728
 8069W        W24543   6.185   2.826   4.889 -0.0541  0.1076 -0.1744
 8070W        W24544  13.312  10.773   2.982 -0.0264 -0.0195  0.3658
 8071W        W24545   8.533   0.824   4.137 -0.1523  0.0038  0.2012
 8072W        W24546  13.719   1.801  15.125 -0.0220 -0.0470 -0.0899
 8073W        W24547  15.862   5.083  15.463 -0.2242 -0.1333  0.2184
 8074W        W24548   4.155   4.178  14.667 -0.0117 -0.4852 -0.0912
 8075W        W24549  11.366   5.560  12.328  0.0107 -0.1569 -0.1817
 8076W        W24550   2.781  16.897  14.292  0.0823  0.0120  0.0387
 8077W        W24551  10.004  12.173   3.655 -0.1082 -0.0047 -0.1139
 8078W        W24552   0.462   2.055   1.308  0.0018  0.1142 -0.0833
 8079W        W24553  14.597   9.112  16.908 -0.3381 -0.1450 -0.1150
 8080W        W24554   8.369   9.744  14.817  0.2648 -0.2541 -0.1751
 8081W        W24555   1.565   1.929   3.939  0.0344  0.2156 -0.0355
 8082W        W24556  17.602   1.904   1.119 -0.4206 -0.1184  0.1959
 8083W        W24557   0.193  15.135   1.107 -0.1886 -0.1459 -0.2906
 8084W        W24558  12.128  12.301  13.333  0.0204  0.4324  0.2521
 8085W        W24559   0.223   7.447  12.503 -0.2520  0.5527  0.1126
 8086W        W24560  13.014  17.027   1.852 -0.0833  0.0782  0.0777
 8087W        W24561   1.728   4.221  12.050  0.1520  0.2373 -0.0411
 8088W        W24562   7.536  10.639  13.621 -0.1532 -0.1856 -0.2268
 8089W        W24563   6.812   2.869   6.241 -0.0292  0.2110 -0.2064
 8090W        W24564  12.102   5.790   5.350  0.3093  0.3157 -0.0819
 8091W        W24565   5.442   0.621   2.854  0.0467 -0.0832 -0.0502
 8092W        W24566  16.211   0.144   3.619  0.0219  0.0715 -0.0626
 8093W        W24567  16.760  12.778  16.123  0.1871  0.1608 -0.0868
 8094W        W24568   8.902   7.543  16.549 -0.2690  0.0343  0.0633
 8095W        W24569   7.339   2.269   2.444  0.0951  0.1697 -0.5005
 8096W        W24570  16.549   3.017   3.446  0.0780 -0.1550 -0.3065
 8097W        W24571  11.565   8.883  16.005  0.0308 -0.0562  0.0813
 8098W        W24572  10.164   5.048   3.404  0.1318 -0.1730 -0.1401
 8099W        W24573   4.133   6.372  12.446  0.1252 -0.2170  0.0220
 8100W        W24574  10.892  13.066  14.104  0.1376 -0.1406  0.0295
 8101W        W24575   0.020   6.128  12.284  0.1449 -0.1914  0.1325
 8102W        W24576   1.837   5.238   1.568  0.0966  0.1321 -0.0918
 8103W        W24577   8.003  11.331  13.757 -0.1540 -0.3016 -0.0147
 8104W        W24578  11.653   4.846   3.787 -0.1276 -0.0223 -0.2635
 8105W        W24579   2.332   8.640   0.831 -0.0684 -0.2775  0.0419
 8106W        W24580  12.080  17.014  13.185 -0.0841 -0.0394 -0.1284
 8107W        W24581   2.445   7.982   5.853 -0.0634  0.3938 -0.0866
 8108W        W24582  12.738   6.957   1.406 -0.3892 -0.2194  0.1194
 8109W        W24583  16.314   0.384   2.140 -0.2351  0.0481 -0.0365
 8110W        W24584  14.389   3.754  13.424  0.0382 -0.1967  0.2142
 8111W        W24585  14.473   0.473  13.712 -0.1873 -0.1378  0.0971
 8112W        W24586   9.955  13.009   5.507 -0.2976  0.0083 -0.0959
 8113W        W24587   4.749  11.119  12.052  0.1050  0.1166 -0.0664
 8114W        W24588   5.679  15.984   0.573  0.0909 -0.1141  0.0304
 8115W        W24589   0.619   6.094   3.558 -0.1529  0.0773  0.2122
 8116W        W24590   2.403  14.249  13.725 -0.0098 -0.0237 -0.0857
 8117W        W24591  14.751   8.470  16.636  0.1309  0.1669 -0.0282
 8118W        W24592   2.565   9.678  15.890  0.1655  0.0816  0.0057
 8119W        W24593   3.428  11.897   4.330  0.1673  0.1425  0.1036
 8120W        W24594   1.023  14.310   1.417 -0.2397  0.1784  0.2283
 8121W        W24595   3.275   1.229   4.598 -0.0126 -0.3235 -0.4186
 8122W        W24596   8.450   3.284  12.399  0.3351  0.0857  0.1978
 8123W        W24597  12.941   1.475   1.394 -0.1460 -0.1901 -0.3224
 8124W        W24598  11.227   3.406  16.048 -0.0672  0.1512 -0.0179
 8125W        W24599   7.324  16.941   2.343 -0.0658 -0.0560 -0.0980
 8126W        W24600   6.014  15.328   2.741  0.2055 -0.1254 -0.0006
 8127W        W24601   1.383   3.102  16.786  0.0196  0.0226  0.0829
 8128W        W24602  14.330   0.355   3.974  0.1461 -0.0281  0.2300
 8129W        W24603   0.522   0.802   4.734 -0.0986 -0.1234  0.0214
 8130W        W24604  15.723   5.841  14.837  0.0875  0.0737  0.2523
 8131W        W24605   1.653  11.131  11.759  0.2679 -0.5812 -0.1177
 8132W        W24606   0.980   7.332  12.008  0.0212  0.2524  0.2125
 8133W        W24607   2.064   6.262  16.428  0.2273 -0.1265 -0.0842
 8134W        W24608   3.156   7.704   2.246 -0.1974 -0.1212  0.0629
 8135W        W24609  17.314  16.253   5.142 -0.1930  0.1390  0.0976
 8136W        W24610   3.965   7.392   3.111 -0.1345  0.0574 -0.2307
 8137W        W24611  16.186   5.038  16.319  0.0428  0.0971 -0.1069
 8138W        W24612  17.157   9.991   0.700 -0.0067  0.1555  0.0412
 8139W        W24613  14.704  17.259   4.877  0.0151 -0.1881 -0.3257
 8140W        W24614   7.802  15.762  13.404  0.1349  0.0321  0.3171
 8141W        W24615   4.869  10.478   3.783  0.0694 -0.1500 -0.0493
 8142W        W24616   0.112  11.746  13.866 -0.0230 -0.0030 -0.1209
 8143W        W24617   2.151   1.910   0.942 -0.2571 -0.1724  0.1274
 8144W        W24618  11.815  12.609   2.149  0.0411 -0.2145  0.2733
 8145W        W24619   0.449   3.501   1.479 -0.0269 -0.3527 -0.4945
 8146W        W24620  11.702   2.181   5.174  0.1895  0.1001 -0.3046
 8147W        W24621   8.580   2.411  15.488 -0.0246  0.4401 -0.1414
 8148W        W24622   9.652  13.622  12.112  0.0337 -0.2284 -0.1508
 8149W        W24623  13.992  13.315   2.925  0.2644  0.1413 -0.1678
 8150W        W24624   7.754  11.567   0.499  0.1349  0.0758  0.0341
 8151W        W24625  11.105  12.559  13.246 -0.1121 -0.0044  0.0188
 8152W        W24626   7.378   4.650  12.053 -0.0366 -0.0114  0.0593
 8153W        W24627  17.342   3.284   5.425 -0.2254  0.0442  0.3790
 8154W        W24628  17.537  15.806   3.363  0.1796  0.0560  0.0419
 8155W        W24629  14.398   3.674   3.621  0.1255 -0.1100 -0.3331
 8156W        W24630  16.380  14.494   0.543 -0.0525 -0.0244 -0.3107
 8157W        W24631  15.534   6.025  14.229  0.1006 -0.1373  0.0970
 8158W        W24632  15.871  11.466  13.464 -0.0787 -0.0838 -0.4054
 8159W        W24633   2.637  13.534  11.912  0.1590  0.0042  0.2217
 8160W        W24634  12.282  11.327   5.104 -0.2327 -0.0462  0.1914
 8161W        W24635  12.442   6.433   4.206  0.0985  0.2060 -0.1580
 8162W        W24636   8.701   1.064  15.434 -0.0823 -0.1239  0.2619
 8163W        W24637   7.882   1.839   0.898  0.1011 -0.1391  0.3866
 8164W        W24638   2.981   3.855   0.582 -0.0081 -0.0798  0.0055
 8165W        W24639   8.320  15.785   0.795 -0.3612  0.0699 -0.0471
 8166W        W24640   6.163   4.629  12.030  0.0224 -0.1759  0.2031
 8167W        W24641  14.843  12.213   5.899 -0.2663  0.1232 -0.2949
 8168W        W24642   5.454  16.352  11.976 -0.1228  0.0601 -0.2190
 8169W        W24643  13.743   9.583   6.396 -0.2507 -0.0379  0.1211
 8170W        W24644   9.544   2.641   4.122 -0.0288 -0.3249 -0.2295
 8171W        W24645   3.650  12.184   1.481  0.0330  0.0860 -0.0563
 8172W        W24646  14.759   7.032  12.322 -0.0486  0.0226  0.1510
 8173W        W24647  17.178   2.414   4.787 -0.1343 -0.0247 -0.0840
 8174W        W24648  16.657  17.114   2.319  0.0539 -0.1101 -0.0817
 8175W        W24649   3.298  15.165  12.918  0.0125 -0.2826 -0.1482
 8176W        W24650   9.389  10.573   3.495  0.0027 -0.1014  0.0301
 8177W        W24651   8.314   4.229  12.899  0.0975  0.1003 -0.3609
 8178W        W24652  11.893  14.091  16.121 -0.0249 -0.0821 -0.0033
 8179W        W24653   4.414  14.593   1.223 -0.1584  0.0986 -0.0027
 8180W        W24654   8.143   6.824   5.223  0.0493  0.5540  0.2209
 8181W        W24655  11.409   2.640  13.012  0.0195  0.0010 -0.0286
 8182W        W24656   1.510   2.131  16.016 -0.1013 -0.1566 -0.0593
 8183W        W24657   3.564  17.110  14.759 -0.0480 -0.2775 -0.1285
 8184W        W24658   8.666  11.286  15.837  0.0798 -0.0285  0.1487
 8185W        W24659   5.965   0.395  11.666 -0.1206 -0.0896  0.1496
 8186W        W24660   2.560  10.321   3.268 -0.2293 -0.1788  0.1447
 8187W        W24661   7.024   5.180   4.909  0.1673 -0.0758 -0.5414
 8188W        W24662   1.412  13.929   1.607  0.5515  0.2440  0.1410
 8189W        W24663  14.413   9.153  12.168  0.0866 -0.0950 -0.2078
 8190W        W24664  14.123  17.113  14.223  0.0751  0.2247  0.1593
 8191W        W24665   9.315  17.394   5.619 -0.0975 -0.1511  0.2051
 8192W        W24666   9.987  14.802   1.101 -0.0329  0.1400  0.2554
 8193W        W24667  10.330  11.030  14.191 -0.0750 -0.2245  0.2312
 8194W        W24668  17.801  13.050   0.916 -0.1179 -0.0997 -0.0627
 8195W        W24669  13.023   9.120   6.161 -0.0982 -0.2459 -0.2002
 8196W        W24670   2.742  14.760  11.107 -0.1714 -0.1972 -0.0923
 8197W        W24671   1.775  12.009  11.613  0.2618  0.3733  0.2683
 8198W        W24672   5.280   6.988   1.955  0.1859 -0.0229 -0.2472
 8199W        W24673   9.455   2.531  14.009 -0.0159  0.0419 -0.2371
 8200W        W24674   5.071  14.382  13.246 -0.0428  0.1678 -0.0302
 8201W        W24675   9.472  11.814   4.832  0.1532 -0.3130 -0.0242
 8202W        W24676   6.893   8.979   3.553  0.0299 -0.0544  0.0617
 8203W        W24677   9.097   0.774   2.220 -0.0000 -0.0390  0.1342
 8204W        W24678  14.515  15.570  11.652 -0.4327 -0.1422 -0.0049
 8205W        W24679   6.158  14.593  15.380  0.0283  0.1711  0.1410
 8206W        W24680  15.226  15.427   4.265  0.2287 -0.3488 -0.0699
 8207W        W24681   3.905   5.105   1.621 -0.0934  0.0270  0.2650
 8208W        W24682   7.027   3.228   3.293  0.3083 -0.1362 -0.2685
 8209W        W24683  10.616  13.467  16.866 -0.1042 -0.0265 -0.0934
 8210W        W24684   2.989   1.936  16.044  0.2189 -0.1697 -0.0779
 8211W        W24685  17.309   3.572   2.443  0.1962  0.2585  0.1396
 8212W        W24686   5.143  15.784   0.743 -0.1871  0.1402  0.0628
 8213W        W24687   9.211   5.068   2.319 -0.3248 -0.1832 -0.0484
 8214W        W24688  13.134   2.670   1.764  0.4496 -0.0070 -0.2966
 8215W        W24689   9.990  15.885  12.434  0.2714 -0.1022  0.0456
 8216W        W24690   0.366  13.135   0.643  0.0478 -0.0766 -0.0358
 8217W        W24691   7.661  17.642  12.472 -0.1611 -0.1222 -0.1621
 8218W        W24692   8.596   8.083  16.838  0.2335 -0.0395 -0.1862
 8219W        W24693   4.234   5.158   5.018  0.0219  0.3683  0.1564
 8220W        W24694   9.720  11.787  12.969  0.1485 -0.0959  0.0143
 8221W        W24695  17.547  14.756  15.156  0.0317 -0.0931 -0.0738
 8222W        W24696  17.139  15.096  13.096  0.0305  0.0500 -0.2169
 8223W        W24697  16.588  10.667   0.374 -0.0874  0.0791 -0.0062
 8224W        W24698  16.279  17.329  14.108 -0.0240 -0.1464  0.1394
 8225W        W24699  12.382  16.504   5.959  0.2192 -0.3089 -0.0727
 8226W        W24700   1.000   4.353   5.722 -0.3034  0.2791 -0.0792
 8227W        W24701  10.114  12.812  16.858 -0.0403 -0.1963 -0.0115
 8228W        W24702  16.464  12.505  11.608  0.0117  0.0785  0.0287
 8229W        W24703   5.844  17.351   5.015 -0.0385 -0.0282 -0.2530
 8230W        W24704  15.835  10.023  16.856 -0.0160 -0.0546  0.1224
 8231W        W24705   4.669  15.276  15.030  0.1689  0.0489 -0.1394
 8232W        W24706   4.052   7.525   4.936  0.0443 -0.1164 -0.0137
 8233W        W24707   7.395  13.001   3.548  0.4043  0.2237  0.1615
 8234W        W24708   1.510   0.527   3.185  0.0268 -0.0038 -0.2710
 8235W        W24709  11.406   1.571   2.898  0.1861  0.2960  0.0430
 8236W        W24710  16.775  14.918   0.613  0.1430 -0.0609 -0.0625
 8237W        W24711   7.847   1.710  14.839  0.0190 -0.0937  0.2358
 8238W        W24712  11.259  16.704   0.592 -0.0574 -0.0715 -0.2110
 8239W        W24713  12.564   4.417   1.638  0.2527 -0.0118  0.3713
 8240W        W24714  16.136   5.865   1.071  0.1624 -0.0942 -0.0652
 8241W        W24715  15.154   3.080  11.570  0.0333  0.1504  0.1584
 8242W        W24716  17.494   6.834  12.563 -0.0434  0.1925  0.1084
 8243W        W24717   7.023   5.017   4.358  0.0715  0.1109 -0.0331
 8244W        W24718   4.616  16.122   0.118  0.0722  0.0079 -0.0820
 8245W        W24719   0.442   8.506   0.956  0.3156  0.0117 -0.1396
 8246W        W24720   9.964  15.933  11.948 -0.2584 -0.2940  0.0118
 8247W        W24721   8.900   4.984  15.916  0.0638 -0.3486  0.0032
 8248W        W24722  14.896  15.378   5.571  0.0233 -0.0851  0.0957
 8249W        W24723  14.518   0.247   5.943  0.0640 -0.3746 -0.3659
 8250W        W24724  14.898   5.419  15.577 -0.2674  0.3037  0.1396
 8251W        W24725   0.710   9.070   0.481  0.2196 -0.4272  0.2903
 8252W        W24726   2.800   0.929  15.370  0.0173 -0.3950  0.1987
 8253W        W24727  11.072   0.559  13.824  0.0823 -0.0852  0.2488
 8254W        W24728  13.140   0.245  13.276  0.1341 -0.1939  0.0147
 8255W        W24729  15.135   1.974   0.306 -0.0953  0.0068  0.0798
 8256W        W24730   3.661   1.856   3.555  0.1340  0.0571 -0.0450
 8257W        W24731   0.496  12.349  14.521 -0.1779 -0.2046  0.2254
 8258W        W24732  17.263  12.439   1.379 -0.0837  0.0644 -0.1132
 8259W        W24733   4.886  10.485  13.680  0.1274 -0.1749  0.2125
 8260W        W24734  13.943   3.517  13.444 -0.2337 -0.1107 -0.0267
 8261W        W24735   3.257   7.975  10.445  0.2968 -0.1554  0.0525
 8262W        W24736   1.154   4.513  13.320 -0.4121  0.1045 -0.3613
 8263W        W24737   2.913  12.719   1.870 -0.1002  0.0411  0.0554
 8264W        W24738   3.801  13.137  15.297 -0.1437 -0.1335 -0.0241
 8265W        W24739   1.692   2.385   0.408 -0.1927 -0.0294  0.1892
 8266W        W24740   5.889   0.550   3.921  0.2052 -0.3622  0.0324
 8267W        W24741  11.630  12.873  16.652 -0.2930  0.5352  0.0760
 8268W        W24742  14.138   5.773   5.670 -0.1097 -0.0551 -0.0122
 8269W        W24743  12.086  11.779  14.692  0.3471 -0.0193 -0.2821
 8270W        W24744   2.679   3.096  16.656 -0.2982  0.1447 -0.0586
 8271W        W24745   9.242  11.875   2.173  0.2770 -0.2881 -0.0601
 8272W        W24746  14.193  15.746   1.463 -0.1937 -0.0321  0.0055
 8273W        W24747   9.703   1.871   2.331  0.0402 -0.0829 -0.3121
 8274W        W24748  12.031  15.955   2.325  0.0260 -0.3322  0.2876
 8275W        W24749  16.379  15.550   2.635  0.0762 -0.1113 -0.0477
 8276W        W24750   7.087   4.074   4.324 -0.1979  0.1598 -0.1135
 8277W        W24751  10.996   5.112  14.450 -0.1331 -0.0802 -0.1752
 8278W        W24752   7.208   2.117   4.776 -0.1481  0.0455 -0.0216
 8279W        W24753   6.330  12.764  13.446  0.2235  0.0183  0.2874
 8280W        W24754   2.126   3.055  12.167 -0.0810 -0.2361  0.0662
 8281W        W24755   7.342  13.896   5.926 -0.1837  0.1445 -0.1420
 8282W        W24756   0.976   6.811  12.106 -0.1160  0.1223  0.3105
 8283W        W24757  11.716   7.288   1.266  0.0329  0.0978  0.0377
 8284W        W24758  12.519   1.942  11.897 -0.3989  0.3022  0.1286
 8285W        W24759   1.757   3.687   6.139 -0.1799 -0.0104 -0.0212
 8286W        W24760  12.295  11.224  12.051 -0.2695  0.3146 -0.4032
 8287W        W24761  16.491  10.883   5.030 -0.1083 -0.0128  0.0146
 8288W        W24762  13.302  15.973  12.068 -0.2653 -0.1404  0.0239
 8289W        W24763   4.175  15.608  14.999 -0.4800  0.1468 -0.0076
 8290W        W24764   3.306   3.492   3.118  0.0399  0.1627  0.0907
 8291W        W24765  13.077  10.774  12.553  0.2694 -0.0181 -0.0690
 8292W        W24766   2.022   1.536  13.221 -0.0881  0.0414  0.1854
 8293W        W24767   5.896   3.730   5.371  0.0130 -0.1798 -0.0375
 8294W        W24768   1.653  10.144   4.547 -0.2844  0.1613 -0.2018
 8295W        W24769  10.897   7.261  14.137  0.0530  0.1847 -0.2125
 8296W        W24770  13.479   8.735  12.015 -0.0165 -0.0648 -0.2885
 8297W        W24771  15.423  13.617  12.572 -0.1947  0.2159  0.0705
 8298W        W24772  16.302  17.514   5.804 -0.0899  0.0991 -0.1843
 8299W        W24773  11.258   3.072  15.688  0.2792  0.0250 -0.5003
 8300W        W24774  13.965  16.538   0.893  0.2032 -0.0651  0.0955
 8301W        W24775   4.729   6.798   4.862 -0.0312  0.1638  0.0449
 8302W        W24776   1.427   9.786   0.737 -0.0189 -0.0038 -0.3180
 8303W        W24777  13.022   4.840   2.480  0.2769 -0.1379  0.0756
 8304W        W24778   9.384   1.129  16.293 -0.1252 -0.0749  0.2706
 8305W        W24779   4.870   9.763   2.279 -0.1186  0.0522 -0.0626
 8306W        W24780   6.660  14.554   0.732 -0.2086 -0.1577 -0.2877
 8307W        W24781  13.711   4.698   0.153 -0.1758  0.0918 -0.0895
 8308W        W24782  17.258   7.989   4.912  0.1176  0.1819  0.2736
 8309W        W24783  14.107   0.475   2.418  0.0533 -0.4229  0.1985
 8310W        W24784  12.731   2.658   2.590 -0.2356  0.1765  0.1567
 8311W        W24785  15.671  17.324  16.868 -0.2705 -0.0205  0.1475
 8312W        W24786   6.116   3.564  14.388 -0.4510  0.0836  0.0220
 8313W        W24787  12.982  14.228   3.805 -0.0935 -0.1982 -0.3098
 8314W        W24788   6.561  15.994  14.062 -0.1099 -0.3210  0.2963
 8315W        W24789  10.878  14.443   2.208 -0.2651 -0.2959  0.3309
 8316W        W24790  16.538  10.280   4.017  0.1032 -0.0252 -0.0104
 8317W        W24791  10.374  14.940  11.236 -0.0007  0.3922 -0.2470
 8318W        W24792  12.366  17.102  16.218  0.1555  0.2351  0.0492
 8319W        W24793   0.410   7.731   3.202  0.0709 -0.0760  0.2508
 8320W        W24794   9.027   1.609  16.169  0.3253 -0.2811 -0.0121
 8321W        W24795  14.734  10.342   2.718  0.1171  0.0830 -0.1922
 8322W        W24796   1.941   3.664  15.411  0.0012 -0.0622 -0.0498
 8323W        W24797  11.069   6.185  16.043  0.1457  0.1661 -0.1510
 8324W        W24798   2.694   9.193  13.326 -0.2442  0.2050 -0.0644
 8325W        W24799  13.804  15.810  12.891 -0.0853  0.1765  0.1174
 8326W        W24800  16.705  16.044   2.089  0.4294 -0.1091 -0.2070
 8327W        W24801   5.558   3.054   3.810 -0.1275 -0.0535 -0.1889
 8328W        W24802   5.712   5.786   5.580 -0.0631 -0.1635  0.1239
 8329W        W24803   5.683  17.053   2.829  0.0505 -0.3408  0.0320
 8330W        W24804  17.031   5.375   5.954 -0.0250 -0.2458  0.3847
 8331W        W24805  16.594   3.395   2.579  0.0050 -0.0777 -0.0537
 8332W        W24806   1.134  14.669   3.543  0.0483  0.4195  0.2165
 8333W        W24807   0.571  15.734  16.225  0.1033 -0.1860  0.1891
 8334W        W24808   8.135  10.835  16.647 -0.0277 -0.0391  0.1312
 8335W        W24809   8.151  14.307   0.317 -0.1569  0.3655  0.1395
 8336W        W24810  10.143   4.141  12.825 -0.0074  0.3253  0.0547
 8337W        W24811  12.914   6.406   2.382 -0.0171 -0.2402 -0.1072
 8338W        W24812   4.849   8.472   3.249  0.2490 -0.1399  0.1302
 8339W        W24813  12.430  11.148  14.187 -0.3650 -0.1005 -0.2979
 8340W        W24814   4.989  10.113  13.355  0.0639  0.1401 -0.0798
 8341W        W24815   2.957   4.072  13.427  0.0403 -0.1557 -0.0042
 8342W        W24816  15.036  16.124  14.480 -0.0669 -0.0752 -0.0910
 8343W        W24817  17.214   2.462   5.742 -0.2546  0.1872  0.0380
 8344W        W24818   3.588   5.386  16.826  0.1166  0.0810 -0.1399
 8345W        W24819  16.456   6.795  11.793  0.0373  0.1007  0.1597
 8346W        W24820  11.533   9.952   3.280  0.1349 -0.0613  0.1052
 8347W        W24821  16.750   8.468   2.315 -0.0772 -0.3268  0.2481
 8348W        W24822   6.183   7.146  14.336  0.3535 -0.2218  0.0823
 8349W        W24823   8.101   3.984   2.874 -0.0587 -0.1632  0.2268
 8350W        W24824   3.584   6.315   1.169  0.3426 -0.2145  0.1436
 8351W        W24825   3.174   4.610   4.597  0.0579  0.1005  0.1169
 8352W        W24826  11.214   5.843   1.352 -0.2493 -0.0653  0.1849
 8353W        W24827   4.907  14.243   3.336 -0.0375 -0.0583  0.2728
 8354W        W24828  10.700  14.029   3.480 -0.0969  0.0377 -0.1569
 8355W        W24829  10.085   1.895   0.237 -0.2164  0.0233  0.3289
 8356W        W24830  16.853   2.925  12.685 -0.0109 -0.2123 -0.0202
 8357W        W24831  13.858  11.327  14.187  0.0038 -0.2873  0.1326
 8358W        W24832  12.718  12.997   3.927 -0.1293 -0.1530 -0.0761
 8359W        W24833  17.014   9.895   0.179 -0.2166  0.2427 -0.0903
 8360W        W24834  11.812  14.799   1.844 -0.0677  0.1808  0.2921
 8361W        W24835  11.013   1.312   0.533 -0.1785  0.2550  0.1246
 8362W        W24836   5.084  13.299  16.760 -0.2683 -0.1005  0.1023
 8363W        W24837  14.145   8.101   3.974  0.2410  0.1187 -0.2924
 8364W        W24838   1.915   3.894  12.889  0.1980 -0.0550  0.0749
 8365W        W24839   7.632   5.095  14.002  0.1071 -0.2111 -0.0993
 8366W        W24840   6.871   8.924   0.540  0.0614 -0.0295  0.0502
 8367W        W24841  14.486  10.582  12.681 -0.0541  0.2485  0.0842
 8368W        W24842  13.265   6.228   1.066 -0.0071  0.1399 -0.3072
 8369W        W24843  10.848  16.138   3.909 -0.2438 -0.0120  0.2871
 8370W        W24844   1.817   2.765  13.124  0.1454 -0.4441  0.1406
 8371W        W24845   1.284   3.388  15.880  0.0381 -0.1912 -0.0814
 8372W        W24846   1.037   6.595   2.437  0.3138 -0.1638 -0.1539
 8373W        W24847   0.011   3.008  11.964 -0.0006 -0.1608 -0.0463
 8374W        W24848   2.857  13.344  11.484  0.1567 -0.0867  0.1787
 8375W        W24849   2.219   4.055   2.514  0.0321  0.1318  0.2015
 8376W        W24850  12.602   0.130  11.985  0.1403  0.1574  0.0931
 8377W        W24851  15.467  10.087  13.379 -0.0076 -0.0348 -0.0557
 8378W        W24852  16.781   9.966  13.230 -0.0089  0.0325 -0.3695
 8379W        W24853  16.470   5.282  14.864 -0.0763 -0.0901  0.0553
 8380W        W24854  14.809   2.358   6.070 -0.0780  0.1313 -0.0558
 8381W        W24855  12.896  11.997  14.507 -0.1147  0.1209 -0.1646
 8382W        W24856   9.190   0.842  13.378 -0.1110  0.0474  0.3384
 8383W        W24857  15.984   0.791   4.752  0.2029 -0.2558  0.2683
 8384W        W24858  13.641   8.899   4.667 -0.1337  0.0158  0.2777
 8385W        W24859   8.106   7.277  16.275  0.1973 -0.0188  0.0760
 8386W        W24860  10.005  12.867  13.787  0.1021  0.1252  0.3950
 8387W        W24861   9.760   1.272   4.134  0.2530 -0.1538 -0.2246
 8388W        W24862   7.761  11.110  15.633  0.1586  0.0695 -0.0128
 8389W        W24863   5.202   9.251  13.230 -0.0975  0.1416 -0.0816
 8390W        W24864   6.656  14.851  14.027 -0.0599 -0.1260  0.0243
 8391W        W24865   6.891  16.332   4.092 -0.0956 -0.1075  0.0007
 8392W        W24866   0.264   4.206  15.901  0.2236  0.0540  0.1155
 8393W        W24867   3.253   0.782  13.019  0.2627 -0.1248  0.1573
 8394W        W24868   3.199   6.981  11.770  0.1739  0.0189  0.0058
 8395W        W24869  11.158  10.251   2.423  0.3539  0.2143 -0.2148
 8396W        W24870  13.656   9.076  12.463 -0.0312 -0.0695 -0.2086
 8397W        W24871   4.947   6.746  12.691 -0.0229  0.2583 -0.1261
 8398W        W24872  13.240   8.906   3.060 -0.0404 -0.0050  0.1292
 8399W        W24873  12.927  10.241  12.559  0.1776 -0.0689  0.0956
 8400W        W24874  16.203   4.378  14.171 -0.0399 -0.1924  0.1237
 8401W        W24875   4.235   6.546   3.865  0.0985  0.0373  0.0634
 8402W        W24876   3.556   0.528  13.911  0.2302  0.1445  0.2184
 8403W        W24877  13.643   2.974  11.731 -0.3163  0.0712 -0.1259
 8404W        W24878   4.899  10.592  13.163 -0.1268 -0.1411  0.3309
 8405W        W24879   1.520  14.225  11.374 -0.1726 -0.3313 -0.0324
 8406W        W24880   7.433  10.620  11.913 -0.0377 -0.1043  0.0103
 8407W        W24881  15.456   7.456   3.642 -0.1773 -0.2875  0.2160
 8408W        W24882  10.931  11.283   5.178 -0.2217  0.0013  0.0600
 8409W        W24883   0.100   4.603   5.580  0.1233  0.0228 -0.1240
 8410W        W24884   4.742  14.548  11.970 -0.0431 -0.1308  0.3695
 8411W        W24885   3.726  15.941   5.578 -0.0116 -0.1391  0.0594
 8412W        W24886   6.941  10.154   1.634  0.1307 -0.0482 -0.3025
 8413W        W24887   3.085  16.138   2.393 -0.0340  0.0190  0.0557
 8414W        W24888   0.145  13.445   1.859 -0.1061 -0.0630 -0.1632
 8415W        W24889  15.308   8.571   0.825  0.0612  0.2119 -0.2201
 8416W        W24890   2.197   3.065   2.240  0.0528 -0.0279  0.3145
 8417W        W24891   6.625  16.937  15.708 -0.0021  0.1492 -0.1402
 8418W        W24892   0.290  10.144   2.017  0.1282 -0.1172 -0.1581
 8419W        W24893   9.356  17.259   0.285 -0.0935  0.0873  0.0716
 8420W        W24894  14.819  17.719   5.266  0.1332 -0.0403 -0.1347
 8421W        W24895  15.798   2.568  15.372 -0.1164  0.1675 -0.1281
 8422W        W24896   2.796  17.679   0.424  0.1371  0.3942 -0.0954
 8423W        W24897   7.241  16.939  13.418  0.1504  0.2661 -0.0461
 8424W        W24898   5.110   7.333  14.283 -0.0089 -0.0342 -0.1421
 8425W        W24899   5.529   5.372  11.690 -0.1389 -0.2297  0.2628
 8426W        W24900   3.382   6.929  14.868  0.0103  0.2383  0.4735
 8427W        W24901  14.231   8.950  15.150 -0.1344  0.1231 -0.0393
 8428W        W24902   8.008  13.619  13.505 -0.0809  0.1299 -0.0871
 8429W        W24903   7.930   8.856   1.474  0.0361 -0.0795  0.1154
 8430W        W24904  14.497   4.982   4.002 -0.0728  0.0846  0.1022
 8431W        W24905   5.336  10.148  14.246  0.0635  0.1934 -0.1269
 8432W        W24906  13.126   3.372  12.227  0.0331  0.3646 -0.1315
 8433W        W24907  11.080  15.729   2.700  0.1836  0.3196 -0.2298
 8434W        W24908  15.777  10.008   4.450  0.1935  0.0509  0.0199
 8435W        W24909   8.719  13.110  16.662 -0.0386  0.0354 -0.2191
 8436W        W24910   4.549   5.546  12.638 -0.1375 -0.3636 -0.2583
 8437W        W24911  12.993   6.986  12.678  0.0716 -0.0627  0.3303
 8438W        W24912  15.802   6.007  15.940 -0.1977  0.1460  0.3132
 8439W        W24913   9.289  17.342   2.681 -0.1221  0.3866  0.0837
 8440W        W24914   2.480  17.388   0.883 -0.3222 -0.1850  0.0603
 8441W        W24915  12.885   8.061   3.823  0.0835 -0.1024  0.0069
 8442W        W24916   3.121   7.598  16.673 -0.0286  0.2048 -0.2432
 8443W        W24917   1.563   8.167  16.926 -0.0990 -0.0027  0.1266
 8444W        W24918  13.257  11.521  12.162 -0.3280 -0.0798  0.1436
 8445W        W24919  10.408  16.990  16.604  0.0964 -0.1215 -0.1046
 8446W        W24920   7.007   1.794   1.374 -0.0005 -0.0351 -0.1691
 8447W        W24921   0.169   1.348   2.363 -0.0231  0.1584 -0.0170
 8448W        W24922   0.215  14.288  11.694  0.0639  0.2789  0.1040
 8449W        W24923  17.150  11.244   0.389 -0.2280 -0.0009 -0.0616
 8450W        W24924  15.398  11.677   4.787  0.0802  0.2206 -0.2128
 8451W        W24925  12.555   8.297   5.094  0.3564 -0.0012  0.0617
 8452W        W24926   2.093   1.417   4.018  0.0456 -0.0598  0.0399
 8453W        W24927   6.302   6.782  16.826  0.0385 -0.1820  0.1042
 8454W        W24928  16.986  10.105   5.315 -0.1150  0.0801 -0.3613
 8455W        W24929   8.000  11.177  12.837  0.0985  0.2010  0.1103
 8456W        W24930  14.556   2.318   2.345 -0.1337  0.0786 -0.2520
 8457W        W24931  17.006   3.124   4.472 -0.0709  0.0068  0.2403
 8458W        W24932  16.310   7.225  15.332  0.0661  0.0804 -0.1053
 8459W        W24933   7.232   6.098  14.786 -0.0776  0.0982  0.0221
 8460W        W24934  14.322   0.255   0.539 -0.1831  0.1278  0.1167
 8461W        W24935   2.170   7.902  14.502  0.2941  0.0053  0.4148
 8462W        W24936  16.445  16.864   3.065 -0.4151  0.1936  0.0154
 8463W        W24937   8.359   7.707  16.589  0.0379 -0.0770 -0.5009
 8464W        W24938  10.270   7.559  13.614  0.0055 -0.0626  0.0634
 8465W        W24939   2.376   0.394   0.705  0.0382 -0.1826  0.0082
 8466W        W24940   7.643   6.441  14.868  0.0394 -0.0163  0.1757
 8467W        W24941   0.322   6.655  13.037 -0.2080  0.3548  0.0977
 8468W        W24942  13.008   3.317  14.396  0.2563  0.3342  0.1221
 8469W        W24943  13.219   0.213   2.200  0.1309 -0.2773 -0.0936
 8470W        W24944   0.224  11.200  13.820  0.2147  0.1402 -0.0879
 8471W        W24945  10.296   1.217  11.277 -0.2789 -0.0816 -0.0900
 8472W        W24946   6.403   0.920   3.047 -0.1314 -0.2272  0.1598
 8473W        W24947   5.698   6.785   3.134 -0.1055  0.0198 -0.0898
 8474W        W24948   0.294   5.418  11.738 -0.2351  0.0919 -0.1800
 8475W        W24949  12.397   8.602  16.911 -0.0891 -0.1408  0.1454
 8476W        W24950   7.614   5.144   5.669  0.0322 -0.0197  0.0567
 8477W        W24951  17.076  16.787   1.579 -0.0924 -0.0505  0.0435
 8478W        W24952   3.361  16.913   3.746  0.1961 -0.1205  0.3304
 8479W        W24953   5.559   0.674  14.734  0.1011  0.2475 -0.1467
 8480W        W24954   9.804  17.062   1.516  0.0962  0.0228 -0.1078
 8481W        W24955  10.682   2.136  16.118 -0.2085  0.5393 -0.0343
 8482W        W24956  16.076  12.568  14.886  0.0663 -0.2121  0.1477
 8483W        W24957   0.093  11.872  12.775  0.0285  0.0026 -0.1929
 8484W        W24958  11.154  11.104   0.522  0.2476  0.2817 -0.0281
 8485W        W24959  13.728   1.065  15.984 -0.0151 -0.0943 -0.1202
 8486W        W24960   2.233  13.767   0.363  0.2383  0.0551  0.2203
 8487W        W24961   4.956   7.070   5.269  0.0968 -0.0014 -0.1681
 8488W        W24962  17.232   8.660   2.001  0.0375 -0.0585  0.0353
 8489W        W24963  16.116   0.453  16.459  0.1317  0.1776  0.1266
 8490W        W24964   5.416  17.785   2.109 -0.1405 -0.1653  0.2433
 8491W        W24965   4.076  13.196   2.959 -0.1362 -0.0465 -0.1509
 8492W        W24966   7.109  15.074   2.013  0.0348 -0.2472  0.0196
 8493W        W24967   1.409  11.708   2.585  0.1543 -0.4068  0.0971
 8494W        W24968   7.321  13.341  16.474 -0.0292 -0.1707 -0.1919
 8495W        W24969   5.860   7.655  13.690  0.0643  0.0306 -0.2342
 8496W        W24970   4.482  12.506  16.925 -0.0773  0.1475  0.1926
 8497W        W24971   7.637  15.208  15.001  0.1646 -0.0051  0.3486
 8498W        W24972  17.104  14.689  16.715 -0.3488 -0.4557 -0.0017
 8499W        W24973   3.319   9.477   6.133  0.0052 -0.0908  0.4717
 8500W        W24974   3.674   4.606   1.565  0.1363  0.0957  0.0270
 8501W        W24975   2.664  14.672  13.405  0.3126 -0.0635 -0.0657
 8502W        W24976   7.793  15.285   2.743  0.2185 -0.1497  0.0956
 8503W        W24977   5.384  15.974  13.956 -0.2710  0.0288 -0.3263
 8504W        W24978  14.508   7.829   2.067  0.1097 -0.2965  0.0401
 8505W        W24979  12.136   9.023  14.753  0.3254 -0.0337 -0.0164
 8506W        W24980   3.515  15.303   3.620 -0.0283  0.2863  0.1195
 8507W        W24981   1.109   8.679  11.474 -0.0992 -0.1201 -0.1590
 8508W        W24982   5.550   9.684   1.822 -0.2369 -0.0987 -0.0704
 8509W        W24983   5.325  16.482  13.135 -0.2459 -0.1373  0.0450
 8510W        W24984   9.718   5.684  14.710 -0.3182  0.4156 -0.0577
 8511W        W24985  17.217   0.821  15.828  0.2260  0.2340  0.2684
 8512W        W24986  12.948   4.891   4.686 -0.0495 -0.2725 -0.0557
 8513W        W24987  16.432  10.498  14.417 -0.1635  0.2595 -0.1572
 8514W        W24988   8.101  15.960   3.778 -0.1779  0.0546  0.2289
 8515W        W24989  10.621  11.092   0.487  0.1755 -0.0728 -0.3433
 8516W        W24990   1.456   8.943   5.205  0.0293  0.1971  0.0151
 8517W        W24991  15.445   7.343  14.961 -0.4763  0.0376 -0.0361
 8518W        W24992  16.758  10.778  12.706  0.3309 -0.2625 -0.1107
 8519W        W24993  16.311   6.970   4.006  0.0948 -0.1968 -0.3571
 8520W        W24994  11.780  17.455   4.152  0.1289 -0.0661 -0.1090
 8521W        W24995  12.725   9.184   4.816  0.2413 -0.0433 -0.0039
 8522W        W24996   0.687  15.100  11.842  0.1430  0.0710 -0.1491
 8523W        W24997   5.646   9.035  13.409  0.1922 -0.1923  0.1129
 8524W        W24998  14.824   7.555   0.960  0.0146 -0.3659 -0.0010
 8525W        W24999   0.837   8.363   2.180 -0.0387 -0.4958 -0.0183
 8526W        W25000  12.155  15.221  13.406 -0.0290 -0.0072  0.0583
 8527W        W25001  14.705  10.277  11.032  0.1457  0.1345  0.3072
 8528W        W25002   7.802  10.704   0.172  0.0761  0.2506  0.0435
 8529W        W25003   3.881   8.008  14.436 -0.0002 -0.2484  0.3675
 8530W        W25004  13.004   6.108  14.008 -0.0273  0.1657  0.1661
 8531W        W25005   5.746  13.520   3.690 -0.1338 -0.5497 -0.1458
 8532W        W25006   7.281  15.043   4.246  0.2756 -0.1181  0.2152
 8533W        W25007  17.365  11.007  14.205 -0.2044 -0.1016  0.1418
 8534W        W25008   1.797  15.890   6.053 -0.2032  0.2251 -0.0994
 8535W        W25009   8.766  11.931   2.423 -0.1715 -0.1040 -0.1631
 8536W        W25010  13.481  15.346  16.038  0.2275 -0.1090  0.0414
 8537W        W25011   1.344   7.069  15.803  0.0540 -0.3014  0.2319
 8538W        W25012   4.661  16.315   1.292 -0.0485 -0.2475 -0.1519
 8539W        W25013   9.395  11.994   6.151 -0.0892 -0.2139 -0.2503
 8540W        W25014   7.788  12.318  11.677  0.1267 -0.1885  0.4162
 8541W        W25015   5.795   4.887  13.849  0.1992  0.0043 -0.0960
 8542W        W25016   9.987   3.977  16.320  0.1122  0.0993  0.3061
 8543W        W25017   3.355  14.039  12.028 -0.1543  0.1387 -0.0529
 8544W        W25018   1.905   9.784   2.866  0.0972 -0.0577  0.0910
 8545W        W25019   6.068   1.131   2.725 -0.1817  0.0445  0.3316
 8546W        W25020   2.479   3.502   2.096  0.3043  0.2849 -0.0832
 8547W        W25021   3.082  16.909   0.973  0.1585 -0.0010 -0.0523
 8548W        W25022   4.542  13.746  12.225  0.1424  0.0891  0.1201
 8549W        W25023  14.993   9.485  12.045 -0.0706 -0.0713  0.0163
 8550W        W25024   1.607  15.332  14.421  0.2785 -0.1295  0.3976
 8551W        W25025   9.789  17.219   5.402  0.0316 -0.0210 -0.3062
 8552W        W25026  15.031  16.843  11.556  0.0057 -0.1283  0.0128
 8553W        W25027   9.968   7.518   1.279 -0.1794  0.0837 -0.0414
 8554W        W25028   4.917  15.400  13.999 -0.0229 -0.2095 -0.1724
 8555W        W25029  15.509   7.823   3.279  0.0061  0.0547  0.1825
 8556W        W25030   5.677  10.685   1.619 -0.4019  0.1334  0.1929
 8557W        W25031  10.311   6.156   3.957 -0.1106  0.0021 -0.0484
 8558W        W25032   4.596   5.531  14.764  0.2497 -0.0878  0.3330
 8559W        W25033   4.862  15.878  14.112 -0.3032 -0.3496 -0.0051
 8560W        W25034  16.988   0.811   3.533  0.0898 -0.1019 -0.0198
 8561W        W25035  14.652   5.216   1.071  0.1415  0.0810 -0.0318
 8562W        W25036   9.919   4.645   3.802  0.1114 -0.0150  0.2439
 8563W        W25037   8.096   9.607   5.587 -0.1130 -0.0827 -0.1650
 8564W        W25038   4.631  16.897   0.522  0.3308  0.1682  0.2753
 8565W        W25039   6.678  11.144  15.745  0.0975 -0.4258 -0.1620
 8566W        W25040  16.888   1.991   0.519  0.5787  0.1077  0.0273
 8567W        W25041   1.339  16.564   3.417  0.0482 -0.0553  0.0809
 8568W        W25042  11.408   4.351   0.003 -0.3394 -0.4041  0.1092
 8569W        W25043   7.776   3.791   0.333 -0.5497 -0.2334  0.0477
 8570W        W25044  12.804   5.760  15.276 -0.0598 -0.1656  0.0119
 8571W        W25045   8.072  16.380  15.492 -0.1328  0.0105 -0.2901
 8572W        W25046  11.257  16.903  14.236 -0.2249 -0.0690  0.0900
 8573W        W25047  14.213  11.233  16.133  0.0023  0.0072  0.2327
 8574W        W25048   0.485   0.800   6.100 -0.0510 -0.0565  0.2144
 8575W        W25049  17.702  16.498  15.723 -0.2938  0.1575  0.1873
 8576W        W25050   9.425  15.413  11.380 -0.0366 -0.0689 -0.0149
 8577W        W25051  14.580   1.236   0.331 -0.1522 -0.0860  0.1865
 8578W        W25052   6.453   5.514   5.848  0.2305  0.0825  0.0183
 8579W        W25053   3.556   6.705   1.558 -0.2583  0.0835  0.0302
 8580W        W25054   3.043   0.728   4.388 -0.0710  0.1369 -0.3547
 8581W        W25055   2.921  13.360  15.591  0.4873 -0.2700  0.1622
 8582W        W25056  17.453  17.134  14.360  0.0724 -0.2438 -0.4071
 8583W        W25057  10.947   5.724   0.349  0.0028 -0.4021  0.0340
 8584W        W25058  13.384  11.284   2.933 -0.2317  0.0989 -0.0908
 8585W        W25059  15.842   7.801   3.753  0.0051  0.3302  0.0095
 8586W        W25060   0.942   2.257   3.701 -0.2224 -0.2053  0.0895
 8587W        W25061   7.946  12.946  15.285 -0.1282  0.1266  0.1434
 8588W        W25062   6.427  11.515  15.362 -0.3208 -0.2745 -0.0293
 8589W        W25063   2.849  10.382  16.196 -0.0714 -0.0954 -0.2997
 8590W        W25064   3.011   7.187   0.808  0.1453 -0.0206 -0.1276
 8591W        W25065  10.111   7.388   4.753 -0.0880  0.0612  0.0273
 8592W        W25066   8.374   3.079   1.871 -0.0956 -0.1516  0.1478
 8593W        W25067  13.501  13.949  13.914  0.0657  0.0337  0.0806
 8594W        W25068  15.483   7.071   4.028  0.0808  0.2296  0.5970
 8595W        W25069  16.379   1.344   0.767  0.0334 -0.1410 -0.2578
 8596W        W25070   9.149   4.249  13.871 -0.0746  0.0861  0.0547
 8597W        W25071  15.674  16.165   2.316 -0.1649 -0.0933 -0.2298
 8598W        W25072  10.760   2.387  13.677  0.1197 -0.1604 -0.1821
 8599W        W25073   6.295  15.797   4.257  0.0618  0.1428 -0.1084
 8600W        W25074   1.353   0.713   5.184  0.0643  0.0086  0.0335
 8601W        W25075   9.291  15.793   1.028  0.1649  0.1613  0.1824
 8602W        W25076   0.679  10.131   1.155  0.2730  0.0587  0.0545
 8603W        W25077   9.464   1.077   1.720 -0.3619  0.2362 -0.2335
 8604W        W25078  14.673   8.818   4.700  0.0527  0.0023 -0.1045
 8605W        W25079   5.691   0.227   2.563 -0.0111  0.0176  0.1514
 8606W        W25080   6.194   2.218  14.595 -0.0082  0.0239  0.1623
 8607W        W25081  10.838  12.686  12.805  0.4347 -0.1513  0.1805
 8608W        W25082   1.264   8.261   3.013 -0.1596  0.3506  0.0917
 8609W        W25083   3.509   9.387  15.640 -0.0265  0.1467  0.3005
 8610W        W25084  14.608  15.710  12.140 -0.2558  0.0630  0.1837
 8611W        W25085   3.295   2.075   0.087  0.5553 -0.3835 -0.0501
 8612W        W25086   9.824  17.033  13.977  0.1032  0.0680  0.4428
 8613W        W25087   0.558   1.132   0.873  0.0903 -0.0034  0.0136
 8614W        W25088   6.134   8.818   1.311  0.2597  0.1617 -0.0949
 8615W        W25089  12.152   3.299  14.692 -0.1253 -0.1618 -0.0956
 8616W        W25090  11.717   8.155  12.461  0.1342 -0.4560 -0.1045
 8617W        W25091  17.503   6.070   5.534 -0.2732 -0.0963 -0.0839
 8618W        W25092  13.333  13.238  14.530 -0.1802  0.2316 -0.0773
 8619W        W25093  13.183   0.357  12.738  0.1992 -0.0750  0.0627
 8620W        W25094   9.011   5.993  13.711 -0.0852  0.1283 -0.1269
 8621W        W25095   9.303   7.684  14.536  0.0622 -0.1071 -0.2145
 8622W        W25096   6.648  17.096  14.648  0.2291 -0.0669 -0.1607
 8623W        W25097  11.828   9.093  13.456  0.0406  0.0041  0.0363
 8624W        W25098   0.885  11.668  12.631  0.3449 -0.1470  0.1368
 8625W        W25099   7.273   4.415  14.013  0.1542 -0.0668 -0.4147
 8626W        W25100  11.191  15.019  12.275 -0.0093  0.2378 -0.1131
 8627W        W25101   6.027  13.776   1.333  0.0295 -0.1603 -0.1974
 8628W        W25102   1.574  15.478  12.418  0.2743  0.0602  0.1649
 8629W        W25103   2.612   3.106  11.993  0.2157  0.0297 -0.3109
 8630W        W25104   8.403  15.477  16.457  0.3715  0.1761 -0.5542
 8631W        W25105   7.305   3.408  16.612  0.0102 -0.3625 -0.0496
 8632W        W25106  14.256   1.510   5.807 -0.1407  0.1714  0.0024
 8633W        W25107  13.133  16.015   4.949 -0.2460 -0.1709  0.2007
 8634W        W25108   1.818   2.362   3.964 -0.0720  0.0921  0.4501
 8635W        W25109   0.346   4.416  16.837 -0.0331 -0.1492 -0.2907
 8636W        W25110   0.244  16.136   0.139  0.2364  0.0292 -0.2436
 8637W        W25111  14.402  15.973   3.304  0.3588 -0.1437  0.0461
 8638W        W25112  10.883   5.215   1.685 -0.0139 -0.1592  0.0099
 8639W        W25113  12.670  10.364   0.816  0.0120 -0.2612 -0.3918
 8640W        W25114  10.253  15.679  15.978 -0.1705 -0.1687  0.2083
 8641W        W25115  14.319  17.471   2.698 -0.0977  0.2379 -0.0838
 8642W        W25116   9.797  11.437   0.691 -0.1055  0.1373  0.1662
 8643W        W25117  17.459   9.568   4.874 -0.0592 -0.2432  0.1845
 8644W        W25118  13.962  10.538   0.717 -0.3108 -0.4080  0.1505
 8645W        W25119  11.975   4.369   0.926  0.0071 -0.2009  0.0705
 8646W        W25120   9.598   2.384  13.466 -0.0817 -0.0061 -0.0477
 8647W        W25121  15.227  14.757   3.541 -0.0510  0.0829  0.1404
 8648W        W25122   5.804  11.275  12.432 -0.0282 -0.0878 -0.1188
 8649W        W25123   4.370  15.464   1.942  0.0134  0.1387 -0.0976
 8650W        W25124   4.560  15.997  14.541  0.2247 -0.2043  0.1186
 8651W        W25125   1.593   5.608  12.440 -0.0702 -0.1082  0.2216
 8652W        W25126   8.223   9.611   4.598  0.1800  0.1294 -0.1309
 8653W        W25127  15.656  16.124  12.915  0.0608 -0.1027  0.2326
 8654W        W25128  10.725   5.654   1.356  0.0595 -0.2225  0.0928
 8655W        W25129  13.111  16.765   2.389  0.1505  0.1164 -0.2134
 8656W        W25130  15.599   5.158  14.396  0.2102 -0.1616 -0.1010
 8657W        W25131   4.537   8.729  12.261 -0.1248 -0.3984 -0.2723
 8658W        W25132  11.967   8.019   4.546  0.0835  0.2516 -0.2909
 8659W        W25133  15.006   7.077  12.929  0.1151  0.0144 -0.1117
 8660W        W25134  12.829  11.379   3.677 -0.1109  0.0390  0.1085
 8661W        W25135   6.477   0.359  11.644  0.2481  0.4088 -0.1663
 8662W        W25136  10.903  13.965   3.011  0.3893  0.1494  0.2662
 8663W        W25137  12.194  11.443   0.295  0.0393 -0.0714 -0.0589
 8664W        W25138   4.646  16.195  16.552  0.1614 -0.1562 -0.0295
 8665W        W25139  10.664   6.376   3.347 -0.0486 -0.1731 -0.1275
 8666W        W25140   5.912  15.127  14.013  0.1962 -0.2096 -0.0112
 8667W        W25141  17.045  15.930   3.607  0.3684  0.0786 -0.2205
 8668W        W25142  16.555   7.481   2.750  0.0041 -0.0652 -0.0822
 8669W        W25143  13.800  16.555   4.802 -0.4326  0.0802  0.1359
 8670W        W25144  15.474  12.986   0.205  0.1365 -0.2397 -0.2014
 8671W        W25145   3.393   6.044  15.833  0.1121  0.1916  0.1115
 8672W        W25146   7.404  11.061   2.772  0.3170  0.2094 -0.1332
 8673W        W25147  15.623   3.722   1.792  0.0109 -0.2719  0.2009
 8674W        W25148  14.971   6.546   3.542 -0.0634  0.0431 -0.1599
 8675W        W25149  14.965   6.148  16.844 -0.0411  0.1291  0.0083
 8676W        W25150   4.359  10.173   2.312 -0.0319  0.0241 -0.3611
 8677W        W25151   9.495  12.101   4.413 -0.1121  0.0351  0.0815
 8678W        W25152  13.788  14.731   3.878 -0.3815 -0.1581 -0.0463
 8679W        W25153  11.588  16.888  15.538  0.1722  0.3778 -0.2080
 8680W        W25154   0.159   6.336   2.319 -0.2901 -0.0182  0.1931
 8681W        W25155  14.207   5.662   3.330 -0.3997  0.1839 -0.2634
 8682W        W25156   6.657   7.077  16.559  0.2152 -0.1102 -0.1075
 8683W        W25157   8.830  15.052   2.794  0.1376 -0.0182 -0.3928
 8684W        W25158  12.583  10.176   2.587 -0.2036  0.2556  0.1115
 8685W        W25159   1.056  13.270   2.344  0.0453 -0.0541 -0.0304
 8686W        W25160   2.960   7.266   3.058  0.0533  0.3503 -0.0136
 8687W        W25161  16.176   7.583  16.805  0.1488  0.0387  0.4150
 8688W        W25162  17.391  17.810  16.260  0.0925  0.0983 -0.2829
 8689W        W25163  16.819   8.130   1.934 -0.0154 -0.0471  0.1024
 8690W        W25164   3.450  10.783   3.468  0.0433 -0.1283  0.0347
 8691W        W25165  15.724   9.222  12.671 -0.1314  0.0016 -0.0065
 8692W        W25166  12.871  13.790   6.608 -0.1766  0.0663  0.3332
 8693W        W25167   9.177  11.365   1.338  0.0805  0.1199  0.0478
 8694W        W25168  12.286   6.917   3.527 -0.1469  0.2846  0.0923
 8695W        W25169   1.733   1.066   0.750  0.1213  0.0816 -0.0499
 8696W        W25170   6.809   2.255   1.402  0.0719  0.2393 -0.1856
 8697W        W25171  15.031  13.255   4.105 -0.1022  0.1937  0.2403
 8698W        W25172   8.679  10.091   1.313 -0.0882 -0.2773 -0.0327
 8699W        W25173   1.834  10.039   5.467 -0.1138 -0.0270  0.0862
 8700W        W25174  10.377  15.340  13.529 -0.1267  0.6714  0.0101
 8701W        W25175   8.976  14.675  15.164 -0.1775  0.1086  0.1638
 8702W        W25176   4.905   1.991   4.189 -0.2807  0.0480  0.0934
 8703W        W25177  13.758  11.022   3.148  0.4508 -0.3277 -0.0380
 8704W        W25178  10.885   4.900   6.092  0.1652  0.2424  0.0111
 8705W        W25179   0.994   1.020   5.445 -0.0765 -0.1972  0.1750
 8706W        W25180   9.000   0.373  16.441  0.3470  0.1735  0.0255
 8707W        W25181   7.363   5.085   0.405 -0.2524 -0.1599 -0.2378
 8708W        W25182  12.447  12.973  15.676  0.0266  0.0321  0.1230
 8709W        W25183   7.631  10.329   2.077 -0.1194  0.2374 -0.0731
 8710W        W25184  14.677  10.154  13.597  0.2379 -0.0208  0.0496
 8711W        W25185  11.276   3.427  15.155  0.0241 -0.1378  0.0484
 8712W        W25186   4.372   9.078   2.141 -0.3306  0.2383 -0.0547
 8713W        W25187  10.605   2.430  10.833  0.2709 -0.0738  0.0297
 8714W        W25188   0.856  13.699   0.841 -0.0005  0.1245  0.0853
 8715W        W25189  13.843  15.893   5.387 -0.0841  0.2364  0.2768
 8716W        W25190  11.264  14.345  11.550  0.2159  0.2288  0.0168
 8717W        W25191   8.526  16.939   3.227 -0.3987 -0.2024 -0.0478
 8718W        W25192  11.059  17.152   0.515  0.1078 -0.2121  0.0828
 8719W        W25193   5.591  11.315  12.893 -0.1827  0.2016  0.2975
 8720W        W25194  10.664  11.084  16.505 -0.0213 -0.0577  0.1884
 8721W        W25195   2.552   2.834   1.327 -0.0011  0.2142 -0.1488
 8722W        W25196   1.365  15.115  14.815 -0.3245 -0.0990  0.2085
 8723W        W25197  10.056   0.359  11.455 -0.2193 -0.1207  0.0712
 8724W        W25198   1.649  16.310   1.425  0.0620 -0.1489  0.3048
 8725W        W25199   7.093  16.228  11.435  0.1226 -0.1731 -0.3569
 8726W        W25200  11.483  15.204   3.292 -0.1454  0.0961  0.0430
 8727W        W25201   4.963   6.440  16.018  0.1793  0.0739 -0.1817
 8728W        W25202   2.423  13.981   3.240  0.1003 -0.0904 -0.1104
 8729W        W25203   2.677  12.799  12.234  0.0059  0.2546 -0.2498
 8730W        W25204   0.488  14.382   2.787 -0.2058  0.0767  0.1600
 8731W        W25205   2.615  10.074  12.780 -0.0542 -0.2759  0.3413
 8732W        W25206   3.565   6.303   3.715 -0.0193  0.1973 -0.1269
 8733W        W25207  15.024   8.496   2.805  0.1300 -0.2514  0.0494
 8734W        W25208   0.953  17.071   1.248 -0.3112 -0.0029 -0.2406
 8735W        W25209   8.671   5.447   5.903 -0.1741 -0.0967 -0.5482
 8736W        W25210   8.576  16.841  13.809  0.1203 -0.0053  0.1954
 8737W        W25211  16.058  10.405  15.305 -0.2405  0.0957 -0.0008
 8738W        W25212   2.403  10.179  15.738 -0.3172 -0.1123  0.0085
 8739W        W25213   6.727  10.624  15.022  0.0451 -0.1678  0.2741
 8740W        W25214   3.240   1.713  12.210 -0.1618 -0.0200 -0.1710
 8741W        W25215   9.615   0.984  11.934 -0.1981  0.1014  0.0500
 8742W        W25216  12.623   2.445   1.140  0.0525 -0.1638  0.1447
 8743W        W25217   9.974  13.006   1.201 -0.2405  0.0491  0.1879
 8744W        W25218   8.509  16.292   2.545  0.0290 -0.2712  0.0489
 8745W        W25219  17.512   7.640   2.987  0.3465 -0.0076 -0.0321
 8746W        W25220   2.582   6.895   0.738 -0.1730  0.1053 -0.0439
 8747W        W25221  16.211  10.586  12.460  0.2073  0.0086  0.4076
 8748W        W25222  13.371   8.516  15.492 -0.0879  0.0149  0.0519
 8749W        W25223  14.789   2.677   3.641  0.2324 -0.0019  0.1690
 8750W        W25224   4.956  16.791   2.361 -0.3830 -0.0704  0.0463
 8751W        W25225  17.643   3.248  14.909  0.1039  0.2532 -0.0035
 8752W        W25226   7.440   0.380  15.523  0.1798  0.3358 -0.3204
 8753W        W25227   4.137  16.562   1.304 -0.1765  0.4199 -0.0208
 8754W        W25228  15.374   3.368   3.916 -0.1971  0.0944 -0.2320
 8755W        W25229   6.646   4.243   4.698 -0.0261  0.0473  0.0533
 8756W        W25230  12.309  17.781   2.386 -0.1388 -0.5606  0.1494
 8757W        W25231   7.977   1.210  11.636  0.2059 -0.0793 -0.0556
 8758W        W25232  15.023   3.873   1.485  0.0833  0.0088  0.1250
 8759W        W25233  16.947   2.909   0.392  0.0414  0.0237  0.2335
 8760W        W25234   4.233   4.599  14.948 -0.0750  0.0089 -0.6369
 8761W        W25235  11.681  11.003   1.843 -0.0196 -0.2488  0.0019
 8762W        W25236   7.601   1.461   4.404 -0.1926  0.2642  0.2053
 8763W        W25237  12.099   3.342   4.533  0.0558  0.5661  0.2504
 8764W        W25238  12.442  16.703  11.951  0.0433  0.0946 -0.0074
 8765W        W25239   6.144  15.644  14.365  0.3411 -0.3448  0.0035
 8766W        W25240   2.221  16.314   3.161  0.0419 -0.0095  0.0696
 8767W        W25241   2.201  17.464  12.231 -0.3706  0.2398  0.0327
 8768W        W25242   8.864   8.976   2.995  0.2197  0.3354  0.0016
 8769W        W25243  12.033   1.550  13.807  0.3780  0.1529  0.1023
 8770W        W25244   2.838   2.691   2.572  0.2477 -0.0874  0.0135
 8771W        W25245   7.502  11.398   4.373 -0.0081  0.2072  0.0475
 8772W        W25246  13.847  14.844  13.995  0.1053  0.2921  0.2381
 8773W        W25247  11.644  10.845  11.571  0.0468  0.0679  0.0320
 8774W        W25248  17.266  10.590  16.412  0.1088  0.3277  0.2769
 8775W        W25249   8.803  17.499   6.240 -0.1949  0.1776 -0.1593
 8776W        W25250  11.303   8.200  11.577 -0.0293 -0.0793  0.1462
 8777W        W25251   0.442   1.722  13.946  0.2294  0.0517 -0.2488
 8778W        W25252   3.798   6.873   2.442  0.0301  0.3533 -0.2243
 8779W        W25253   8.583   8.071  12.693 -0.2185 -0.2069 -0.1349
 8780W        W25254   2.259   5.859  16.032  0.0639 -0.1385 -0.0375
 8781W        W25255  14.683  16.750  11.909  0.2512 -0.0062 -0.0515
 8782W        W25256   7.586  13.474   1.766  0.0967 -0.1553  0.0750
 8783W        W25257  10.129   3.815  15.263  0.2626 -0.0995  0.2111
 8784W        W25258  17.745  14.720  13.946 -0.0214 -0.2675  0.1867
 8785W        W25259   1.874  15.493   2.071  0.1337  0.1960  0.0329
 8786W        W25260   3.672   4.538   3.719  0.0368  0.0964  0.1050
 8787W        W25261   3.303  13.460  14.381 -0.1087 -0.0353 -0.3038
 8788W        W25262  17.148   1.768   2.601 -0.0343  0.1016  0.0587
 8789W        W25263   6.905   3.224  15.323 -0.0269 -0.1781 -0.0491
 8790W        W25264  10.741   9.467  12.057  0.1306 -0.0562  0.0992
 8791W        W25265  10.205  10.593   4.106  0.5578  0.0445 -0.2272
 8792W        W25266   8.037  10.013   4.373 -0.0671 -0.3238  0.1414
 8793W        W25267  17.764  13.507  13.750 -0.1479 -0.0058  0.1950
 8794W        W25268   9.985   1.428  12.653  0.0475 -0.1161  0.2202
 8795W        W25269  15.063   7.040  14.857  0.0418  0.1686 -0.1619
 8796W        W25270  15.997   2.193   2.541  0.0469 -0.2610 -0.0926
 8797W        W25271   0.677  12.701  11.551  0.1957 -0.2076 -0.1399
 8798W        W25272  17.191   1.095   5.517  0.0455  0.0910 -0.1518
 8799W        W25273  12.778  11.877   3.902  0.0158  0.3013 -0.1953
 8800W        W25274  15.681  14.123   0.936 -0.0298  0.1352  0.0936
 8801W        W25275   4.536   8.430  13.307  0.1047  0.1397 -0.0413
 8802W        W25276  12.154   1.310   2.461  0.3179 -0.3071  0.0707
 8803W        W25277   8.192   4.202   6.346 -0.0035 -0.2464  0.1734
 8804W        W25278   2.596   1.164  12.692  0.0363 -0.0287 -0.1766
 8805W        W25279   5.211   9.311  14.794  0.0813 -0.1442 -0.0653
 8806W        W25280  13.950   6.850  13.270  0.1403 -0.2034  0.1683
 8807W        W25281   1.279  13.843  12.031 -0.0756  0.0960  0.0924
 8808W        W25282   9.615   4.377  15.825 -0.0286  0.0221  0.2056
 8809W        W25283   6.256  14.061  15.339  0.0901  0.1930  0.2907
 8810W        W25284  16.780   5.656  13.008 -0.1299  0.0264 -0.0569
 8811W        W25285   3.829   3.999  12.409 -0.0193 -0.2368  0.0074
 8812W        W25286   0.555  11.120   2.907 -0.0361 -0.1831 -0.0643
 8813W        W25287   8.280   1.624   1.849 -0.2070 -0.1718 -0.2195
 8814W        W25288  17.632   1.782   4.317 -0.0271  0.1116  0.0838
 8815W        W25289   8.651   2.233   3.552  0.2438  0.2460 -0.0085
 8816W        W25290   1.782  11.718  16.605 -0.3153 -0.1247 -0.0269
 8817W        W25291   6.344   4.134   1.441 -0.3323 -0.1294 -0.1388
 8818W        W25292   0.076   3.299   4.128  0.0291 -0.1602 -0.2725
 8819W        W25293   9.893  16.820   2.162  0.3129 -0.0709  0.0024
 8820W        W25294  15.188   6.672   4.299 -0.0051  0.1759  0.0991
 8821W        W25295  12.976  13.772   3.607 -0.0977  0.0907  0.0668
 8822W        W25296   1.922  16.219  15.805  0.1428 -0.0435  0.1338
 8823W        W25297   8.170  11.506   0.243 -0.0310  0.1840  0.0117
 8824W        W25298   8.106   5.887   4.468  0.1171  0.3117 -0.1166
 8825W        W25299  11.731   9.361   0.552  0.0793 -0.1984  0.0745
 8826W        W25300  13.564  16.174   1.975  0.1938 -0.0018 -0.0022
 8827W        W25301  12.253  16.987   2.005  0.2193  0.1565  0.0838
 8828W        W25302   5.116   6.893   2.424 -0.0915 -0.0889 -0.2450
 8829W        W25303   6.542   1.428  11.520  0.1859  0.2877  0.1757
 8830W        W25304   9.280  14.082   2.812 -0.1049  0.0958  0.0529
 8831W        W25305  12.773   2.583   3.758  0.4222 -0.1260  0.1161
 8832W        W25306   1.907  15.604   5.227 -0.2362 -0.0170  0.2393
 8833W        W25307  13.166  11.755  12.610  0.3018 -0.2511  0.2113
 8834W        W25308  15.787   4.899   3.024  0.3730 -0.1878 -0.0656
 8835W        W25309  11.098   7.798  13.492  0.1452 -0.1923 -0.1412
 8836W        W25310   5.059  12.266  15.259 -0.3542  0.1596  0.3124
 8837W        W25311   4.611  11.305   4.879  0.1840  0.1156 -0.3401
 8838W        W25312   4.586   6.334   2.672 -0.0931  0.0023 -0.1930
 8839W        W25313   2.572   6.846  15.688 -0.0603 -0.0954  0.0460
 8840W        W25314   4.300   2.287   0.988 -0.1289 -0.2436  0.1499
 8841W        W25315   4.392  14.194   1.616 -0.0103 -0.1859  0.0141
 8842W        W25316  14.470   0.904  16.768 -0.0962 -0.0137  0.0987
 8843W        W25317   1.104   3.153  15.424 -0.2872  0.0040  0.1537
 8844W        W25318  11.011  17.224   4.644  0.0526  0.0327  0.0928
 8845W        W25319  12.864  10.128   1.652  0.1442 -0.0316 -0.3118
 8846W        W25320  13.887   1.366  16.557  0.1220 -0.1182  0.0298
 8847W        W25321   3.129  11.441   4.360 -0.0127 -0.1626  0.0916
 8848W        W25322  10.120  10.718   1.313  0.0321  0.0267  0.1535
 8849W        W25323   2.101  16.690   0.439 -0.2877  0.0576 -0.1796
 8850W        W25324  15.593  11.961   5.195  0.3276 -0.1454 -0.0952
 8851W        W25325  16.506   8.565  14.054  0.0444 -0.1772 -0.2782
 8852W        W25326   5.986  12.626  15.236 -0.1296 -0.1542  0.2599
 8853W        W25327   6.974   7.431   1.887 -0.2090 -0.1220  0.2236
 8854W        W25328  17.776   8.050  12.897 -0.4905 -0.1515  0.1662
 8855W        W25329   6.429   6.719   0.353  0.4966  0.1177 -0.0115
 8856W        W25330   8.149  16.905   1.543 -0.2227 -0.2637 -0.2960
 8857W        W25331   5.422  13.552   1.284 -0.1844  0.0670 -0.1237
 8858W        W25332  13.461   0.684   1.571 -0.2863 -0.2194  0.0190
 8859W        W25333   5.732   4.726   1.817 -0.1583 -0.2460 -0.1558
 8860W        W25334   8.989  14.539  16.576  0.3740  0.2821  0.2466
 8861W        W25335  14.660  13.623   3.467  0.0542  0.3720 -0.1064
 8862W        W25336  10.563   2.189  16.614  0.1317  0.3156  0.0781
 8863W        W25337   7.057   5.268   2.313  0.1288 -0.1814  0.1192
 8864W        W25338  10.849   2.264   0.439  0.0775 -0.2800 -0.0719
 8865W        W25339  10.103   7.297  11.974  0.0776 -0.0779  0.2121
 8866W        W25340   0.476   7.317  14.920  0.0264 -0.0535  0.0565
 8867W        W25341  12.171  12.548   3.367  0.3876  0.0548  0.1695
 8868W        W25342  12.191   1.100  12.779  0.1783  0.1474 -0.0160
 8869W        W25343   4.242   3.527   5.917  0.0992  0.0121 -0.2332
 8870W        W25344   4.012   0.822   4.596 -0.0142  0.1402 -0.4148
 8871W        W25345   5.657   4.425  11.850 -0.0075 -0.2138  0.1274
 8872W        W25346   7.315   3.756  13.573  0.1543 -0.4345 -0.2227
 8873W        W25347   8.609   8.536  12.442 -0.0001 -0.2036  0.1079
 8874W        W25348   8.877   8.374  14.194 -0.1045 -0.0308 -0.0047
 8875W        W25349  10.140   7.849   3.096 -0.0302  0.0064  0.1436
 8876W        W25350  15.436   3.293   2.943  0.3422  0.1506  0.0177
 8877W        W25351  15.623  12.927   2.901 -0.2606  0.0451  0.0295
 8878W        W25352  14.959   8.831   3.893  0.2391 -0.0074 -0.1070
 8879W        W25353   1.830  12.800  12.029 -0.0133  0.0743  0.1321
 8880W        W25354   6.956   6.901   4.485  0.0254 -0.2019 -0.0587
 8881W        W25355  12.095  10.358   0.548  0.0302  0.1139 -0.0268
 8882W        W25356  16.797  16.398  12.563 -0.1054  0.0525  0.0606
 8883W        W25357  17.460   8.429  11.665 -0.3215 -0.1645 -0.1507
 8884W        W25358   3.530  13.774  15.201  0.1250 -0.1566  0.1084
 8885W        W25359   7.447  16.988  15.771 -0.1708 -0.0660  0.0626
 8886W        W25360   8.142   9.583   0.676  0.2824  0.2422  0.1222
 8887W        W25361   2.374  13.972   1.645  0.0113  0.2176  0.2182
 8888W        W25362   6.080  15.919   1.252 -0.1378  0.0104 -0.1017
 8889W        W25363   5.158   3.358   5.566 -0.1936 -0.2295  0.0654
 8890W        W25364  17.014  10.840   0.126  0.0764  0.3376 -0.1075
 8891W        W25365   5.750   7.561  12.969 -0.0656  0.0373  0.0529
 8892W        W25366   1.058   7.901   4.533  0.2666 -0.1859  0.1923
 8893W        W25367   3.229  12.169   3.527 -0.2577 -0.0904 -0.1340
 8894W        W25368   1.343  10.142   4.992 -0.1946  0.0178  0.3092
 8895W        W25369   8.956   2.892  12.526  0.0259  0.1035 -0.1372
 8896W        W25370   7.325  16.031   4.216  0.2425  0.0855 -0.2171
 8897W        W25371  15.468  10.542  13.718 -0.1223 -0.2294  0.1398
 8898W        W25372  11.345   4.888  15.721  0.1033 -0.0343 -0.3744
 8899W        W25373   3.615  10.243  13.460  0.1117 -0.0152 -0.0886
 8900W        W25374   5.529   9.609  13.448 -0.2396  0.4117 -0.0941
 8901W        W25375   4.005  17.295  13.536 -0.0541 -0.0600 -0.0343
 8902W        W25376   6.412  12.299  15.221  0.0835 -0.0039 -0.0691
 8903W        W25377  17.245   6.672   1.080  0.1540  0.2568  0.3512
 8904W        W25378  16.790  17.156  11.910  0.0337 -0.1982 -0.0321
 8905W        W25379  11.030  13.706  15.279  0.2505  0.2713  0.1729
 8906W        W25380   4.066   8.787  16.349  0.2959  0.1332 -0.2878
 8907W        W25381  17.188   6.230   2.481  0.1932  0.2134 -0.0871
 8908W        W25382   8.757  14.242  10.488  0.1227 -0.0189 -0.1499
 8909W        W25383   5.980   5.367   0.251 -0.0141  0.2041 -0.1406
 8910W        W25384  12.407  16.732  16.787  0.1739  0.0734 -0.1194
 8911W        W25385   4.374   1.769   1.774  0.2589  0.0852  0.0337
 8912W        W25386  12.407   6.002  16.624  0.1974  0.2074  0.3136
 8913W        W25387  16.231   8.138  16.750 -0.1660 -0.0439 -0.0287
 8914W        W25388   2.503   1.714  13.915  0.1602  0.3725 -0.1016
 8915W        W25389  11.282   0.332  16.480 -0.0907 -0.0280 -0.1784
 8916W        W25390  14.981  16.576   0.723  0.1681 -0.1724 -0.0818
 8917W        W25391  12.598   2.325   5.057  0.2227  0.2809  0.2190
 8918W        W25392  16.482   8.004  15.760  0.1259 -0.0752  0.2321
 8919W        W25393   1.920  16.919  12.122  0.1134  0.0019 -0.1159
 8920W        W25394   2.513   8.184   3.961 -0.0065 -0.3704 -0.0408
 8921W        W25395   7.600   6.046   5.294 -0.2136  0.0717 -0.1090
 8922W        W25396   5.798  10.232   3.519 -0.1695 -0.1224  0.1343
 8923W        W25397  14.264   3.018  15.123  0.0701 -0.2271  0.1456
 8924W        W25398   4.886   7.319  13.855  0.1525  0.1844 -0.0634
 8925W        W25399   6.103   6.144   3.420 -0.0080  0.1530  0.1468
 8926W        W25400  15.177   4.446  12.684 -0.1709 -0.1714  0.1916
 8927W        W25401   4.733   0.586  16.412 -0.0696  0.3088 -0.0038
 8928W        W25402   8.944  12.457  12.304 -0.0065  0.0130  0.1421
 8929W        W25403   5.788   9.279   3.503  0.1141  0.2568 -0.0383
 8930W        W25404   1.372  17.752   0.722  0.2068 -0.1749 -0.1220
 8931W        W25405  15.548  14.357  16.203  0.1990  0.0433 -0.1886
 8932W        W25406   5.131   9.661   1.038  0.2276 -0.0963  0.1862
 8933W        W25407   8.294  15.655   5.514 -0.1718  0.3186 -0.0979
 8934W        W25408  16.510   9.955   4.435  0.0068 -0.1697 -0.0048
 8935W        W25409   0.657  13.025   2.625  0.1239 -0.2753  0.1492
 8936W        W25410   6.144  11.862   2.418  0.1781  0.1820  0.0516
 8937W        W25411  13.392   8.768   0.097 -0.1037 -0.3144  0.3642
 8938W        W25412   2.717   6.017   0.774 -0.2268  0.1928  0.0411
 8939W        W25413   5.022  12.540   1.324 -0.2524  0.0596  0.1687
 8940W        W25414   9.475   0.594   3.058 -0.1186 -0.2433  0.0054
 8941W        W25415   3.923  16.532   6.092  0.2122  0.1325  0.0612
 8942W        W25416   4.174  14.475  14.851 -0.3337  0.2933  0.3338
 8943W        W25417  11.690  13.543  15.188  0.0432 -0.1287 -0.4125
 8944W        W25418   5.120  15.227   0.477 -0.0699 -0.1716 -0.0584
 8945W        W25419   9.422  15.128   4.312  0.0553 -0.0659 -0.0658
 8946W        W25420   2.329  16.737  14.711  0.0244 -0.1410  0.0185
 8947W        W25421   9.925  10.440   0.002  0.0380 -0.5136 -0.4068
 8948W        W25422   8.580  12.282   1.393 -0.2292  0.1812 -0.1202
 8949W        W25423  12.754   4.596   1.133  0.0268  0.0317  0.0856
 8950W        W25424   3.467   3.230   2.055  0.1011  0.3034 -0.4224
 8951W        W25425   4.630  10.380  14.801 -0.0630 -0.0883  0.1160
 8952W        W25426  16.605   1.126  14.490  0.1753 -0.1039 -0.0331
 8953W        W25427   2.816   3.065  15.241 -0.1163 -0.0376 -0.2749
 8954W        W25428  14.541  17.654   0.506 -0.0812  0.2104 -0.2246
 8955W        W25429  16.651  14.237   0.869 -0.2992 -0.5070  0.2683
 8956W        W25430  14.097   0.591  15.935  0.1379 -0.1508 -0.3041
 8957W        W25431   1.916   7.643  16.280  0.0564  0.0217  0.0926
 8958W        W25432  16.319   8.634   3.580 -0.2264 -0.0664  0.0901
 8959W        W25433   5.128   3.549   2.990  0.1092 -0.1902 -0.0605
 8960W        W25434   7.453  17.810  12.077 -0.0899  0.1719 -0.0227
 8961W        W25435   0.522   2.927   1.453  0.2849 -0.1100 -0.2249
 8962W        W25436   2.891   8.079   5.620  0.1946  0.3115 -0.0734
 8963W        W25437   0.547   3.966   3.160 -0.1569 -0.1218 -0.0161
 8964W        W25438   9.384  16.083   2.550  0.0686 -0.2661 -0.1336
 8965W        W25439  15.016  13.717  16.624  0.0707  0.0602 -0.1851
 8966W        W25440   1.194  17.795   0.058 -0.0490 -0.4166  0.1754
 8967W        W25441  12.356  15.513   0.889  0.2600  0.2099 -0.0260
 8968W        W25442  17.695   9.257   3.598  0.0437 -0.0244  0.1313
 8969W        W25443   3.635  15.339   1.941 -0.0147  0.2857  0.0512
 8970W        W25444   6.803  10.432  13.122 -0.2852 -0.0479 -0.1159
 8971W        W25445   8.569   4.701   0.922  0.1105  0.0603 -0.3527
 8972W        W25446   7.361   4.190   2.392 -0.2424 -0.1793 -0.0582
 8973W        W25447  13.998  13.570   2.069 -0.1576 -0.2078  0.0035
 8974W        W25448  16.038   0.586  12.934  0.0133  0.1336 -0.0571
 8975W        W25449   0.143   2.779   3.295  0.4715 -0.2391 -0.1736
 8976W        W25450  14.422   0.161  15.865  0.2671 -0.0268 -0.2459
 8977W        W25451   0.773   2.440   0.282 -0.1281 -0.1268  0.2565
 8978W        W25452   7.109  15.780   2.558  0.0217  0.0778 -0.1513
 8979W        W25453   7.701   0.786   3.540 -0.1967  0.2484  0.0386
 8980W        W25454   3.153  17.251  12.661  0.0660  0.0084  0.0112
 8981W        W25455  12.691  13.917  11.779  0.2509 -0.0856 -0.3198
 8982W        W25456  15.991  15.814  12.662  0.1140  0.1830  0.1323
 8983W        W25457   7.652  10.640  14.380 -0.0110  0.1402  0.1210
 8984W        W25458  12.134   7.946   0.491 -0.1134 -0.0134  0.0313
 8985W        W25459   2.617   4.656  16.358 -0.3242  0.3449 -0.3097
 8986W        W25460   5.192   0.190   2.767  0.0995  0.0197  0.0264
 8987W        W25461  11.140  15.366  12.657 -0.0666  0.1091 -0.0376
 8988W        W25462   6.487   4.403  14.427 -0.1828  0.0994 -0.1790
 8989W        W25463  12.822  14.274  15.778 -0.1999  0.0292 -0.1890
 8990W        W25464   5.105   0.729  14.466 -0.0180 -0.4418  0.0607
 8991W        W25465   4.916   1.176   1.466 -0.1817  0.0053 -0.0800
 8992W        W25466   6.630  13.778  14.194  0.3958 -0.0038  0.4075
 8993W        W25467  12.716  11.656  15.280 -0.0988  0.0269  0.3748
 8994W        W25468   3.182  11.061  13.053  0.2575 -0.0563  0.2551
 8995W        W25469  12.937  12.660  13.833 -0.1775  0.2662 -0.0080
 8996W        W25470  16.972   5.597   1.237 -0.3456 -0.0821  0.1127
 8997W        W25471  10.766  10.823  11.724 -0.0212  0.0624 -0.4131
 8998W        W25472  13.387  10.250   3.114 -0.3875 -0.1062 -0.0672
 8999W        W25473  17.266  16.226   0.880 -0.1284 -0.0020 -0.1247
 9000W        W25474  15.557  17.188   5.758 -0.0191 -0.1829 -0.1585
 9001W        W25475   8.257   7.405  13.109 -0.2347  0.0645  0.0319
 9002W        W25476   5.434  11.815  12.548  0.0365  0.0962 -0.1549
 9003W        W25477  15.680   2.995   1.707 -0.0158  0.1430  0.1775
 9004W        W25478  16.935   4.933  15.713 -0.1511 -0.0300 -0.0423
 9005W        W25479   6.086  16.456   3.515  0.1080  0.2351  0.0610
 9006W        W25480   9.244  17.668   3.457  0.2791  0.1215  0.1754
 9007W        W25481  13.854   3.204   1.598  0.2817  0.1569 -0.0457
 9008W        W25482   8.977   6.163   5.324  0.1321  0.1270  0.3145
 9009W        W25483  12.723  15.365   3.179  0.5143  0.0372 -0.0430
 9010W        W25484  15.784  16.942   5.125 -0.1815  0.3295 -0.3279
 9011W        W25485   3.436   9.569   5.626 -0.2544 -0.0451  0.0897
 9012W        W25486   1.789  10.688   0.921 -0.1980 -0.2115 -0.1646
 9013W        W25487  12.632   8.736  15.440 -0.2839  0.0471  0.0631
 9014W        W25488   9.043   3.191   5.332 -0.1626  0.0180  0.0748
 9015W        W25489   0.131  16.410  11.798 -0.0931  0.0367  0.1170
 9016W        W25490   2.614  14.446   3.332  0.0926 -0.0149  0.0776
 9017W        W25491  10.749   9.847  16.815  0.1054  0.0046 -0.2026
 9018W        W25492  12.673   0.097   1.434 -0.2267 -0.0188  0.1745
 9019W        W25493  10.658  16.821  13.076  0.0061 -0.1163  0.2709
 9020W        W25494  13.691  13.037   1.382  0.2185 -0.2811  0.0307
 9021W        W25495  14.234   1.376  16.892  0.3268 -0.2420  0.0035
 9022W        W25496   0.252  15.271   3.912 -0.3367 -0.1671  0.0813
 9023W        W25497  10.743  15.662  13.376 -0.1111 -0.1098  0.0790
 9024W        W25498   9.001  16.560   5.199  0.0078  0.2414  0.1019
 9025W        W25499  16.359  11.187   5.601 -0.3314 -0.0983 -0.0075
 9026W        W25500  11.126   2.085  16.433  0.3439 -0.1816 -0.1416
 9027W        W25501   2.203   1.439  14.219 -0.0754  0.1279 -0.2075
 9028W        W25502   7.108   6.650   3.991  0.1159 -0.0563  0.0396
 9029W        W25503   1.659  13.408   3.680 -0.1055  0.3957  0.0608
 9030W        W25504   6.022   1.392  13.220  0.1737  0.0037 -0.0186
 9031W        W25505   9.424   2.476   5.509  0.1505 -0.2177  0.0871
 9032W        W25506  12.676   9.219   5.369 -0.2095  0.1213  0.1827
 9033W        W25507   8.120   3.500   3.080 -0.1734  0.0460  0.3818
 9034W        W25508  11.251   7.571  16.854 -0.1184 -0.0986  0.0014
 9035W        W25509  15.154   4.604  15.262 -0.2749  0.1338  0.0911
 9036W        W25510   5.566   4.245   0.287 -0.2428  0.2961  0.0515
 9037W        W25511  10.810   0.945   1.194  0.1755  0.0537  0.1445
 9038W        W25512  15.737   1.545  15.680  0.1753  0.2434  0.3049
 9039W        W25513   5.043  13.072  13.173 -0.0384 -0.1068  0.0708
 9040W        W25514  10.451  14.466   3.565  0.3838  0.2950 -0.1163
 9041W        W25515   5.059   9.078  16.208  0.0229  0.0075 -0.1027
 9042W        W25516   8.711  17.111  14.774 -0.0599  0.1942 -0.1715
 9043W        W25517   7.779  15.150   4.385  0.1338 -0.1151 -0.3391
 9044W        W25518  12.501   2.638   5.621 -0.2098 -0.1199 -0.0032
 9045W        W25519  10.853   3.288  15.747 -0.2501  0.0589 -0.3313
 9046W        W25520   5.239   3.784   1.108 -0.1538 -0.1429 -0.0124
 9047W        W25521  10.477   7.636  11.397  0.1123 -0.1942  0.0088
 9048W        W25522   6.772  16.903   1.935  0.0223  0.0371 -0.1566
 9049W        W25523   7.400   1.494   0.498  0.1882 -0.1555 -0.4582
 9050W        W25524   4.019  12.618   2.968  0.0157  0.3360 -0.0640
 9051W        W25525   9.062   4.816   4.395 -0.0640  0.3928  0.0298
 9052W        W25526   8.905   8.181  11.571  0.1081  0.1525 -0.3214
 9053W        W25527   8.558  15.748  13.784  0.0267  0.2396 -0.0372
 9054W        W25528   7.138  15.291  11.915 -0.3038 -0.1718 -0.0621
 9055W        W25529   2.896   7.257   4.853 -0.0186  0.1605 -0.1125
 9056W        W25530   1.368  10.070  12.562 -0.2160  0.0174 -0.1242
 9057W        W25531   0.980   2.003   4.628 -0.1849 -0.1977  0.1005
 9058W        W25532   8.593  15.282  14.790 -0.0812 -0.0123 -0.2069
 9059W        W25533  13.462  12.120   5.179 -0.1812 -0.2188  0.0058
 9060W        W25534   7.269  11.478   2.395 -0.1719  0.0761 -0.0965
 9061W        W25535   9.408   6.118   2.265  0.0916 -0.0595  0.1354
 9062W        W25536   4.711  15.387  11.736 -0.2460  0.0332  0.1903
 9063W        W25537  14.475   9.141   1.835  0.3401  0.1009 -0.3869
 9064W        W25538  16.500   3.651   4.667  0.0762 -0.0175  0.3700
 9065W        W25539   7.799  13.487  16.324 -0.0686  0.2229 -0.1606
 9066W        W25540   2.745   8.700   0.566 -0.0924 -0.0699 -0.1633
 9067W        W25541   4.807   9.102  15.187 -0.3415 -0.2966  0.2536
 9068W        W25542   8.014  11.434  14.761  0.0289  0.0551 -0.3415
 9069W        W25543  13.729   0.725  13.474 -0.0116 -0.3147  0.1558
 9070W        W25544   5.370   0.326   3.685  0.0071 -0.1042  0.0887
 9071W        W25545   2.265  17.266  14.681 -0.0578  0.1075 -0.1387
 9072W        W25546   5.269   2.240   2.506  0.1061  0.1933  0.1865
 9073W        W25547   1.867   7.781  13.014  0.0305  0.0616 -0.1483
 9074W        W25548  11.676   7.199  14.618  0.1030  0.1494  0.2341
 9075W        W25549   6.445   0.661   1.984  0.0386 -0.0233  0.2348
 9076W        W25550   3.192  17.295   4.539 -0.1058 -0.0612 -0.1613
 9077W        W25551   9.451  14.674   6.333  0.0465 -0.3344 -0.1592
 9078W        W25552   2.141   7.379   4.411 -0.1435  0.0717 -0.2142
 9079W        W25553  15.935   4.342   4.286  0.2097 -0.0316 -0.3098
 9080W        W25554  16.889  12.492  14.422  0.0929 -0.1478 -0.3721
 9081W        W25555  10.776  11.275   4.176 -0.2426  0.0077  0.2229
 9082W        W25556  11.517  13.476  16.516 -0.2452  0.0367  0.0413
 9083W        W25557  10.416  15.862   4.764 -0.3999  0.0452  0.2111
 9084W        W25558   3.047   3.724   4.993  0.0294  0.2248 -0.0077
 9085W        W25559   0.334   5.104   1.572  0.1207  0.2928 -0.0298
 9086W        W25560   5.578   6.410  15.146 -0.1795 -0.0036  0.1320
 9087W        W25561  15.911   1.364  14.986 -0.2793 -0.0451  0.3061
 9088W        W25562   6.140  13.812   0.342  0.0005 -0.2864 -0.0831
 9089W        W25563  15.024  12.207   2.485 -0.0216 -0.0457  0.1988
 9090W        W25564  15.915  10.006   3.551  0.0800  0.1408  0.1698
 9091W        W25565   5.653   0.817  15.886  0.1678 -0.0491  0.2924
 9092W        W25566  12.708   2.567  14.423 -0.0506  0.1694  0.2414
 9093W        W25567  16.985  11.314   4.860 -0.1341  0.0137  0.3411
 9094W        W25568  14.151  15.713  16.686 -0.0540  0.1461 -0.3142
 9095W        W25569   3.884   7.914  15.382 -0.2121 -0.1193  0.0663
 9096W        W25570   6.429   9.703  13.425 -0.0193  0.1292  0.1005
 9097W        W25571   6.766   3.524   3.627 -0.1172  0.2716  0.4238
 9098W        W25572   2.761  12.445  13.228  0.0472  0.2413  0.2687
 9099W        W25573   4.344   4.019   4.144  0.1125 -0.0401  0.2742
 9100W        W25574   9.223   4.723   3.734  0.0956 -0.2007 -0.4502
 9101W        W25575  14.225  16.548  14.682 -0.2948 -0.0119 -0.0862
 9102W        W25576  10.494   2.427  15.716 -0.1413  0.1809  0.0994
 9103W        W25577  12.505   1.589  14.257 -0.0063 -0.1835  0.0897
 9104W        W25578   0.091  13.428   0.177 -0.0565 -0.0479  0.2863
 9105W        W25579   4.327   6.769  16.474  0.0624  0.2316  0.0658
 9106W        W25580  12.163  17.069   3.412  0.0571 -0.1912  0.0511
 9107W        W25581   3.595  17.323  16.121 -0.0807  0.3326  0.0604
 9108W        W25582   0.956   0.053  12.638 -0.0191 -0.1107 -0.0667
 9109W        W25583   4.571   5.268  16.193  0.2068 -0.0632 -0.0857
 9110W        W25584   5.324   5.793  16.610  0.1146  0.1270  0.1030
 9111W        W25585  12.052   1.899   5.694 -0.2176  0.3921  0.0227
 9112W        W25586   0.839  16.114   0.831 -0.1926 -0.0615  0.2118
 9113W        W25587  17.386  14.704   5.087  0.3325  0.1842 -0.3069
 9114W        W25588  12.120   0.514   5.539 -0.1144  0.3713 -0.0363
 9115W        W25589   2.591   0.418  16.619 -0.4601 -0.2263  0.2730
 9116W        W25590   2.138  14.799  13.421  0.0011 -0.2873 -0.1181
 9117W        W25591   9.734  11.992  12.356  0.0448 -0.0271  0.1038
 9118W        W25592   4.981   0.673  12.283  0.0705  0.3526 -0.3702
 9119W        W25593   9.850   3.211  12.868 -0.1767 -0.2308  0.3217
 9120W        W25594  14.684  16.780   5.771  0.2074  0.0944 -0.0857
 9121W        W25595   5.410   0.684   5.828  0.2709  0.0672  0.0522
 9122W        W25596   3.981  17.487   3.193  0.3101 -0.0259 -0.0519
 9123W        W25597   1.597   7.386   5.742  0.0683 -0.1788 -0.0630
 9124W        W25598   7.858  11.377  14.258 -0.2108 -0.1367  0.0169
 9125W        W25599  15.559   3.113  12.824  0.2408  0.1949  0.0110
 9126W        W25600   3.105  12.626  12.478 -0.3115  0.0890 -0.0422
 9127W        W25601  13.504   8.598  13.054  0.1348  0.4023 -0.3326
 9128W        W25602  12.477  14.202   3.882  0.2780  0.0338  0.0789
 9129W        W25603  10.974   9.398   5.156 -0.1292 -0.1133 -0.0358
 9130W        W25604   5.586   8.680  16.042 -0.0053 -0.1406  0.1040
 9131W        W25605   6.533   3.775   0.079  0.2655  0.0842 -0.1628
 9132W        W25606   3.690  11.870  16.061 -0.1477  0.4529  0.1165
 9133W        W25607  16.768  13.718  15.789  0.1115 -0.0633  0.0716
 9134W        W25608  14.512  11.619   3.518  0.0230  0.1278 -0.0523
 9135W        W25609  14.140   1.558   3.495 -0.0509  0.2267 -0.0269
 9136W        W25610   6.526   1.922  16.094 -0.0695 -0.0512 -0.0650
 9137W        W25611  11.828   0.705  14.181 -0.0426 -0.1478  0.1061
 9138W        W25612  13.063  16.677   1.498  0.1210 -0.2358  0.0132
 9139W        W25613  15.977   7.282   3.709  0.2153 -0.0455  0.1398
 9140W        W25614  12.240  11.816   5.359  0.2611  0.1981 -0.0120
 9141W        W25615  17.373  12.112   2.764 -0.0614  0.2059  0.1711
 9142W        W25616   1.766   9.300   5.372  0.1462  0.0219  0.0852
 9143W        W25617  12.480   8.947   3.921 -0.2117  0.2609 -0.0440
 9144W        W25618   1.645   2.288  13.784  0.0484  0.0554 -0.0561
 9145W        W25619   3.935   8.726   5.638  0.1439  0.0972 -0.5316
 9146W        W25620   6.812  12.130   0.215 -0.1274 -0.1210  0.2175
 9147W        W25621  13.055   9.592  12.257  0.1230 -0.0241  0.0697
 9148W        W25622  15.171   9.273   3.772  0.0009  0.0359 -0.2146
 9149W        W25623   2.391  13.906  14.069  0.0808 -0.0371  0.2394
 9150W        W25624  15.511   1.192  15.376 -0.2561 -0.2929 -0.1384
 9151W        W25625   3.034   2.703   5.309 -0.3203  0.0220 -0.0628
 9152W        W25626   2.503  13.736  11.382  0.0034 -0.0238  0.2410
 9153W        W25627  14.850   8.925   5.285 -0.2009  0.0658  0.1915
 9154W        W25628  11.109   4.859   5.620  0.1406 -0.0379 -0.0070
 9155W        W25629  15.280  10.210   4.211  0.0516 -0.2274  0.1520
 9156W        W25630  12.423   8.093  14.766  0.0274 -0.4363  0.2903
 9157W        W25631   3.419   9.073  16.715 -0.1381  0.0840  0.1577
 9158W        W25632   8.853   5.905  14.350  0.0803  0.1536 -0.0435
 9159W        W25633   4.842   7.142  12.463  0.0841 -0.2040  0.2928
 9160W        W25634   7.304   1.253  10.495  0.0647  0.1101 -0.0058
 9161W        W25635   5.249   5.211   3.788 -0.1444  0.2730  0.4549
 9162W        W25636  12.489   9.223  16.338 -0.2035  0.2561 -0.3002
 9163W        W25637  14.749  11.024   1.098  0.1276  0.1010  0.0746
 9164W        W25638   9.569   8.104   5.276  0.0060  0.2418  0.3113
 9165W        W25639   9.445  11.399   1.782 -0.0492  0.2402  0.1798
 9166W        W25640  14.466  17.416  11.154 -0.2799  0.1203  0.1158
 9167W        W25641  13.542  12.898  15.517  0.1278 -0.1245  0.0586
 9168W        W25642   7.517   1.935   3.923 -0.2790  0.0176 -0.1848
 9169W        W25643  16.672   4.435  16.859  0.0734 -0.2964 -0.5445
 9170W        W25644   4.907   5.033  13.872  0.0766  0.0562 -0.1503
 9171W        W25645  13.947   7.952  14.913 -0.1340  0.2094 -0.0734
 9172W        W25646   7.147   4.876   5.818 -0.2628  0.0423  0.0773
 9173W        W25647   4.259  11.315   1.394  0.0163 -0.2445 -0.1169
 9174W        W25648  13.022   4.354   3.182 -0.1339 -0.3471 -0.1054
 9175W        W25649   6.237  12.781   1.933  0.1019 -0.2315 -0.1096
 9176W        W25650  16.969   0.407   3.242  0.1051 -0.1560  0.2080
 9177W        W25651  10.945   3.060  16.343  0.2062 -0.2030 -0.0464
 9178W        W25652   0.232   1.254   4.751 -0.2836 -0.0265 -0.1515
 9179W        W25653   8.130   2.150  12.125  0.0017 -0.2469  0.1214
 9180W        W25654  10.209   2.190  16.251  0.4539 -0.0625 -0.6291
 9181W        W25655   0.380  16.872  14.402 -0.1050 -0.1757 -0.2032
 9182W        W25656  16.778   0.180   1.388 -0.0627 -0.2510  0.0801
 9183W        W25657  13.374   8.751   0.598  0.1729 -0.1256  0.1209
 9184W        W25658   1.924   8.856   4.902 -0.1183  0.2877 -0.0944
 9185W        W25659  10.385   5.605   1.845 -0.1948  0.1641  0.0402
 9186W        W25660  14.497  10.631   0.855  0.1477 -0.2901 -0.0869
 9187W        W25661   6.997  12.218   3.165 -0.1449  0.0221 -0.1043
 9188W        W25662  16.446  10.459  15.652 -0.3348  0.0294 -0.2414
 9189W        W25663   9.699  14.234   6.204 -0.0032 -0.0874  0.2373
 9190W        W25664   9.199   2.804   1.382 -0.0941  0.0520  0.2807
 9191W        W25665  10.809   2.553  15.366 -0.0078 -0.0358  0.3505
 9192W        W25666   0.746  15.941  11.543 -0.1504 -0.0592  0.1579
 9193W        W25667  14.655   5.957   4.213  0.2073 -0.1647 -0.0585
 9194W        W25668   1.038  15.203   1.472  0.1528 -0.2186  0.1182
 9195W        W25669  11.485  15.539   5.233 -0.0187  0.1970  0.0784
 9196W        W25670   6.874   2.514   5.471  0.0995  0.2667 -0.0748
 9197W        W25671   4.211   7.242   1.010  0.0782  0.0908  0.1533
 9198W        W25672  13.802   0.606   2.010 -0.0036  0.3160  0.1243
 9199W        W25673  10.084   1.216  13.129 -0.1234 -0.0226 -0.0786
 9200W        W25674   6.949   7.719   3.145 -0.0398  0.0057 -0.1529
 9201W        W25675  13.648   6.468  16.795 -0.2741  0.0060  0.0402
 9202W        W25676   8.645   3.311  13.832  0.0339  0.0335  0.0182
 9203W        W25677   2.590  12.864   0.684  0.1968  0.0042 -0.1250
 9204W        W25678  10.365   3.607  12.151 -0.2491  0.1169  0.0170
 9205W        W25679  15.720   0.702   2.414 -0.1741 -0.0229  0.0595
 9206W        W25680   6.027  15.583  12.029 -0.0344  0.2124  0.1058
 9207W        W25681  17.672   3.999   4.722 -0.0271 -0.0446  0.1676
 9208W        W25682   3.044  14.410  11.992  0.0951  0.2875  0.1107
 9209W        W25683   2.751   0.211   4.496  0.0280 -0.0668 -0.1328
 9210W        W25684  16.689  15.689  15.968 -0.2292 -0.0842 -0.0020
 9211W        W25685   3.387   7.117   4.786 -0.0370  0.0451 -0.2602
 9212W        W25686  10.449  11.153   2.973  0.2053  0.2094  0.1256
 9213W        W25687  13.795  11.152   5.118  0.4540  0.0522  0.0950
 9214W        W25688   0.797   4.819   5.063 -0.1256 -0.0805 -0.0539
 9215W        W25689   1.152   5.431   2.408 -0.1748  0.2147  0.1453
 9216W        W25690   5.474  13.902   1.581  0.3033 -0.1811  0.0875
 9217W        W25691  10.903   2.930  13.078  0.2784  0.1394  0.0753
 9218W        W25692   9.875   5.500   1.848  0.0581  0.1039 -0.0645
 9219W        W25693   0.068  15.169  16.549  0.0357  0.1304 -0.1768
 9220W        W25694  12.459   5.521  13.364 -0.2235 -0.1145  0.1000
 9221W        W25695   9.062   7.794  12.468 -0.1518 -0.1052  0.0644
 9222W        W25696  14.381   7.269  15.516  0.1504  0.1678 -0.4024
 9223W        W25697  15.614   8.813  12.217  0.1770 -0.2665  0.0113
 9224W        W25698  17.435   3.831  14.047 -0.0555  0.0901  0.0806
 9225W        W25699   9.605   8.830  16.859  0.0979  0.0192  0.2153
 9226W        W25700  10.329  10.462   0.881 -0.0547  0.0639 -0.0014
 9227W        W25701  15.967  15.364  13.476  0.1147  0.0469 -0.1181
 9228W        W25702   1.382   7.571   1.680 -0.0391  0.0027  0.1205
 9229W        W25703  14.850   2.296   3.256  0.3072  0.1081 -0.3637
 9230W        W25704  13.891   6.548   3.392  0.1207  0.0374  0.1913
 9231W        W25705   1.689   3.297   2.590  0.1746  0.0297  0.2984
 9232W        W25706   2.895  11.258   2.292 -0.0410  0.0733  0.0401
 9233W        W25707   9.704  13.737  14.941 -0.0904  0.1689  0.2183
 9234W        W25708  13.348  10.584   0.393 -0.2478 -0.2532 -0.0016
 9235W        W25709   0.295   5.020   3.179  0.1035 -0.2487  0.0061
 9236W        W25710  15.962   4.324   3.510  0.1681 -0.1126 -0.0938
 9237W        W25711   2.333  17.515   2.923 -0.2677 -0.1791 -0.4096
 9238W        W25712  16.117  16.334  13.762  0.2969 -0.0056  0.1329
 9239W        W25713   3.038  12.174   2.106  0.0576  0.0325  0.2828
 9240W        W25714   1.864  13.680   4.556 -0.1238 -0.0725 -0.0276
 9241W        W25715   0.522   2.518   3.531  0.1175  0.0839  0.0206
 9242W        W25716  16.987   5.164  14.776 -0.0643 -0.2261  0.1865
 9243W        W25717   7.120   7.123  14.483  0.0450  0.0038 -0.2576
 9244W        W25718   5.185   6.985   4.838  0.2801  0.1940  0.3002
 9245W        W25719   5.380   4.725  15.743  0.2635 -0.1975 -0.0284
 9246W        W25720  14.440   1.692   4.056  0.1557 -0.4346  0.2188
 9247W        W25721   3.129  13.664  13.898 -0.0951  0.1038 -0.0649
 9248W        W25722  10.660   2.843   2.970  0.2698 -0.2460  0.0627
 9249W        W25723  12.740  13.056  11.911 -0.0058  0.2859  0.0199
 9250W        W25724   2.693  10.509  11.379  0.2022  0.1345  0.2850
 9251W        W25725   2.273  12.566   5.608 -0.1298 -0.4323  0.0508
 9252W        W25726   9.460   8.545  13.042 -0.0601  0.2041 -0.2429
 9253W        W25727  17.598  14.224  13.379  0.2543  0.1968  0.1472
 9254W        W25728  10.844   4.947  16.458 -0.4789 -0.0213  0.0795
 9255W        W25729   2.044   5.326   2.139  0.0415 -0.1632 -0.1352
 9256W        W25730   9.688   2.559  15.154 -0.0413 -0.0222  0.0422
 9257W        W25731  16.538   6.021  12.067 -0.0982  0.0777 -0.0414
 9258W        W25732  17.135   2.346  15.385  0.0196 -0.0586  0.0244
 9259W        W25733   2.086  15.484   6.109  0.2213  0.0162 -0.1819
 9260W        W25734   0.701  13.769  14.615 -0.0746 -0.2820  0.2234
 9261W        W25735   0.326  17.571  12.164 -0.0355 -0.4092 -0.0440
 9262W        W25736  17.350  17.179   3.063  0.0310 -0.1437 -0.2659
 9263W        W25737  11.518   0.887  13.821 -0.2330 -0.1641 -0.2265
 9264W        W25738   2.762  16.321  12.393 -0.1675  0.0900 -0.0062
 9265W        W25739   1.459   7.190   1.994 -0.3424  0.2005 -0.1510
 9266W        W25740  14.479   4.166   3.418 -0.0136 -0.0564  0.1414
 9267W        W25741   2.450  12.133   5.794  0.0812 -0.0811 -0.1650
 9268W        W25742  16.221   7.962   0.852  0.3520  0.0592  0.0683
 9269W        W25743  13.809  16.643  11.546 -0.3332  0.1579  0.2221
 9270W        W25744  10.609   7.959   1.623  0.1490 -0.4051 -0.1800
 9271W        W25745   6.960  16.046  11.855  0.1701  0.3035  0.0696
 9272W        W25746   0.271   0.644  12.527 -0.2136 -0.2928  0.2083
 9273W        W25747   2.680   9.162  15.599  0.0943 -0.2005  0.0483
 9274W        W25748   9.682   2.717  16.390  0.1393 -0.3873  0.0240
 9275W        W25749  13.767  13.142  11.697 -0.2921 -0.3634  0.1392
 9276W        W25750   5.807  14.593   5.560  0.0062  0.0981  0.0657
 9277W        W25751  16.362   4.659   4.248  0.0194 -0.4358 -0.0421
 9278W        W25752  11.914   1.752   4.967  0.1211  0.2904  0.0614
 9279W        W25753   8.455   1.748   3.645  0.0322 -0.0482 -0.4553
 9280W        W25754   3.090   9.963  14.798 -0.1543  0.2650  0.1222
 9281W        W25755   3.980  11.230  10.754 -0.0440  0.0302  0.2259
 9282W        W25756   7.337  15.997  13.154  0.2558  0.1770 -0.1325
 9283W        W25757  13.583  14.550  16.307 -0.3698 -0.0277  0.1823
 9284W        W25758   2.803  15.270   3.032  0.0517  0.0248 -0.0038
 9285W        W25759   4.055  10.946   2.640  0.0660  0.0086  0.1517
 9286W        W25760   7.735  13.148   5.111  0.1315 -0.1453  0.0731
 9287W        W25761   2.242  12.305   2.543  0.3505  0.0106 -0.0008
 9288W        W25762   9.271   9.999   2.795  0.0486  0.1474  0.1104
 9289W        W25763  13.571  15.681  16.728 -0.2088  0.0150  0.0430
 9290W        W25764  16.732   1.710  16.653 -0.1689 -0.1075 -0.0887
 9291W        W25765  13.387   5.291  15.896  0.1839  0.1902 -0.2083
 9292W        W25766  15.456  12.405   4.125  0.0568 -0.2063  0.0796
 9293W        W25767  15.722  17.054  13.178 -0.2640  0.0076  0.0764
 9294W        W25768  10.767   4.248  13.784  0.0037  0.2245 -0.0372
 9295W        W25769   3.583   6.270  14.325  0.0545  0.0863 -0.1660
 9296W        W25770  14.971   8.745  13.082  0.1458  0.2199  0.1507
 9297W        W25771   0.779   2.375  14.232  0.3313 -0.0916  0.0217
 9298W        W25772  15.013   9.652   4.576 -0.0123  0.0900  0.2986
 9299W        W25773   7.494  15.585  16.663  0.0288  0.0313  0.0589
 9300W        W25774  16.743  11.438  13.527  0.0793  0.2875 -0.1554
 9301W        W25775   0.060   5.180  15.241  0.0034  0.0664  0.0685
 9302W        W25776   6.806   6.447  12.901 -0.3609 -0.2225 -0.1850
 9303W        W25777  10.803  12.816   5.245 -0.1721 -0.1822  0.0207
 9304W        W25778  17.782  16.057  14.464 -0.4527  0.1078 -0.0748
 9305W        W25779   4.547   8.121  12.862 -0.0904  0.0213  0.0003
 9306W        W25780   9.441   1.275  14.389  0.1708  0.0704 -0.0185
 9307W        W25781  10.546  11.536   5.671 -0.0680  0.0472 -0.0386
 9308W        W25782  15.940   0.308   4.607 -0.1682 -0.0803 -0.0327
 9309W        W25783   0.255   2.844   3.785  0.0055  0.3972 -0.2518
 9310W        W25784  11.743   9.667   0.951  0.1029  0.0140  0.0972
 9311W        W25785   6.484   0.611   0.917  0.0218 -0.1692  0.0495
 9312W        W25786  15.035   0.919   3.846 -0.0229 -0.1433  0.0888
 9313W        W25787   8.832   7.692  14.780 -0.0277 -0.0513 -0.2154
 9314W        W25788  14.828  13.703  13.344  0.1798 -0.2230 -0.2004
 9315W        W25789  15.990   8.408  16.442  0.2558 -0.0040  0.2613
 9316W        W25790   4.624   1.305  15.589  0.0624 -0.2494 -0.0761
 9317W        W25791  17.134  10.897   3.807 -0.0277 -0.0662  0.1013
 9318W        W25792   4.885  10.024   5.276  0.1956 -0.3747 -0.0834
 9319W        W25793  16.255   5.654  15.661 -0.3603  0.0154  0.0778
 9320W        W25794  10.375   5.988   3.476 -0.1575 -0.0888  0.1728
 9321W        W25795   2.127   4.101   1.582  0.3357 -0.0865 -0.2313
 9322W        W25796   4.667   3.181   5.792  0.5130 -0.1534 -0.0527
 9323W        W25797   9.697   5.265  16.912  0.2908 -0.1517 -0.1429
 9324W        W25798  16.489   6.768  14.569  0.0888 -0.1739  0.0742
 9325W        W25799  14.523   0.329   2.186 -0.0870 -0.3004 -0.0170
 9326W        W25800  13.513   9.180   0.868 -0.0781 -0.2829  0.1414
 9327W        W25801  13.746  14.839   0.208 -0.4383 -0.2373  0.0329
 9328W        W25802   7.795   5.559  12.531 -0.1192 -0.1270  0.2679
 9329W        W25803   6.514   0.497  13.364 -0.1577  0.2677 -0.0678
 9330W        W25804  12.501   7.366   5.456 -0.2605 -0.1884 -0.5111
 9331W        W25805  12.144   0.020  11.854  0.0742 -0.1895  0.0735
 9332W        W25806   5.117  15.342   4.673 -0.0040  0.0301  0.1858
 9333W        W25807   5.423   0.220   5.586 -0.1587 -0.1991  0.2353
 9334W        W25808  12.989   8.569   0.944  0.2408 -0.0289 -0.1222
 9335W        W25809  16.958   2.649   1.811 -0.2375  0.0000 -0.0167
 9336W        W25810   1.246   6.696  13.990 -0.0834 -0.1705  0.1193
 9337W        W25811   6.053   8.101  14.901 -0.0987  0.1351 -0.2767
 9338W        W25812  16.153   6.209   5.937 -0.2711  0.0677  0.2710
 9339W        W25813  11.493   0.505   3.201  0.0991 -0.0875  0.1207
 9340W        W25814  17.515  16.008  13.343  0.2894 -0.2882 -0.1968
 9341W        W25815   9.548   0.448  15.198  0.0078 -0.0408  0.1092
 9342W        W25816  15.036   2.625  13.922  0.0643  0.0904  0.2578
 9343W        W25817   4.480   0.370   3.471  0.1006  0.0056  0.1030
 9344W        W25818  13.826  11.875   3.106  0.1453  0.1799  0.1742
 9345W        W25819  11.219  11.532   4.474 -0.1473  0.2289  0.1285
 9346W        W25820   9.962  12.715   0.492 -0.0974  0.0128 -0.1596
 9347W        W25821   7.796  11.052  13.438  0.1080  0.0601  0.0976
 9348W        W25822  11.741   1.951  15.010 -0.0382  0.1505  0.3296
 9349W        W25823   6.818   3.364   2.728  0.1341 -0.4517 -0.0348
 9350W        W25824  15.426   6.257   3.039 -0.0895  0.2266  0.1948
 9351W        W25825   0.317   1.435   3.755 -0.1454 -0.1079 -0.1128
 9352W        W25826  12.551  13.878   1.485  0.3607  0.1007 -0.0493
 9353W        W25827   6.352   1.023  16.339 -0.1703  0.2251 -0.1364
 9354W        W25828  13.099  12.778   0.682  0.1458  0.1546  0.0253
 9355W        W25829   6.096   4.419   1.877  0.0085  0.0442 -0.2110
 9356W        W25830   4.328   3.808  13.457  0.1067 -0.1591 -0.0075
 9357W        W25831  15.292   6.415   0.237  0.2167  0.0429 -0.2580
 9358W        W25832  15.451   2.517   4.440 -0.2688 -0.0332 -0.0007
 9359W        W25833   9.699   7.804   3.901  0.4123  0.0383 -0.1835
 9360W        W25834   7.953   5.796   3.552  0.0492  0.2725 -0.1349
 9361W        W25835   7.794  15.559  13.968  0.1231  0.0577  0.4570
 9362W        W25836   3.203  11.628   2.172  0.2127 -0.0406 -0.2849
 9363W        W25837  12.029   0.053  13.580 -0.0809  0.0967 -0.1332
 9364W        W25838  17.482  16.813  16.872 -0.0977  0.0092  0.0794
 9365W        W25839  11.696  11.691   0.262  0.1056 -0.0397  0.0448
 9366W        W25840  12.264  15.343   2.904  0.1824 -0.0642  0.1617
 9367W        W25841   2.219   2.597  13.903 -0.1749  0.0462 -0.0003
 9368W        W25842   3.314   3.648  13.581  0.2203  0.1261 -0.3048
 9369W        W25843  12.428   0.313  16.424  0.3861  0.2377  0.3041
 9370W        W25844   6.475  17.669   3.358 -0.2864 -0.0046  0.2735
 9371W        W25845  14.067   9.789   0.438  0.1118  0.0052 -0.2562
 9372W        W25846  15.320   7.355   4.797  0.1337  0.1955  0.2193
 9373W        W25847  15.904   5.362   2.876  0.0516 -0.2864 -0.1809
 9374W        W25848  16.998   5.881   1.622  0.1307 -0.1526 -0.0408
 9375W        W25849   4.167  16.931   0.324 -0.1017  0.1959  0.0060
 9376W        W25850  12.384   1.687   0.882  0.1220 -0.0632  0.1992
 9377W        W25851  14.582  12.036  14.300  0.2358  0.0541 -0.2774
 9378W        W25852   4.961  15.156  14.466  0.2800  0.2223  0.3561
 9379W        W25853  14.147   7.346  14.960 -0.3269 -0.0248  0.1958
 9380W        W25854   6.873   1.894   5.604 -0.1459  0.0111 -0.1656
 9381W        W25855  11.188  15.860  12.609  0.0186  0.1244  0.3789
 9382W        W25856   3.170   2.165  14.379 -0.2581 -0.2423 -0.4242
 9383W        W25857  10.311  17.104   0.629  0.0917  0.1522 -0.2226
 9384W        W25858   3.386   2.342  12.919  0.1794 -0.0468 -0.0141
 9385W        W25859   6.898   1.192   3.898  0.4069  0.0254  0.4303
 9386W        W25860   8.973   1.812   5.352  0.0852  0.0041 -0.0386
 9387W        W25861   5.471   4.401  15.268 -0.1780 -0.1521  0.3460
 9388W        W25862  15.080   2.091   5.703  0.0129  0.0627  0.1152
 9389W        W25863  15.254   7.169   2.250 -0.4630  0.2736 -0.0210
 9390W        W25864  11.221   6.659   4.646 -0.3436 -0.0226  0.1312
 9391W        W25865  10.238   1.175   0.518  0.2859 -0.0150  0.2785
 9392W        W25866  17.376   4.726  13.400 -0.0525  0.0091  0.4232
 9393W        W25867   7.110  14.004  14.196 -0.0188  0.0073 -0.1128
 9394W        W25868  16.794   7.245  14.829  0.0180 -0.3000  0.0278
 9395W        W25869  12.836  12.373   4.133  0.1452  0.0300  0.1035
 9396W        W25870   7.655   7.427   5.138 -0.0359  0.3010 -0.0708
 9397W        W25871   0.933  10.411   3.306 -0.1927 -0.1177 -0.0796
 9398W        W25872  16.797   3.398  16.007  0.0525 -0.1215  0.1436
 9399W        W25873  12.495  15.608  13.453  0.3531  0.0374  0.2224
 9400W        W25874   2.524   9.327   1.153 -0.0063  0.0649 -0.0005
 9401W        W25875  13.083   9.070   1.113 -0.0910 -0.0350 -0.2041
 9402W        W25876  16.545   3.526  15.536 -0.1351 -0.1368 -0.1338
 9403W        W25877  12.947  14.683  15.480  0.2031 -0.1604 -0.1824
 9404W        W25878  14.713   0.434  16.569 -0.0949 -0.1110  0.0565
 9405W        W25879  17.457   0.217  13.890 -0.2390 -0.1551  0.0207
 9406W        W25880  11.796   1.745  15.511 -0.1305 -0.2794 -0.0460
 9407W        W25881   2.389  16.823   0.000  0.2671  0.1090  0.5082
 9408W        W25882  12.522   9.553  13.889  0.1046  0.0151  0.3559
 9409W        W25883  10.215  13.060  15.406 -0.1342  0.1746  0.0878
 9410W        W25884   5.255  10.457   6.077 -0.2937 -0.0082  0.0517
 9411W        W25885  17.287   7.147  16.011 -0.0214 -0.0032 -0.3778
 9412W        W25886  15.993   5.342   5.870  0.0104  0.0575 -0.1694
 9413W        W25887  12.599   2.818   1.628  0.2855 -0.1620 -0.1104
 9414W        W25888  17.817   1.984   5.296 -0.2350 -0.2348 -0.2617
 9415W        W25889  17.663  15.323   4.249  0.0464 -0.1444 -0.0443
 9416W        W25890   9.056   2.640  11.951 -0.2467 -0.0065 -0.0195
 9417W        W25891   7.107  13.657   2.759 -0.1413 -0.1507  0.0908
 9418W        W25892   2.235  17.492   5.779 -0.0357 -0.0492  0.1313
 9419W        W25893   5.729   2.645  15.389 -0.3175 -0.1880 -0.0845
 9420W        W25894   7.479   8.216   4.014 -0.1367  0.2028 -0.1153
 9421W        W25895   9.270   9.470  15.835 -0.0104  0.0999 -0.0270
 9422W        W25896   1.054   1.015   4.861  0.0006  0.2829 -0.1206
 9423W        W25897  11.734   4.775   2.937 -0.1767  0.0414  0.1274
 9424W        W25898   3.835   7.278  13.877  0.6032 -0.0265 -0.3653
 9425W        W25899  15.027  14.350  12.677  0.1709 -0.0449 -0.0267
 9426W        W25900  10.996   6.697   1.315  0.2791 -0.0569  0.0361
 9427W        W25901   6.262   8.194   2.227  0.1079  0.2386  0.4114
 9428W        W25902   4.027   9.538   4.013 -0.0510  0.0639 -0.1895
 9429W        W25903   1.136  11.477   0.298  0.0561  0.1612  0.2735
 9430W        W25904   1.063   8.497   1.709 -0.0903 -0.0143 -0.2315
 9431W        W25905  11.434  14.982  11.314  0.3291  0.1434  0.1693
 9432W        W25906  14.905   8.527   6.212  0.0677  0.1331 -0.2766
 9433W        W25907   7.949  15.429  15.850 -0.3016  0.2775 -0.0750
 9434W        W25908   4.393   2.710   4.877 -0.2210 -0.1241  0.0151
 9435W        W25909  16.501  15.620  14.625  0.1821 -0.1246 -0.3881
 9436W        W25910  14.725  10.258  12.422  0.1411 -0.2767  0.3251
 9437W        W25911   7.806   1.360   1.654  0.1541 -0.2895  0.1337
 9438W        W25912  10.544  15.680   2.132  0.0307  0.0850  0.0793
 9439W        W25913   6.654  17.654  15.638  0.1968 -0.0463  0.0593
 9440W        W25914   2.573   4.103   0.297  0.1103  0.2708  0.0131
 9441W        W25915  14.028   9.367  15.060  0.0706 -0.0935  0.1385
 9442W        W25916   0.602  17.286   5.285  0.0713 -0.1504  0.1225
 9443W        W25917  16.930  12.233  12.963 -0.2973 -0.0254  0.2237
 9444W        W25918   5.066   2.149  16.562  0.0185 -0.2226 -0.1644
 9445W        W25919  16.359  17.800  16.434  0.1986 -0.0210  0.1870
 9446W        W25920  17.327   1.807   0.710  0.1132 -0.1875  0.1255
 9447W        W25921  16.471   8.885  12.068  0.0967  0.0273  0.2547
 9448W        W25922  17.320   8.014   3.276 -0.1961 -0.0185 -0.1586
 9449W        W25923  12.031   9.838   0.580 -0.0852  0.1221  0.0344
 9450W        W25924   4.452   8.100   4.608 -0.0149  0.1564  0.1359
 9451W        W25925   2.216   9.233   4.739  0.1011  0.1871 -0.2559
 9452W        W25926  14.518  17.450   6.601  0.2613  0.3039 -0.2142
 9453W        W25927   2.777  10.975   4.512 -0.0574  0.0723 -0.2219
 9454W        W25928   7.667   0.571   0.561  0.1193 -0.0745  0.3669
 9455W        W25929   2.316   0.290  13.997 -0.2469 -0.2800 -0.0875
 9456W        W25930  16.888   2.040  13.930  0.2660  0.3612  0.0802
 9457W        W25931   1.162   1.570  16.529  0.1030 -0.0111 -0.2191
 9458W        W25932  15.497   3.951   2.260  0.2217  0.0987  0.2352
 9459W        W25933  14.156  14.952   4.551  0.1651 -0.1430 -0.3200
 9460W        W25934   6.926  14.206  12.215  0.2002 -0.2098 -0.0875
 9461W        W25935   5.333  16.912   2.012 -0.2770  0.0722  0.0414
 9462W        W25936   1.853  10.974  11.349  0.0133 -0.0541 -0.1877
 9463W        W25937   0.277   8.190   3.409 -0.0824 -0.0174 -0.2022
 9464W        W25938   1.611  12.373   4.217 -0.0177 -0.0993  0.0493
 9465W        W25939  12.944   0.814  12.671  0.1980 -0.1184  0.1513
 9466W        W25940   9.440  16.190  13.799 -0.1918  0.2032 -0.1669
 9467W        W25941  13.425   8.604   6.430  0.2992 -0.2786  0.0152
 9468W        W25942   5.134   4.812  15.283 -0.2445  0.3886  0.0484
 9469W        W25943   0.480  11.402  11.677  0.1368 -0.0144 -0.0215
 9470W        W25944  14.861  13.098   5.186 -0.1204 -0.0315 -0.4381
 9471W        W25945   9.738   7.110  12.322 -0.1898 -0.0129  0.0300
 9472W        W25946  12.339   4.689   6.125  0.0867 -0.2389 -0.2151
 9473W        W25947  13.441   1.044   5.742  0.1755 -0.3763  0.4663
 9474W        W25948  13.393   9.859  12.062 -0.0917 -0.0051  0.1972
 9475W        W25949  12.992   2.740   1.266  0.1501 -0.3476  0.3874
 9476W        W25950   4.306   6.008   1.709 -0.0977  0.0368  0.2990
 9477W        W25951  10.834   5.486   3.332 -0.0134 -0.3171 -0.2002
 9478W        W25952  11.841   7.038   0.194  0.0270  0.2024  0.0076
 9479W        W25953  15.205  12.549  14.079  0.0664  0.1979  0.4786
 9480W        W25954   0.041  17.775   4.112  0.3647 -0.1262  0.0226
 9481W        W25955   9.756   6.129  12.298 -0.1149 -0.1637  0.4357
 9482W        W25956  14.605   5.224  16.364 -0.0468  0.0536 -0.1219
 9483W        W25957   8.280   4.720   4.614 -0.1668 -0.1015  0.0002
 9484W        W25958  13.364  16.708   5.729  0.0610  0.1747  0.0809
 9485W        W25959   0.567   5.429  15.315  0.0836  0.0123 -0.1148
 9486W        W25960   4.706   1.727  13.816 -0.0203 -0.1707 -0.0464
 9487W        W25961   7.880   2.378  11.034  0.1431  0.0225 -0.0885
 9488W        W25962  16.962   6.241   1.262  0.0729 -0.0314 -0.2772
 9489W        W25963   7.510  11.969  12.655 -0.1072 -0.0487  0.0090
 9490W        W25964  11.734  17.470  11.792  0.1846  0.3902  0.2421
 9491W        W25965  16.822  12.621   4.738 -0.1385  0.1625  0.1796
 9492W        W25966   1.078   4.204   4.131 -0.2808 -0.1552 -0.0567
 9493W        W25967   2.699  15.851  15.811 -0.0839  0.4027 -0.0812
 9494W        W25968   4.547   3.861  14.694 -0.3263  0.1038  0.0728
 9495W        W25969   4.072  12.485   0.285  0.1532 -0.0852  0.1032
 9496W        W25970  13.939  12.252  12.142  0.0355  0.0398  0.1584
 9497W        W25971   2.260  17.781  15.466  0.0214  0.1683  0.1112
 9498W        W25972   5.214   3.897   0.179  0.1333  0.1026  0.2772
 9499W        W25973  13.268   0.072   2.772 -0.1079 -0.4015  0.0330
 9500W        W25974   0.917  15.175  13.982  0.1707 -0.1921  0.0666
 9501W        W25975   4.564   6.931  13.421  0.1322  0.3482 -0.2389
 9502W        W25976  16.384   4.177  12.036  0.1363 -0.1658 -0.0570
 9503W        W25977   2.861   3.809   3.146 -0.0198 -0.2310 -0.1523
 9504W        W25978   7.769  11.395  16.054  0.1810  0.3057  0.2106
 9505W        W25979   6.490  13.082  16.180 -0.1704  0.0007  0.1192
 9506W        W25980   7.306  15.881  14.933 -0.0903 -0.1758 -0.0625
 9507W        W25981   1.091  12.525  14.950 -0.2095  0.0226 -0.1272
 9508W        W25982   5.753   9.210   1.783 -0.3599  0.1914 -0.1533
 9509W        W25983   8.170  10.078   0.685  0.0804  0.1342 -0.0569
 9510W        W25984  10.800   3.984  16.669  0.1823  0.2944 -0.2177
 9511W        W25985   0.031   5.593   0.314 -0.1975 -0.0332 -0.1035
 9512W        W25986   1.936   8.406   0.257 -0.4567 -0.4562 -0.2560
 9513W        W25987   9.512   4.067   1.102 -0.0494 -0.1360 -0.0001
 9514W        W25988   2.529   9.033  12.199 -0.1269  0.4322 -0.1321
 9515W        W25989   0.682   2.686   4.699 -0.0585  0.1783 -0.3028
 9516W        W25990  15.466   3.403   0.817 -0.2711  0.0110  0.3046
 9517W        W25991  16.689  10.561   2.343  0.0411 -0.0381 -0.0596
 9518W        W25992   7.354   7.022   1.124 -0.0225 -0.3149 -0.0789
 9519W        W25993   4.516  15.713   1.494 -0.1966  0.1311 -0.0763
 9520W        W25994   6.054  16.840   0.545 -0.0005  0.2757 -0.0236
 9521W        W25995  15.609   5.710  16.423 -0.0267 -0.2837  0.3126
 9522W        W25996  13.696  14.853  12.549  0.1957 -0.2735 -0.1589
 9523W        W25997  10.526   0.949   5.317 -0.0523  0.0795  0.0796
 9524W        W25998  12.939  10.849  15.550  0.0354 -0.1688 -0.0490
 9525W        W25999   9.216  12.804  11.343 -0.0680 -0.1668  0.1029
 9526W        W26000   4.801   0.936   4.287  0.0236 -0.0718  0.2155
 9527W        W26001  17.714  12.141   0.645 -0.1933  0.1634  0.0097
 9528W        W26002  14.455   5.717   3.761  0.0892  0.3778  0.0845
 9529W        W26003   6.176   6.985   4.060 -0.2023 -0.0475 -0.0760
 9530W        W26004   1.566   2.445  12.292  0.2800  0.3980  0.0021
 9531W        W26005  11.814   2.329  11.774  0.1064 -0.0401  0.1795
 9532W        W26006  11.290   0.462  12.155  0.1205 -0.0669  0.0702
 9533W        W26007   6.251  15.313   0.965 -0.0382 -0.5361  0.1569
 9534W        W26008  13.956  17.648  11.933  0.1762  0.1394 -0.0718
 9535W        W26009   1.522  14.402  13.804  0.0517  0.1052 -0.1177
 9536W        W26010   4.189  13.932  15.807 -0.3422 -0.1812  0.0562
 9537W        W26011  15.816  11.262   0.237 -0.2111 -0.0990  0.1015
 9538W        W26012   6.340   6.373  12.072  0.0564  0.1835 -0.0062
 9539W        W26013  17.278   4.071   2.115 -0.3577 -0.0343 -0.0114
 9540W        W26014  13.307  15.796   5.422 -0.0656  0.2647  0.1814
 9541W        W26015  13.914   5.305   2.190 -0.0951  0.3252 -0.2011
 9542W        W26016   4.471  13.528   1.001 -0.0340 -0.0622 -0.0218
 9543W        W26017   4.535  13.876   3.494  0.2307  0.1182 -0.3251
 9544W        W26018  13.745   5.214  14.928  0.0288  0.0080 -0.0281
 9545W        W26019   6.952   8.124   0.566  0.0623  0.0944 -0.0388
 9546W        W26020   3.256   7.624   4.855 -0.1163 -0.0819 -0.1124
 9547W        W26021   6.515  17.412  12.924  0.0015 -0.1247 -0.0421
 9548W        W26022   6.638  13.246  14.426  0.0370  0.2964  0.4410
 9549W        W26023   1.938   7.126   2.833 -0.1676  0.1547  0.1414
 9550W        W26024  16.970   7.682   1.230 -0.1594  0.0340 -0.0344
 9551W        W26025  15.958   9.268   2.796  0.2611 -0.0561  0.1210
 9552W        W26026  12.521   7.366  14.181 -0.1622  0.3410 -0.1356
 9553W        W26027   9.601   6.270   3.500 -0.1627  0.2048 -0.4543
 9554W        W26028   3.367   5.620   4.946 -0.3823 -0.0433 -0.0064
 9555W        W26029   0.454   6.957  14.556 -0.0165  0.1580 -0.2249
 9556W        W26030  14.343  15.361  12.444  0.1119  0.2839  0.0840
 9557W        W26031  12.185   6.748   1.923  0.0554  0.2451 -0.0933
 9558W        W26032  11.716  12.084  14.827  0.1752  0.1104 -0.0696
 9559W        W26033  13.387   2.265   5.146  0.0489 -0.4154 -0.2491
 9560W        W26034  13.812   9.253   3.538 -0.4455 -0.2719  0.1944
 9561W        W26035   2.461  17.072   0.447 -0.0428  0.2029 -0.2367
 9562W        W26036   7.482   8.046   3.186  0.2284 -0.1587  0.0715
 9563W        W26037   7.562   0.961  14.202 -0.0635  0.1685 -0.0170
 9564W        W26038   9.772   0.830   4.527  0.2287  0.1281  0.0309
 9565W        W26039  13.262  16.820  11.457 -0.0242  0.0285  0.3195
 9566W        W26040  13.217   7.894  15.405 -0.0536 -0.4251  0.0922
 9567W        W26041  12.858  14.910   5.123 -0.0657 -0.2004 -0.0159
 9568W        W26042  17.034  17.592   3.059  0.2163  0.0760 -0.0236
 9569W        W26043   2.870   7.888  13.369  0.1468 -0.1217  0.0987
 9570W        W26044   1.942   6.691  16.200  0.2764 -0.1886 -0.2404
 9571W        W26045   0.897   3.603  12.741 -0.0288 -0.2810 -0.0628
 9572W        W26046   6.078   3.210   1.229 -0.0029 -0.3212 -0.0031
 9573W        W26047  11.997   8.537  12.818 -0.0119  0.0842 -0.0261
 9574W        W26048   0.790   8.894  15.475 -0.0254 -0.0249  0.0653
 9575W        W26049   8.515  11.441  15.363  0.1091 -0.1925  0.1685
 9576W        W26050   6.524  10.829   0.543 -0.1019  0.1308  0.3939
 9577W        W26051  14.240  13.357  14.007  0.0768 -0.2860 -0.4531
 9578W        W26052  10.189   8.573  11.243 -0.1206 -0.0656  0.0179
 9579W        W26053   5.758   6.370  14.685 -0.1520  0.1231  0.0425
 9580W        W26054   7.222  13.510  11.575 -0.0290 -0.0133  0.2148
 9581W        W26055   9.586  17.423   0.751  0.0279 -0.0258 -0.0683
 9582W        W26056   5.725   6.250  15.570 -0.0300 -0.0926  0.4454
 9583W        W26057   1.733  17.417   1.685 -0.1107  0.0541  0.1888
 9584W        W26058   8.913   6.362  16.117 -0.0754 -0.1001 -0.1173
 9585W        W26059  15.323  10.083   0.899 -0.0925 -0.1928  0.1187
 9586W        W26060  15.559  13.125   3.937  0.1298 -0.0397 -0.0030
 9587W        W26061   2.334  15.849   0.811  0.0126  0.0213 -0.2058
 9588W        W26062  13.962  14.179   3.952  0.3908  0.0141 -0.0389
 9589W        W26063   8.466   6.406   2.575 -0.1426  0.2389  0.1986
 9590W        W26064   0.198   0.315   3.319 -0.0251 -0.1748  0.0974
 9591W        W26065   2.325   2.810   0.825  0.0634 -0.0107  0.0388
 9592W        W26066  14.806  15.187  15.608  0.0178  0.2124 -0.0311
 9593W        W26067   1.241   2.390   5.367  0.3600 -0.1645 -0.1156
 9594W        W26068   3.130   5.659  16.176 -0.1397  0.1403 -0.0950
 9595W        W26069   5.019   4.325  15.746  0.0178  0.1681  0.4740
 9596W        W26070  10.368  14.753  11.701  0.0928  0.1637 -0.2101
 9597W        W26071  13.687  13.435   1.649  0.2023 -0.0966  0.0403
 9598W        W26072  14.270  13.182  14.508  0.0801  0.1315  0.1233
 9599W        W26073   4.816  10.890  13.991  0.2345 -0.0064  0.1536
 9600W        W26074   1.478   4.722  16.059  0.2450 -0.1814 -0.0217
 9601W        W26075  13.200   5.536  16.365 -0.0792 -0.0395 -0.1223
 9602W        W26076   1.855  10.262  11.912 -0.1393  0.1912  0.2542
 9603W        W26077  16.365  10.948   2.765 -0.0537  0.0312 -0.0210
 9604W        W26078  14.508  10.193  14.787 -0.1037  0.0822 -0.0235
 9605W        W26079   4.064   8.154  12.767  0.2681  0.0793  0.1655
 9606W        W26080  11.571   6.398  13.527 -0.0005 -0.0060 -0.0368
 9607W        W26081   6.228   5.414  16.271 -0.1548 -0.1241  0.2082
 9608W        W26082  15.879  16.693   1.209  0.0962 -0.0766 -0.0448
 9609W        W26083   1.217  16.772   2.992  0.0688 -0.0290  0.0505
 9610W        W26084   6.741   8.094  14.996  0.0206 -0.0314  0.2389
 9611W        W26085  13.647  16.982   3.762  0.1009  0.1138  0.2315
 9612W        W26086  12.147  13.458   5.898 -0.1239 -0.1873 -0.1717
 9613W        W26087   3.867   7.176   0.191  0.1487 -0.1667 -0.3877
 9614W        W26088   3.938   8.662   5.142  0.3784  0.0353 -0.1051
 9615W        W26089   1.746   7.524  14.672  0.2510  0.2732  0.0764
 9616W        W26090  12.873   1.974  15.112  0.0050  0.0012 -0.0886
 9617W        W26091   3.236   3.228  15.123 -0.1530 -0.0539 -0.2074
 9618W        W26092   3.846  15.993   2.370 -0.2590  0.1118 -0.2071
 9619W        W26093  14.670   6.991   3.528 -0.2368  0.4475 -0.1257
 9620W        W26094  17.309  14.826   1.989 -0.0572 -0.4124 -0.1966
 9621W        W26095  14.259   8.074  14.493 -0.2658 -0.1991  0.0838
 9622W        W26096   4.609  16.577  16.248 -0.0667 -0.0068  0.0915
 9623W        W26097  10.127   0.780   0.198  0.2026 -0.0583 -0.0229
 9624W        W26098   8.898   3.254  15.378 -0.1830  0.0641 -0.0923
 9625W        W26099  10.169   7.398  15.693 -0.2743  0.0267  0.3130
 9626W        W26100   6.313   7.947  13.864 -0.1210  0.0154  0.0664
 9627W        W26101   6.180  10.578   5.149 -0.1800  0.0990 -0.1957
 9628W        W26102  12.382  12.739  11.776 -0.0160 -0.0599  0.3155
 9629W        W26103   8.976   9.112   3.897 -0.1340  0.2662 -0.1254
 9630W        W26104   9.325   2.195  14.979  0.1075 -0.2558 -0.1632
 9631W        W26105   3.440  11.438  15.774 -0.0676 -0.0047 -0.0145
 9632W        W26106   4.204   2.014  16.577  0.2747  0.1717  0.3301
 9633W        W26107  11.231   3.405   1.546 -0.3528  0.0129  0.0918
 9634W        W26108   7.518  14.623   2.077  0.0206  0.0784 -0.2938
 9635W        W26109   2.232  15.143   3.359  0.1418 -0.0267 -0.2524
 9636W        W26110  15.080  16.213  15.004 -0.1165  0.1388 -0.0483
 9637W        W26111  10.166  15.451  11.510 -0.1578  0.2298  0.1253
 9638W        W26112   3.403  10.958   2.992 -0.0198 -0.1754  0.3473
 9639W        W26113  13.972   8.690  12.876  0.0014  0.0369 -0.2061
 9640W        W26114   9.490  17.769  15.122 -0.1824  0.0896 -0.0733
 9641W        W26115   7.931   7.770   1.037  0.3715 -0.3279  0.0422
 9642W        W26116  16.469  15.802   0.587  0.1083  0.0304 -0.0082
 9643W        W26117   3.101  16.104  16.838 -0.0051  0.1108  0.1337
 9644W        W26118   0.806   6.520  11.746  0.0660 -0.1184  0.0670
 9645W        W26119   2.260   4.777   4.598  0.0065 -0.1623 -0.2177
 9646W        W26120  15.169  12.219  16.738 -0.0112  0.0735  0.0835
 9647W        W26121   2.888   1.380   3.193 -0.0912 -0.1449  0.1602
 9648W        W26122   4.776   0.824  15.397  0.0882 -0.3780  0.2334
 9649W        W26123  10.490   6.856   3.198 -0.1774 -0.2319  0.1208
 9650W        W26124  14.934  12.839  12.966 -0.2068  0.3795  0.1575
 9651W        W26125   4.685  16.173   2.370 -0.1317 -0.0162 -0.2261
 9652W        W26126  13.395   4.789   4.619 -0.2260  0.0651 -0.0856
 9653W        W26127   5.390   9.402  16.080  0.1463 -0.0229  0.0665
 9654W        W26128   0.059  15.625   1.086  0.1097  0.3102 -0.1657
 9655W        W26129   2.293   4.873  12.610  0.0350 -0.1196  0.1806
 9656W        W26130  14.286  17.427   1.366  0.0781 -0.1427 -0.2814
 9657W        W26131   4.445   6.755  12.279  0.0109 -0.0244 -0.4065
 9658W        W26132   2.454   9.551   0.482 -0.1862  0.1945  0.0423
 9659W        W26133  13.004   7.202   1.008 -0.1182 -0.2223 -0.3340
 9660W        W26134  17.318   4.934   1.502  0.0174 -0.2108 -0.3484
 9661W        W26135   5.052   6.451   4.741 -0.0529 -0.1802  0.2233
 9662W        W26136   0.770   9.169  12.929  0.2834 -0.0127  0.0832
 9663W        W26137   6.032  13.847   0.817 -0.2731 -0.0378 -0.0599
 9664W        W26138  14.173   2.154  14.917 -0.1367  0.3341 -0.0030
 9665W        W26139   8.603  17.767   5.105 -0.1903 -0.0395 -0.1262
 9666W        W26140   4.166   0.949  12.722 -0.0084  0.0754 -0.0650
 9667W        W26141  11.283  16.330  16.228 -0.0694 -0.2182 -0.0135
 9668W        W26142   0.133  13.032   2.729 -0.1449  0.2666  0.1240
 9669W        W26143  17.658   7.569   2.534  0.1157 -0.0683 -0.0228
 9670W        W26144   0.637   1.275  14.712  0.0540 -0.1248 -0.2748
 9671W        W26145  13.123  14.214  11.744  0.0323  0.1349  0.0337
 9672W        W26146  15.517   9.765   0.457  0.1590 -0.0106 -0.0853
 9673W        W26147   1.450  15.949   2.649 -0.2097 -0.0638  0.5714
 9674W        W26148  10.651   4.253   0.543 -0.1273 -0.0914 -0.1309
 9675W        W26149   6.250  16.281  13.749  0.1400  0.2207  0.0521
 9676W        W26150   8.535   7.134   3.044  0.0418  0.2086 -0.1576
 9677W        W26151   1.650  17.717  13.635 -0.0113  0.1560 -0.1280
 9678W        W26152   1.925   0.782  16.034  0.1658 -0.0570 -0.2347
 9679W        W26153   3.300  12.245   3.987  0.0650  0.0036 -0.0046
 9680W        W26154   2.323  10.299  10.028 -0.1847  0.1017  0.0152
 9681W        W26155   8.107   2.504  15.491 -0.1997 -0.5002 -0.1434
 9682W        W26156  11.443   1.455   0.297 -0.1460  0.1560 -0.1122
 9683W        W26157   9.179  15.985   3.742 -0.0904 -0.1931 -0.3649
 9684W        W26158   3.900  12.384  12.866  0.2104 -0.0888  0.0514
 9685W        W26159   4.559  14.142   4.608  0.0531  0.0469  0.3096
 9686W        W26160   6.699   0.572  12.025 -0.0589 -0.0810 -0.1608
 9687W        W26161  16.378   6.500  15.866  0.0937  0.2915  0.1260
 9688W        W26162  17.154   0.063   0.190 -0.0342  0.0553 -0.4060
 9689W        W26163   6.335  16.668   0.120 -0.0608  0.0089  0.2149
 9690W        W26164   4.358   8.493   4.856 -0.0401 -0.1903 -0.0750
 9691W        W26165   2.593   4.364  16.827 -0.4325  0.0089 -0.1209
 9692W        W26166   4.100   1.629   3.347 -0.0665  0.0021 -0.0151
 9693W        W26167   4.235   7.220  13.152 -0.1933 -0.2351 -0.0512
 9694W        W26168  13.786   1.772  16.819 -0.1276 -0.0440 -0.1750
 9695W        W26169   1.220  16.355  13.206  0.0250 -0.3355  0.0089
 9696W        W26170  13.957   8.801  12.161 -0.3332  0.4912  0.3630
 9697W        W26171  16.191   9.503   3.271  0.3417 -0.1403 -0.0555
 9698W        W26172   6.419   5.765   4.536 -0.0057  0.0929  0.3724
 9699W        W26173  13.718   2.046  12.216 -0.1473  0.1360  0.2519
 9700W        W26174  12.450   7.920   4.559 -0.2379  0.0994  0.1898
 9701W        W26175   9.691  11.733  11.927 -0.2229 -0.3616 -0.2160
 9702W        W26176   5.632   7.692   0.682 -0.2204 -0.0506 -0.0453
 9703W        W26177   0.678   2.935   5.845 -0.2001 -0.1135  0.2487
 9704W        W26178   1.288   5.401  13.717  0.3932  0.1087 -0.3830
 9705W        W26179   0.305   2.196  14.112  0.0385 -0.0801  0.3136
 9706W        W26180   1.715   8.879   3.428  0.2128 -0.0856  0.0232
 9707W        W26181   1.369  10.872  14.666  0.1134  0.1315  0.2090
 9708W        W26182   4.214   0.286   2.235  0.0004  0.1096  0.1947
 9709W        W26183   4.214  17.677   1.140  0.0509  0.0367  0.0723
 9710W        W26184  14.714   9.004  12.653  0.0827 -0.0506 -0.1435
 9711W        W26185   3.875   4.184  14.223  0.2619 -0.0211 -0.0737
 9712W        W26186  15.271   7.405   3.031  0.0155  0.2321 -0.4243
 9713W        W26187   9.779   8.769  11.603 -0.2096  0.2173  0.0219
 9714W        W26188   5.851  15.096  15.507 -0.2434 -0.1142  0.1414
 9715W        W26189   0.103   5.904   4.987  0.1458  0.2206 -0.0461
 9716W        W26190   5.650  10.192  16.733 -0.1286 -0.0015 -0.2115
 9717W        W26191  10.025   1.237   1.865 -0.3065  0.2859 -0.0766
 9718W        W26192  14.814   9.049  15.247  0.0170 -0.0408 -0.0316
 9719W        W26193   1.985  13.399  13.220 -0.0023  0.0874  0.3271
 9720W        W26194  12.107   9.708   1.410  0.2656  0.2652 -0.0144
 9721W        W26195   6.780  16.583  13.076  0.0941  0.2819  0.2061
 9722W        W26196   2.111  14.067  12.481  0.1511 -0.1011  0.0786
 9723W        W26197  16.248  16.392   2.118  0.2861  0.2560  0.1856
 9724W        W26198  10.104  16.674  13.718 -0.4061 -0.0076 -0.2710
 9725W        W26199   0.586  15.479  14.171  0.1929 -0.0942 -0.2360
 9726W        W26200  10.619   8.520  11.787  0.3888 -0.0767  0.0787
 9727W        W26201   6.358  17.636   0.238 -0.0678 -0.0873  0.1406
 9728W        W26202   0.013  16.268   1.537 -0.2088 -0.0545  0.0842
 9729W        W26203  17.311   3.175   4.848  0.0884  0.1030 -0.0087
 9730W        W26204   8.540  15.242  14.025  0.0067 -0.0711  0.0754
 9731W        W26205   7.223  14.821   3.737  0.1285 -0.0907  0.1160
 9732W        W26206  12.975   6.855   4.968  0.2414  0.0311  0.0829
 9733W        W26207   7.201  11.090  12.106  0.0459  0.0622  0.0158
 9734W        W26208  14.609   0.215  11.499  0.1902  0.0763 -0.1628
 9735W        W26209   5.888  16.689  15.018  0.0217 -0.1054  0.0305
 9736W        W26210  12.958   9.517   5.780  0.1322 -0.3379 -0.0262
 9737W        W26211   6.651  13.597   5.021 -0.4264  0.1522 -0.0228
 9738W        W26212  17.746   7.140   0.146  0.0313  0.0072 -0.0812
 9739W        W26213  16.185   4.794  13.692  0.0689  0.1199 -0.1593
 9740W        W26214   9.049   4.991  14.653  0.2185  0.0288 -0.0487
 9741W        W26215   1.743   1.598  14.139  0.0456  0.2597  0.2259
 9742W        W26216  11.442   6.365   4.291  0.0671 -0.1390 -0.1563
 9743W        W26217  10.843   9.628   4.633  0.1308 -0.0332 -0.1047
 9744W        W26218   5.484   8.197   1.022  0.1414 -0.0600 -0.1678
 9745W        W26219   2.669   7.008   1.625  0.0852 -0.2383  0.0224
 9746W        W26220  13.586   8.822   4.168  0.0136 -0.1357  0.1442
 9747W        W26221  11.578  13.056  15.051  0.1796  0.1398 -0.1218
 9748W        W26222   1.115   4.056   0.105  0.1915  0.0329  0.0492
 9749W        W26223   5.631   1.869  14.060  0.1768 -0.0107 -0.2002
 9750W        W26224   8.397  12.553   2.627  0.1175 -0.0897 -0.0633
 9751W        W26225  15.594  12.984  15.632  0.2332  0.0954 -0.0217
 9752W        W26226   3.562  13.293   3.127  0.1994  0.0531 -0.0494
 9753W        W26227   9.409   5.986  13.161  0.3585  0.1196  0.0248
 9754W        W26228  13.106  11.286   2.056 -0.1511  0.0439 -0.1006
 9755W        W26229  11.978   5.916   6.453 -0.1867  0.2058 -0.0567
 9756W        W26230  15.528  13.530   3.613 -0.0715 -0.1415 -0.1417
 9757W        W26231   4.414   8.319   3.491 -0.1496 -0.4435  0.1251
 9758W        W26232   3.988  15.431   2.321  0.1506 -0.0855 -0.4867
 9759W        W26233  17.690   7.737  16.510 -0.1219 -0.2643  0.0767
 9760W        W26234  14.793  10.087   4.440  0.3576  0.1021 -0.2125
 9761W        W26235   2.611   6.180  14.304  0.0528  0.0038  0.1431
 9762W        W26236   0.092  16.599   3.636  0.1220  0.2966 -0.0307
 9763W        W26237   8.248   7.851  13.941  0.1645 -0.1371  0.0492
 9764W        W26238  12.832  16.415  13.057 -0.0904  0.1450  0.1804
 9765W        W26239   9.741   9.885   5.194 -0.0149 -0.2484  0.0788
 9766W        W26240   3.263  16.054  13.065 -0.1635 -0.1624  0.1957
 9767W        W26241   5.262  14.172   1.954  0.2202  0.1889 -0.0552
 9768W        W26242  13.862  15.123   1.480 -0.2163 -0.0935  0.0182
 9769W        W26243  11.148  12.114   5.497  0.0210 -0.1241  0.1083
 9770W        W26244  10.374   7.719   2.510 -0.2797 -0.0186  0.0604
 9771W        W26245  10.987   2.298  16.916 -0.0305  0.1318 -0.2239
 9772W        W26246   5.875   4.237   3.050 -0.1258  0.1235 -0.0580
 9773W        W26247  14.125   7.347   4.553  0.2561 -0.0967  0.1928
 9774W        W26248  17.202   8.116  12.268  0.1079  0.0595  0.0536
 9775W        W26249   7.030   6.355   5.861  0.1394  0.0867 -0.1029
 9776W        W26250   0.778  11.562  14.564  0.1370  0.1750 -0.1040
 9777W        W26251  13.447   2.329   3.070 -0.2059  0.0071  0.1878
 9778W        W26252   3.695   0.928   0.742 -0.2395 -0.1533 -0.2682
 9779W        W26253   8.613   5.083  15.447  0.2874  0.2079  0.2935
 9780W        W26254   4.462   3.906   6.196  0.0992  0.0272  0.0251
 9781W        W26255  13.713   3.861   2.892 -0.0637 -0.2228 -0.1305
 9782W        W26256   6.748   7.820  12.088  0.1256 -0.1192 -0.1262
 9783W        W26257  10.136   2.650   5.650 -0.2503  0.1437 -0.1384
 9784W        W26258  12.687  12.691   2.119 -0.0467  0.1260  0.0214
 9785W        W26259  12.342  13.668   4.086  0.1856  0.0759 -0.2178
 9786W        W26260  10.506  11.161  14.696 -0.4646 -0.0176 -0.1273
 9787W        W26261  14.895   1.190   2.291  0.0501  0.0730  0.1631
 9788W        W26262   1.467  12.216  16.490  0.0506 -0.0876 -0.2367
 9789W        W26263   3.244   9.967  13.257  0.1616 -0.2848 -0.2396
 9790W        W26264  17.483   8.515   5.608 -0.1026  0.0911  0.2309
 9791W        W26265   3.627   5.110   0.304  0.1010  0.1728  0.1216
 9792W        W26266   5.667  14.755  12.347 -0.1486 -0.0594  0.1554
 9793W        W26267  16.990   0.251  14.003  0.1653  0.1323  0.1620
 9794W        W26268  16.157  12.266  13.898 -0.0461 -0.2260 -0.0559
 9795W        W26269   5.705  10.248   2.690  0.2578  0.0099  0.0791
 9796W        W26270  15.331  16.515   1.079 -0.0031 -0.2810 -0.1850
 9797W        W26271   4.114   4.608   1.274  0.2899 -0.1698 -0.0923
 9798W        W26272  17.310   1.218  12.319  0.1326  0.1583 -0.1498
 9799W        W26273  10.664   5.012   3.530  0.0189  0.0166  0.1316
 9800W        W26274   8.634  17.420  15.798 -0.0682 -0.1964  0.3691
 9801W        W26275   1.536   4.752   1.503 -0.2039  0.0450 -0.0045
 9802W        W26276   4.700   4.052   3.105  0.1989  0.0920  0.0032
 9803W        W26277  13.399   7.719  13.357  0.0000 -0.2662 -0.0884
 9804W        W26278   1.003   7.855  12.405  0.0271  0.0164  0.1322
 9805W        W26279  15.099   9.478  13.403  0.0041 -0.3446 -0.1810
 9806W        W26280   6.670   7.614   0.519 -0.0779 -0.2162 -0.1664
 9807W        W26281  16.970   7.780   2.968 -0.2765  0.0639 -0.1039
 9808W        W26282  15.460   1.865  14.366 -0.1997  0.2000  0.2599
 9809W        W26283   8.733   4.982   4.751 -0.1647  0.3236  0.0913
 9810W        W26284  14.789  11.105   5.971  0.0853  0.1433  0.0880
 9811W        W26285   3.182   6.261  16.231  0.1761  0.1671 -0.1234
 9812W        W26286  14.577   8.681  14.947 -0.0875  0.1270 -0.4703
 9813W        W26287   9.955  15.183   4.431 -0.4826  0.1681  0.1125
 9814W        W26288   5.807  11.596   3.705 -0.0534  0.3711  0.0628
 9815W        W26289  17.053   5.793  13.888 -0.0855 -0.1426 -0.0268
 9816W        W26290   0.499  15.613   0.774  0.3279 -0.0821  0.3657
 9817W        W26291  15.478   0.162   0.694 -0.0062 -0.0184  0.3432
 9818W        W26292  10.063   4.491  15.592  0.1318  0.1763  0.0883
 9819W        W26293   0.952   5.630   5.205 -0.0364 -0.0046 -0.1683
 9820W        W26294  16.067  17.253   3.007 -0.0564  0.1320 -0.2220
 9821W        W26295   4.569  13.355   3.117 -0.2919 -0.2089  0.2864
 9822W        W26296   0.719  14.380  16.006 -0.0288 -0.0847  0.1783
 9823W        W26297   8.361  13.546   4.830  0.0209 -0.0617 -0.0760
 9824W        W26298   9.843   8.870   3.057 -0.1650 -0.1897 -0.0364
 9825W        W26299   6.498  10.507   4.282  0.0279  0.0317  0.0528
 9826W        W26300  17.495   3.343   3.926  0.1126  0.0172  0.1052
 9827W        W26301  12.815  16.459  15.732 -0.2205 -0.3613  0.0886
 9828W        W26302   1.311   0.949   0.385  0.0633  0.1961 -0.1588
 9829W        W26303   2.872  15.939  13.413 -0.2977  0.1362  0.1770
 9830W        W26304   8.667   3.206  12.870  0.1718 -0.0704 -0.2334
 9831W        W26305   4.514   1.777  11.592  0.0661  0.0152 -0.1205
 9832W        W26306   9.820  15.065  11.354  0.1937 -0.0531 -0.1990
 9833W        W26307   2.415  13.207  12.957  0.1136 -0.2314  0.1004
 9834W        W26308  14.516   9.789  15.070  0.0981 -0.1041  0.1044
 9835W        W26309   0.738   3.567  15.277  0.1497 -0.1956 -0.0545
 9836W        W26310   6.044   5.619   6.238 -0.2296 -0.2379 -0.1576
 9837W        W26311  11.753   4.272   2.064 -0.0887 -0.0735  0.0117
 9838W        W26312   7.255   7.568  14.059  0.1817 -0.0091  0.1826
 9839W        W26313   2.762   8.618  11.462 -0.1472 -0.0795  0.0187
 9840W        W26314  13.071  13.575   4.971  0.0205  0.1351 -0.0506
 9841W        W26315  15.010   0.156   3.462 -0.2318 -0.1992  0.0025
 9842W        W26316  12.061  10.478  16.401 -0.0306  0.1682 -0.0676
 9843W        W26317   9.463  13.451  16.764  0.2352 -0.0650  0.1779
 9844W        W26318   8.121   2.134   2.181  0.1577 -0.3930  0.1942
 9845W        W26319  14.966   2.433   4.650  0.1523  0.0506  0.0552
 9846W        W26320   6.942  16.178   0.035 -0.0880  0.0946  0.2332
 9847W        W26321  15.912  17.607   3.731  0.1107  0.0131 -0.1024
 9848W        W26322   7.183  11.524   2.882  0.0205 -0.0854  0.4497
 9849W        W26323   2.604  11.452   2.677 -0.1355  0.1732 -0.1755
 9850W        W26324   0.849   6.445   3.799  0.0672 -0.0654  0.2921
 9851W        W26325   0.930  17.302  15.290 -0.0466  0.0579 -0.0401
 9852W        W26326  17.767   9.234  15.627  0.1127 -0.0041 -0.0940
 9853W        W26327   4.487   1.705   3.855  0.0224  0.2657  0.0825
 9854W        W26328   5.174   3.447   2.066 -0.0173  0.0315 -0.3680
 9855W        W26329  12.897  15.086  11.603 -0.2833  0.3429 -0.2116
 9856W        W26330  11.405   5.256   5.790  0.3527  0.2307  0.1386
 9857W        W26331   1.128  10.396   2.840 -0.1683 -0.2473 -0.0224
 9858W        W26332  13.869   5.305   5.429 -0.3659 -0.1037 -0.3116
 9859W        W26333  17.822  12.327  12.971  0.2542  0.2140 -0.5186
 9860W        W26334   0.018   5.809  11.873 -0.0657  0.1457 -0.1667
 9861W        W26335   9.666   0.007   1.051  0.0023  0.0972 -0.2440
 9862W        W26336  11.422   1.889   1.235 -0.0651 -0.0968  0.1660
 9863W        W26337   8.597   9.816   0.874 -0.0642 -0.1457  0.1599
 9864W        W26338   5.182   5.140   2.850  0.2342 -0.1737  0.1335
 9865W        W26339   9.728   7.117  11.623 -0.1267 -0.0396 -0.1173
 9866W        W26340   3.550  17.539  14.438 -0.1446 -0.1310 -0.2687
 9867W        W26341   2.548   5.573   0.490  0.1900  0.1015 -0.0596
 9868W        W26342   4.234  10.108  12.863  0.0232  0.1448  0.1806
 9869W        W26343  16.927   0.464  10.847  0.1811 -0.0379 -0.1007
 9870W        W26344   0.082   4.803  12.349  0.1512 -0.0078  0.2729
 9871W        W26345   3.878   9.696  13.719 -0.2767  0.4545 -0.0357
 9872W        W26346   8.401   9.136   4.693  0.1936 -0.1462  0.2051
 9873W        W26347   0.924  14.153   3.525  0.4739  0.0035  0.0738
 9874W        W26348   5.537   8.900  14.525 -0.2258  0.0386 -0.0443
 9875W        W26349   0.664  15.788  14.863 -0.3136  0.0298  0.2825
 9876W        W26350  13.923  13.956   3.429 -0.3266 -0.2653  0.1281
 9877W        W26351   5.896  12.739   1.110 -0.1113 -0.0124  0.0968
 9878W        W26352   6.258  10.123  13.718 -0.2564 -0.1901 -0.0174
 9879W        W26353  15.319  13.568   1.836 -0.2422 -0.0059 -0.0994
 9880W        W26354   1.693  11.912  13.845  0.0038  0.0563 -0.0226
 9881W        W26355  13.974  12.216   2.493 -0.1369  0.0302  0.2253
 9882W        W26356   6.577   5.706  11.539  0.0729 -0.0745 -0.4198
 9883W        W26357   5.358   8.120  12.162  0.0519 -0.0634 -0.1884
 9884W        W26358   3.278  12.172   0.685 -0.1163  0.0336  0.2113
 9885W        W26359   7.516   0.562  13.519 -0.0087  0.0713 -0.1077
 9886W        W26360  10.121  15.945   0.352  0.0812  0.0397 -0.0289
 9887W        W26361  12.759   0.614   2.997  0.1252 -0.1268 -0.1918
 9888W        W26362  14.721  15.012  16.071 -0.1025  0.3018  0.0772
 9889W        W26363   9.094  12.841   1.100 -0.1249 -0.1913 -0.0294
 9890W        W26364   2.187   2.604   0.369  0.2466  0.1985  0.1626
 9891W        W26365   7.027  13.202   6.165  0.0860 -0.4968  0.1179
 9892W        W26366  13.197   4.302   4.474 -0.0318  0.3762  0.0730
 9893W        W26367  16.616   2.256  14.756 -0.1276  0.4059  0.0230
 9894W        W26368   0.001   1.146   0.403  0.2223  0.3157 -0.0372
 9895W        W26369   0.371   6.412   3.294 -0.2033 -0.2471 -0.0288
 9896W        W26370  13.740   8.113   4.849 -0.2694  0.0117 -0.0987
 9897W        W26371  13.548  17.419  12.151  0.3866 -0.1518  0.0376
 9898W        W26372   6.161  12.343   2.639  0.2219  0.2274  0.1784
 9899W        W26373  10.699   3.811  15.839 -0.0840 -0.1172  0.1385
 9900W        W26374  11.477   5.323   4.773  0.1612 -0.1098  0.3009
 9901W        W26375   5.599   4.986  15.306  0.0643 -0.2658  0.1745
 9902W        W26376  10.957   8.992  14.984 -0.2277  0.3522  0.1842
 9903W        W26377   0.046  16.911  13.077  0.3380  0.1596  0.1407
 9904W        W26378   8.236  13.009   3.550  0.0800  0.1044  0.0429
 9905W        W26379  15.717   9.291   0.637 -0.1839  0.0820 -0.0944
 9906W        W26380   4.722   7.642   3.580  0.4313  0.1287  0.0722
 9907W        W26381   6.609  11.724   5.632  0.5155  0.1044  0.1066
 9908W        W26382   7.421   6.815   5.809 -0.0994  0.1628 -0.0299
 9909W        W26383   7.895  16.568   5.898  0.1291 -0.0133  0.0128
 9910W        W26384  15.666  15.988   3.670 -0.1758 -0.0300  0.3207
 9911W        W26385  11.608  17.114   0.926  0.2295 -0.1066  0.0210
 9912W        W26386   4.180  16.223   2.664 -0.1606 -0.3491 -0.3197
 9913W        W26387  16.265  16.772  15.410 -0.1057 -0.0836 -0.1481
 9914W        W26388  17.731  12.123  15.285 -0.4606 -0.3427  0.1391
 9915W        W26389  10.044   5.300   4.851  0.1407  0.1299  0.1306
 9916W        W26390  10.357   0.185   4.311 -0.3038 -0.2048 -0.0837
 9917W        W26391  10.488  12.315   4.458  0.0393  0.0966  0.2422
 9918W        W26392   5.365   7.842   5.569 -0.1290 -0.2247 -0.2281
 9919W        W26393  13.851   1.126  14.342  0.2768 -0.3191 -0.3494
 9920W        W26394  10.460   5.672  14.325  0.0363 -0.2544  0.0388
 9921W        W26395  17.750   5.708   0.786  0.0377 -0.0932 -0.1395
 9922W        W26396  15.743   4.618   1.018  0.0502 -0.1036  0.0334
 9923W        W26397  14.515  10.502  13.219  0.0384  0.0130  0.0361
 9924W        W26398   3.378   4.740   2.920 -0.0135 -0.2375 -0.1962
 9925W        W26399   4.043   9.310  11.159  0.3114 -0.1427  0.1276
 9926W        W26400  16.578   5.866   1.340  0.0279  0.2566  0.1072
 9927W        W26401   5.943   8.280   1.453  0.2100  0.1974 -0.2283
 9928W        W26402   9.179  12.584   5.131  0.3491 -0.2898 -0.0178
 9929W        W26403   7.148   0.527   2.784 -0.0244  0.1214  0.1739
 9930W        W26404   6.810   7.051  15.701  0.0402 -0.0467 -0.1483
 9931W        W26405   9.625   8.526   3.500 -0.1284  0.0846  0.4787
 9932W        W26406  16.714   7.712   1.698 -0.0457 -0.1363  0.0732
 9933W        W26407   6.216   2.468   2.030 -0.0480  0.2618  0.3405
 9934W        W26408  13.073  12.018  16.501  0.0320  0.3528 -0.1015
 9935W        W26409   5.858   9.292  14.455 -0.0079  0.3606 -0.2751
 9936W        W26410  13.499   6.975  12.869  0.1178  0.0538 -0.2095
 9937W        W26411   3.074   9.509   2.285 -0.1019 -0.0091  0.0460
 9938W        W26412   5.669  13.371   0.515  0.1007 -0.3228  0.1829
 9939W        W26413   7.280   4.363   4.705 -0.4153 -0.0208 -0.1323
 9940W        W26414  12.759  13.932  14.428  0.0460  0.1062  0.1423
 9941W        W26415  12.562  11.905  15.743  0.0324  0.0828  0.0573
 9942W        W26416  14.104  16.070  15.052 -0.2648  0.1280 -0.1002
 9943W        W26417  16.224  14.852  15.761 -0.1239 -0.1895 -0.2967
 9944W        W26418   3.701   0.034   2.922  0.0764  0.2525 -0.0094
 9945W        W26419   3.669   2.133  14.239 -0.0965 -0.0662 -0.0913
 9946W        W26420   8.585  10.324   3.328  0.3324 -0.1342  0.3566
 9947W        W26421   3.186   5.629   3.979 -0.1738  0.0871  0.0197
 9948W        W26422   1.471   3.008   1.604  0.2723 -0.0735 -0.0227
 9949W        W26423   3.271  11.773   4.812  0.2355 -0.3681  0.0992
 9950W        W26424   2.532  11.324   0.140 -0.2216  0.0283  0.1668
 9951W        W26425   5.465  11.359   5.273  0.1153 -0.0643 -0.0989
 9952W        W26426  11.039  12.448  15.637 -0.3720  0.1594 -0.0318
 9953W        W26427  13.832  11.887   4.421 -0.3410  0.0704 -0.1312
 9954W        W26428  13.582  16.964   0.191  0.1808  0.1806  0.0510
 9955W        W26429   8.731  14.820   2.252 -0.2555  0.1815 -0.3936
 9956W        W26430   6.288   2.486  13.214  0.0079  0.2460 -0.0699
 9957W        W26431  16.745  10.383  15.247  0.2333 -0.2365 -0.1160
 9958W        W26432   5.727  13.053   3.838 -0.1702  0.1550  0.1894
 9959W        W26433  16.878  12.471   3.983 -0.0557  0.0261 -0.2223
 9960W        W26434   7.474   3.194   0.660 -0.1915  0.0238  0.0255
 9961W        W26435   2.366   7.329  13.037  0.1521  0.0893 -0.0347
 9962W        W26436  10.198   5.305  12.802 -0.0607 -0.0744  0.0669
 9963W        W26437   7.849   3.262   2.713 -0.1723  0.3119  0.0624
 9964W        W26438   5.467  14.608  12.835  0.2494 -0.0690 -0.2043
 9965W        W26439   8.716   4.670   3.784  0.0581 -0.0532 -0.2812
 9966W        W26440  10.688  14.844  13.906 -0.1380 -0.1017  0.1481
 9967W        W26441   1.453  16.645   5.099 -0.1086  0.3526  0.1649
 9968W        W26442  14.241  11.046   4.824 -0.1928  0.1704 -0.1885
 9969W        W26443  12.557   9.835   5.883  0.2555 -0.0353 -0.0944
 9970W        W26444   5.548   7.212  12.608 -0.0652  0.1812 -0.2060
 9971W        W26445   4.143  17.164  16.859 -0.0390 -0.0504  0.0651
 9972W        W26446   9.007   9.736   2.458 -0.0145  0.0663 -0.0233
 9973W        W26447  11.184   7.304  14.534  0.0997 -0.0557  0.0045
 9974W        W26448   3.637   6.308   2.437 -0.1128 -0.2323  0.1067
 9975W        W26449  15.373   5.244  13.929  0.0850 -0.3317 -0.2265
 9976W        W26450   4.306   4.291   5.956 -0.1439  0.0756  0.0677
 9977W        W26451  10.096   1.737   1.963  0.0018  0.1277  0.1739
 9978W        W26452  15.522   6.047  13.553 -0.0615 -0.0603  0.0670
 9979W        W26453  16.760   6.220   3.398 -0.2656  0.2706  0.4071
 9980W        W26454   7.742  16.890   0.581  0.2611 -0.1385 -0.0049
 9981W        W26455   5.085   6.203  15.190 -0.0672 -0.1779 -0.2610
 9982W        W26456   2.442  10.394   3.950 -0.1284  0.1073 -0.0606
 9983W        W26457  15.542   6.566  13.578  0.0408  0.2345 -0.0475
 9984W        W26458   4.651   6.303   3.949 -0.1368 -0.2008 -0.0691
 9985W        W26459  14.826  11.735  16.209 -0.0910  0.0412  0.1125
 9986W        W26460  14.561  11.971  15.150  0.0903 -0.0216  0.1138
 9987W        W26461  12.846  17.428   4.336  0.0564 -0.0738 -0.1048
 9988W        W26462   5.822  16.776   0.104  0.0294 -0.1239  0.1750
 9989W        W26463  10.630  12.980  16.863  0.3078 -0.0761  0.0639
 9990W        W26464  16.866  17.828   4.613  0.0083 -0.4185 -0.2405
 9991W        W26465   7.205  16.683   0.071  0.1542  0.0141 -0.0782
 9992W        W26466   7.430  13.136  15.352 -0.0082  0.0252 -0.3398
 9993W        W26467   5.784   1.298   0.376 -0.0559 -0.1272 -0.2378
 9994W        W26468  13.039  16.974   4.135 -0.1719 -0.0977 -0.1103
 9995W        W26469  15.328   2.441   0.436  0.2724 -0.0814 -0.0705
 9996W        W26470  13.702   7.983   1.835  0.1226 -0.0362  0.1062
 9997W        W26471   9.129  14.808  12.876 -0.0676 -0.0075 -0.1827
 9998W        W26472   7.902  11.825  11.704 -0.2948  0.1009 -0.1206
 9999W        W26473  11.361  14.583  12.471  0.1451 -0.0942 -0.1971
10000W        W26474   9.547   6.482   4.868  0.1036 -0.2382  0.1866
10001W        W26475   5.982   8.945   3.935  0.0692 -0.0960 -0.0429
10002W        W26476  14.246  17.290   4.355 -0.2165  0.0866  0.1487
10003W        W26477  12.029   7.378   3.548 -0.1579  0.0208 -0.2414
10004W        W26478   1.895  17.042   0.131 -0.0983 -0.1385  0.1315
10005W        W26479   8.265   9.069  16.769 -0.2520  0.1384  0.1021
10006W        W26480   3.956  13.177   5.329  0.0671 -0.1686 -0.3677
10007W        W26481  11.878   5.877   3.246 -0.1004  0.0298 -0.1790
10008W        W26482   5.843  14.364  14.318  0.3228  0.1578  0.0675
10009W        W26483   1.869   3.921   5.412  0.0827  0.3182  0.1998
10010W        W26484  11.763  15.829   4.902 -0.1535 -0.0359  0.1455
10011W        W26485   4.952  10.367  11.929 -0.1212 -0.2198 -0.0835
10012W        W26486  12.986  17.589  11.911  0.1293  0.2032 -0.0326
10013W        W26487   6.243   2.294   5.984 -0.2401 -0.0138 -0.2079
10014W        W26488  13.304   2.645   3.550 -0.1559 -0.1979  0.0216
10015W        W26489   6.245   8.321   1.021  0.1820 -0.0982  0.1243
10016W        W26490  17.325  15.050   2.739 -0.2169  0.0394 -0.2359
10017W        W26491  11.536  10.343   2.873  0.1056 -0.1316 -0.0660
10018W        W26492   5.200   3.167  15.941  0.0366 -0.0986  0.0517
10019W        W26493   4.861   2.273   3.038 -0.0091 -0.3572 -0.3654
10020W        W26494   0.065   0.265  12.239 -0.0102 -0.0216  0.0256
10021W        W26495  13.337  16.533   3.277  0.0474  0.2307 -0.0193
10022W        W26496  12.408   0.364   2.764  0.0566  0.0010  0.1152
10023W        W26497  13.026   2.106   3.741  0.2943 -0.1609  0.0378
10024W        W26498  13.559   3.165  13.918 -0.1211  0.3431  0.2176
10025W        W26499   2.347  13.881   4.500 -0.0696 -0.1527  0.1828
10026W        W26500   3.948   4.766   5.205  0.1493 -0.3422  0.2409
10027W        W26501  13.453   7.914   0.788 -0.0587  0.0362 -0.1796
10028W        W26502   5.443   1.620   2.090  0.1638 -0.0152  0.2446
10029W        W26503  15.616   4.035   3.318  0.1587 -0.2741 -0.2864
10030W        W26504   9.185   4.020  14.338  0.1495 -0.0292  0.0136
10031W        W26505  13.180  14.596  14.101  0.0976 -0.2426 -0.0059
10032W        W26506   6.462   5.742  13.689  0.0029 -0.2671  0.0520
10033W        W26507  11.838  16.507   2.854  0.0283  0.0012 -0.1315
10034W        W26508  11.714  11.246   0.471  0.1063  0.2035  0.2637
10035W        W26509   0.499  11.231  15.491  0.1096 -0.0308  0.0176
10036W        W26510  12.314  10.785  16.740  0.2847 -0.1030  0.1145
10037W        W26511   0.549  14.665   3.260  0.2101 -0.1910  0.0483
10038W        W26512  14.431   0.183   3.503  0.1173  0.0063  0.1043
10039W        W26513  16.084  14.883  13.166 -0.0651 -0.0141 -0.0778
10040W        W26514   6.832   9.290   0.875  0.0640  0.2239 -0.0835
10041W        W26515  16.731   7.331  11.837  0.2905 -0.1177  0.1771
10042W        W26516   0.067   9.291  12.575 -0.3298 -0.2569 -0.0294
10043W        W26517   2.885   0.382   0.647  0.1534  0.1362 -0.0344
10044W        W26518   4.083   5.737  12.844 -0.0495 -0.0965  0.1305
10045W        W26519   2.818   3.085   5.542 -0.0878  0.0100 -0.1779
10046W        W26520   1.627  14.390  16.125 -0.0602 -0.2645 -0.2325
10047W        W26521   9.358  14.483   4.829  0.2154 -0.0773  0.0493
10048W        W26522   9.227   6.807  14.834  0.3151 -0.1566 -0.0274
10049W        W26523  11.357   5.348   3.115 -0.0745 -0.1724 -0.0253
10050W        W26524   2.746   8.503   4.759  0.0367  0.0384 -0.2095
10051W        W26525  16.634   2.413   4.659 -0.0703  0.1347  0.1169
10052W        W26526   6.418   0.852   2.523 -0.1307 -0.0046  0.3505
10053W        W26527   2.245   9.354  15.643  0.0099 -0.0868  0.0791
10054W        W26528  14.081   1.869  15.444  0.1533 -0.1962  0.3385
10055W        W26529  16.290   4.612   3.199 -0.0104  0.0919  0.2355
10056W        W26530  16.355   8.052   3.406 -0.0018 -0.1489 -0.0560
10057W        W26531  15.589   8.389   0.203  0.2992  0.3830  0.1183
10058W        W26532   3.246  13.584  12.809 -0.1024  0.0565  0.0735
10059W        W26533  10.475  16.140   5.191  0.0072  0.2814 -0.1761
10060W        W26534   5.566   3.184   2.976  0.0610 -0.0765  0.2047
10061W        W26535   5.269  10.666  13.983 -0.2645  0.2283 -0.1808
10062W        W26536   7.075   0.784   1.951  0.0615  0.0756  0.0454
10063W        W26537  11.933   0.271   2.546 -0.0320 -0.1673  0.1586
10064W        W26538   3.679  13.479  11.435 -0.1421  0.1772 -0.0610
10065W        W26539  15.043   3.206   4.233 -0.1526 -0.0637 -0.1775
10066W        W26540  13.273  16.474  12.478 -0.0813 -0.0250 -0.0224
10067W        W26541   8.526  14.898   0.261 -0.2260  0.2005 -0.2001
10068W        W26542   1.322  14.634  11.556  0.1264  0.1082 -0.0653
10069W        W26543  13.424   7.086   5.107  0.0618  0.0818  0.1593
10070W        W26544   6.811  12.342   3.848 -0.4214 -0.0041  0.1842
10071W        W26545  15.488   8.682  13.088  0.0255 -0.0844 -0.0376
10072W        W26546   8.903   4.716  15.144 -0.0267 -0.1866  0.0831
10073W        W26547   8.880  12.920   0.165  0.0007 -0.0101  0.0996
10074W        W26548  17.162  10.550  11.490 -0.0581  0.3100  0.0940
10075W        W26549   5.558  16.932  12.991  0.2688 -0.0414  0.1690
10076W        W26550   7.338   8.100  12.101 -0.1586  0.3137  0.0500
10077W        W26551   5.004   2.455  12.208  0.1084 -0.1219  0.1656
10078W        W26552   0.882  14.644  15.592 -0.1502 -0.2532 -0.0707
10079W        W26553   4.647   9.800  16.832  0.0179  0.0895  0.0314
10080W        W26554   1.132  10.781  12.030 -0.0552  0.1805 -0.4776
10081W        W26555   9.410   4.468   4.529  0.0755  0.0946  0.1916
10082W        W26556  16.938  17.723  12.656 -0.1272 -0.0228 -0.1918
10083W        W26557   5.200   7.006  13.031  0.0582  0.0932  0.2591
10084W        W26558  17.207  13.048   2.030 -0.1308 -0.1348 -0.2424
10085W        W26559   3.909  10.770   3.698 -0.1065 -0.3301 -0.0125
10086W        W26560  15.554  13.335  14.380  0.3231  0.0160  0.1706
10087W        W26561  14.767   3.578  12.674 -0.0192  0.2257 -0.1752
10088W        W26562  11.986  13.358   0.162 -0.1553 -0.2312 -0.0658
10089W        W26563  15.983   8.861  13.418 -0.0025  0.0814  0.1552
10090W        W26564  16.303   5.590   4.199 -0.2557 -0.1574 -0.0908
10091W        W26565   3.716   9.560  14.557 -0.0804 -0.1385  0.1035
10092W        W26566  12.771  16.646  12.635 -0.1732  0.0587 -0.0696
10093W        W26567  11.719   5.256   0.554 -0.2239  0.0917 -0.2591
10094W        W26568   1.536  14.263   1.079 -0.1648  0.0848 -0.1634
10095W        W26569   5.690  17.768   5.266 -0.0208 -0.1546 -0.3179
10096W        W26570  15.211  17.788  14.177 -0.1204  0.0364 -0.1880
10097W        W26571  10.878   2.881  11.754 -0.0900 -0.2113 -0.2086
10098W        W26572   8.010  10.427  15.740  0.0793 -0.0263 -0.1997
10099W        W26573   7.460  10.498  14.849 -0.0575  0.4268 -0.1617
10100W        W26574   9.580   2.430  14.646  0.1296  0.0855  0.1656
10101W        W26575  14.897  17.812   4.772 -0.2923  0.0003 -0.2056
10102W        W26576  17.730  12.583  11.192 -0.1413  0.2702  0.1203
10103W        W26577   8.595   9.482   5.597  0.2966 -0.0350 -0.0900
10104W        W26578   3.222  10.727   4.376  0.0245  0.0565 -0.0341
10105W        W26579  13.031   8.182  13.120 -0.2733  0.1900  0.0561
10106W        W26580  16.322  13.200   4.073  0.0207  0.1037  0.1170
10107W        W26581   3.593   3.380   0.679  0.2787  0.0212 -0.0874
10108W        W26582  17.584  10.157   4.038  0.1739 -0.2839  0.0210
10109W        W26583   5.614  10.551  13.010  0.1035  0.1022 -0.0529
10110W        W26584  10.277  13.420   2.006 -0.0809  0.3163  0.0857
10111W        W26585  11.684  15.448  11.848 -0.0633 -0.1900 -0.0011
10112W        W26586  12.730   4.118  16.601  0.1090 -0.0175 -0.1373
10113W        W26587   1.261   6.502  11.920 -0.2317  0.0195 -0.2169
10114W        W26588   4.782  16.425   4.896 -0.2556 -0.1308  0.0332
10115W        W26589  15.967   6.404   3.039 -0.1654  0.0574 -0.1053
10116W        W26590   4.467  16.554   2.516 -0.2687 -0.2371 -0.1862
10117W        W26591  13.841  16.125   0.072 -0.0447  0.1375 -0.2908
10118W        W26592   5.936  15.591   5.179  0.1620 -0.0859  0.0213
10119W        W26593  11.502   6.631  15.902  0.0068 -0.0423  0.0204
10120W        W26594  13.115  13.126  13.708 -0.1385  0.0175 -0.1247
10121W        W26595  13.368   3.439  16.587 -0.0287  0.1368 -0.2089
10122W        W26596  14.414  12.237   5.241 -0.0188 -0.0968  0.0064
10123W        W26597   6.266   9.800  16.046  0.1711  0.1371  0.2627
10124W        W26598   1.180   5.958   0.451  0.0347  0.1402 -0.2731
10125W        W26599   2.912   9.955   3.337 -0.3423  0.2646 -0.0880
10126W        W26600  10.135   9.743  16.386  0.2559 -0.0649 -0.1395
10127W        W26601  13.852  16.597   3.437  0.0222 -0.0674 -0.0009
10128W        W26602   9.102   0.465  11.796  0.1845  0.0933  0.1192
10129W        W26603   0.366   4.359  15.330 -0.1796  0.1635  0.0265
10130W        W26604   5.129   3.183  13.499  0.1058 -0.1911 -0.2304
10131W        W26605   3.267   2.491   0.300 -0.1334  0.0355 -0.2997
10132W        W26606  17.706   3.487  16.301 -0.1073 -0.3463  0.0260
10133W        W26607  15.526   0.721   1.578  0.1183 -0.0124  0.0574
10134W        W26608  12.591  13.165   0.889 -0.1408 -0.4062 -0.0042
10135W        W26609  13.640  14.593  14.408  0.0986  0.1480  0.2077
10136W        W26610  17.740   5.277   5.367 -0.0216  0.0950  0.2529
10137W        W26611   3.360  17.659   2.545 -0.0745  0.2337  0.2070
10138W        W26612   1.789   8.208  14.329  0.0856 -0.2043 -0.3050
10139W        W26613   8.700  13.263  10.610 -0.1248 -0.0295 -0.1034
10140W        W26614  11.900   1.366   2.937  0.1972  0.0135 -0.3034
10141W        W26615   9.121  14.566   2.580  0.0072  0.3747 -0.4198
10142W        W26616   8.598   2.402   4.018  0.1930 -0.0238  0.0157
10143W        W26617   3.874   8.576   4.629  0.1015  0.1741  0.4479
10144W        W26618  14.517   4.740   0.208 -0.2359  0.3639 -0.2340
10145W        W26619   3.318  13.561   0.759 -0.1445  0.1712 -0.0287
10146W        W26620   3.939   6.767   5.340 -0.1174 -0.1336 -0.2179
10147W        W26621  13.515   5.828   1.280  0.0575 -0.0582 -0.0669
10148W        W26622   0.032  13.170  13.361  0.0279 -0.2837  0.1463
10149W        W26623  16.619  13.879   2.862  0.1439 -0.0418  0.3220
10150W        W26624   7.692   7.504  16.059  0.1503 -0.2839  0.0492
10151W        W26625  16.871  11.881  11.997  0.0398 -0.1004  0.1333
10152W        W26626  17.796  13.508   0.665  0.0342  0.0157 -0.3511
10153W        W26627   1.084  16.413  15.924  0.0217  0.0012  0.3800
10154W        W26628  15.602  14.442  16.850  0.0231  0.3492  0.0572
10155W        W26629   4.745   1.524  14.259  0.1373 -0.1957 -0.1511
10156W        W26630  13.711   1.705   5.302  0.3269 -0.3760 -0.2215
10157W        W26631   0.074  12.037   2.969  0.0324  0.0478 -0.0925
10158W        W26632  16.091   2.312   3.318 -0.2081  0.3044 -0.0317
10159W        W26633   3.614   8.388   4.228 -0.3073  0.0012  0.0174
10160W        W26634  10.343   6.111  11.798  0.1129  0.1422 -0.2413
10161W        W26635  11.573   7.353   3.356  0.1643  0.0189  0.1827
10162W        W26636  15.931  15.974  16.847 -0.3075  0.0098 -0.0497
10163W        W26637  11.623  15.028   2.835  0.1349  0.1759  0.0483
10164W        W26638   5.817   8.606  12.790 -0.2930 -0.1045 -0.0723
10165W        W26639   0.061   1.970   0.374  0.0024  0.0187 -0.2378
10166W        W26640  16.112  10.004   4.045 -0.0701 -0.1376 -0.0642
10167W        W26641  13.784   0.729  15.415 -0.1176  0.0036 -0.2684
10168W        W26642  13.860   3.392  12.210 -0.1774  0.0386 -0.0447
10169W        W26643   1.043  13.882  16.683 -0.3165 -0.0701 -0.1494
10170W        W26644  15.017   9.809  14.180 -0.0358 -0.0922  0.2520
10171W        W26645  13.518   4.375  13.646  0.0459  0.4184  0.0107
10172W        W26646   6.393  11.534   3.297  0.0659  0.1270  0.1093
10173W        W26647  15.646   3.899  13.952 -0.0996 -0.0160  0.1437
10174W        W26648   5.828   3.072   4.550  0.0208 -0.1460 -0.1412
10175W        W26649   1.359   8.339  15.748 -0.3833  0.1254 -0.0016
10176W        W26650   7.254  15.131  14.685 -0.0039  0.1455  0.3063
10177W        W26651   4.823   6.882   5.705  0.0736 -0.1741  0.2382
10178W        W26652   5.445  11.627   0.694  0.3686 -0.0932  0.1551
10179W        W26653  16.659   8.158   5.592  0.2402 -0.2123 -0.2466
10180W        W26654   5.472  13.725   2.160  0.0042  0.1086 -0.0827
10181W        W26655   0.863  12.224  11.737  0.1088  0.2520 -0.0832
10182W        W26656  12.925   0.891   5.956  0.0580 -0.3187 -0.1610
10183W        W26657  11.483  16.428  13.444  0.1720  0.1094 -0.2147
10184W        W26658   7.927  11.183   3.434  0.0043  0.0499 -0.2348
10185W        W26659  11.329  15.321   2.490  0.0565 -0.1459 -0.0037
10186W        W26660   0.286  15.192   0.500  0.1496  0.1817 -0.4748
10187W        W26661   1.596  17.791   4.986  0.0770 -0.0387  0.0398
10188W        W26662  15.931   7.454  15.055  0.1116  0.0159 -0.1302
10189W        W26663  14.646  14.577  14.354  0.0527 -0.0905  0.1777
10190W        W26664   1.866   2.210   1.450 -0.0800  0.2330 -0.2536
10191W        W26665   7.531  10.691   0.914 -0.1866 -0.1270  0.2492
10192W        W26666   1.281   3.378   2.884  0.0736  0.0261 -0.0978
10193W        W26667   3.847  15.472  14.259 -0.0990 -0.1191 -0.0899
10194W        W26668   0.891   2.769  12.561 -0.2753  0.0251  0.1454
10195W        W26669   9.281   2.152   4.548  0.1231 -0.0367 -0.2251
10196W        W26670   2.734   2.345   2.960  0.1797  0.1150  0.0637
10197W        W26671  15.850  14.566   4.757 -0.1827  0.4442  0.1770
10198W        W26672   4.949  14.025   3.792 -0.2012 -0.0233 -0.0402
10199W        W26673  12.204   8.702  15.133  0.4876  0.4290 -0.0277
10200W        W26674   8.673   5.545   0.610  0.0806  0.0844 -0.0164
10201W        W26675   2.653  13.101   1.974 -0.0260  0.1788  0.2556
10202W        W26676  10.684   6.496  15.891 -0.3359  0.2780  0.0298
10203W        W26677  12.568   5.928   1.575 -0.0267 -0.1697  0.0475
10204W        W26678  14.175   0.441   5.005  0.0531 -0.0748 -0.0186
10205W        W26679  14.689   0.474   3.075 -0.0722 -0.0662  0.0366
10206W        W26680  10.652  11.579   3.155  0.1609 -0.1071 -0.3608
10207W        W26681  16.335  10.105  14.955 -0.0318 -0.1975 -0.0124
10208W        W26682   7.142  17.479  16.378  0.2385 -0.1701  0.3071
10209W        W26683  10.018   3.568   2.336  0.2435  0.0535  0.0735
10210W        W26684  11.926  15.315   4.163  0.0998 -0.0747 -0.1012
10211W        W26685  17.804  17.708   3.606 -0.0959 -0.2339 -0.0400
10212W        W26686  17.451   7.093  11.973 -0.1217  0.1859 -0.2277
10213W        W26687   0.167   0.405   4.925 -0.1248 -0.0618  0.0081
10214W        W26688   2.015  16.673   3.483 -0.0430 -0.2795 -0.0404
10215W        W26689   7.854  17.699  14.224  0.1021  0.0277 -0.0719
10216W        W26690   2.913   2.474   0.694 -0.0608 -0.0657 -0.0129
10217W        W26691   9.266  16.336  11.922  0.0095 -0.2067 -0.1333
10218W        W26692   0.678   4.787  16.614 -0.0657 -0.0877  0.0368
10219W        W26693   9.105   2.490   3.671 -0.0918  0.1883 -0.2067
10220W        W26694  10.034  12.597   4.552 -0.0378  0.1584 -0.2750
10221W        W26695  12.321   9.036   2.401  0.0076  0.1734 -0.1233
10222W        W26696   9.531   9.177   3.491 -0.0359 -0.0847 -0.2016
10223W        W26697   1.117  10.833   0.746  0.1232 -0.0312  0.1798
10224W        W26698  16.739   4.511   0.893  0.1370  0.3504 -0.0382
10225W        W26699   3.535   5.776   3.245 -0.0187 -0.0311  0.4316
10226W        W26700   4.524   9.417   3.653  0.1543  0.0064  0.1471
10227W        W26701   7.993   9.337  12.556  0.2809  0.0852  0.3982
10228W        W26702  12.808   5.567   3.406  0.0404 -0.1683 -0.1905
10229W        W26703  12.152   7.211   2.103  0.0187 -0.3929 -0.1064
10230W        W26704  15.772  11.675  15.009  0.0353  0.1103 -0.2094
10231W        W26705   3.953  13.020  12.876  0.2336 -0.1727  0.2221
10232W        W26706   3.820  14.217  13.881 -0.0520  0.0220 -0.0948
10233W        W26707   4.246   2.972  12.457  0.1917  0.0759 -0.2325
10234W        W26708   6.393   8.029   0.458 -0.4222 -0.1773  0.0810
10235W        W26709   7.412  17.623  12.913  0.2629 -0.3330  0.1804
10236W        W26710   8.735   6.906  15.772 -0.2152  0.1022  0.1325
10237W        W26711   3.054  14.870   0.101 -0.0115  0.4154 -0.2014
10238W        W26712   3.831   7.279  12.911  0.2423  0.0589  0.1826
10239W        W26713  14.799  12.016   5.404 -0.1286 -0.1271 -0.1406
10240W        W26714   3.779  16.608   3.063  0.1246  0.0010  0.0323
10241W        W26715  12.949  14.618   2.850 -0.0256  0.2139 -0.2479
10242W        W26716  16.538  14.708  13.658  0.1428 -0.0396 -0.0226
10243W        W26717  16.962  17.016   5.844  0.1306 -0.1652 -0.0112
10244W        W26718   9.042   7.296  16.094 -0.0491  0.1956  0.2378
10245W        W26719   6.089   5.520   4.119  0.3253 -0.0520  0.2000
10246W        W26720  15.253   3.540  13.908 -0.2906 -0.2082 -0.1675
10247W        W26721  12.749  11.113   2.375 -0.1317 -0.0471  0.1350
10248W        W26722  13.822   5.935   2.174  0.3337  0.0507 -0.1623
10249W        W26723  16.284   1.949   3.674 -0.4669 -0.4095 -0.1031
10250W        W26724   9.617   7.928   1.372  0.0780  0.0426  0.0309
10251W        W26725  10.646  17.537   0.576 -0.0026  0.0068 -0.0559
10252W        W26726   9.591  17.485  16.229  0.0342 -0.0501 -0.2103
10253W        W26727  10.343  15.923   4.006  0.0827  0.0752 -0.1542
10254W        W26728  12.899   6.897   3.671  0.0446  0.0331  0.0937
10255W        W26729   7.982  16.135  15.014 -0.0391 -0.0734 -0.1117
10256W        W26730  16.064  15.853  15.289  0.1944  0.0810  0.3492
10257W        W26731   7.385   1.039  13.627 -0.2398 -0.1292  0.1014
10258W        W26732  13.076   1.806   0.736  0.0167 -0.1735  0.2541
10259W        W26733   6.218   3.690   0.783  0.2401 -0.0606 -0.0395
10260W        W26734   5.130   7.383   2.694  0.2155  0.0871 -0.2829
10261W        W26735  11.355   6.978   5.356 -0.2611 -0.0729  0.1662
10262W        W26736   6.382  12.456   3.133  0.1559 -0.0491 -0.1401
10263W        W26737   4.375   2.046   2.939  0.1052 -0.0810  0.0224
10264W        W26738   5.320   6.223  12.464 -0.1425  0.0605  0.2288
10265W        W26739  10.793  13.273   3.509 -0.0487  0.2666 -0.0282
10266W        W26740   2.116  10.619   2.452  0.0936 -0.3192  0.0269
10267W        W26741   5.435   0.991  13.873  0.1376 -0.1489 -0.1612
10268W        W26742  17.814  17.426   4.467 -0.1097 -0.0711  0.0692
10269W        W26743   3.865  16.230   4.628  0.1760  0.0347 -0.3281
10270W        W26744  13.355   2.711   2.758 -0.0223 -0.1103 -0.1760
10271W        W26745  14.820   1.065   3.421  0.0373 -0.0266  0.1046
10272W        W26746   6.436   7.029   1.148  0.0185 -0.1208 -0.1169
10273W        W26747  15.410   5.278   2.996 -0.2838 -0.1737 -0.2074
10274W        W26748   0.294  11.666   2.007 -0.0594  0.5452 -0.0767
10275W        W26749  17.228   3.752   4.673 -0.1097 -0.0877 -0.0119
10276W        W26750  12.162   0.177  15.760  0.1808 -0.1422 -0.3775
10277W        W26751   2.120   9.858  11.960 -0.0981 -0.0119  0.1589
10278W        W26752   4.000   6.937   3.316  0.0419 -0.0829  0.1590
10279W        W26753   5.598  14.577   0.470  0.3724 -0.1456  0.3085
10280W        W26754  14.589  10.829  16.426  0.1525 -0.0694  0.0243
10281W        W26755  10.707   7.680   5.288 -0.0955 -0.2001 -0.3862
10282W        W26756  11.525  11.601  13.282 -0.2508  0.0708  0.0999
10283W        W26757   3.444   2.911   2.479 -0.0496  0.0301 -0.2976
10284W        W26758   8.053   8.398  12.140  0.0428 -0.0783 -0.0211
10285W        W26759   1.072   6.402  16.747 -0.1790  0.2065  0.3787
10286W        W26760   9.267   4.753   3.110 -0.2442  0.3045 -0.0885
10287W        W26761  17.438   9.707   0.393 -0.0256 -0.0926  0.2319
10288W        W26762  12.108  13.757  11.705 -0.2433  0.0440  0.1121
10289W        W26763   7.434   9.907  14.880 -0.1762 -0.0710  0.1000
10290W        W26764  11.946   0.007  12.790 -0.0394 -0.1090  0.0684
10291W        W26765  15.579   0.233  14.345  0.0850  0.0236 -0.0695
10292W        W26766   4.416   7.089   1.455 -0.1791  0.1250 -0.0243
10293W        W26767   0.989   7.775  16.748  0.0930  0.0520  0.0494
10294W        W26768  15.385   8.840   1.376  0.3357  0.0919  0.2095
10295W        W26769   7.647   0.154  13.891 -0.0580 -0.0536  0.3622
10296W        W26770  10.931   9.736  14.143  0.1261  0.1325 -0.2030
10297W        W26771  16.817  10.820  11.020  0.0446 -0.0403  0.1707
10298W        W26772  10.214  12.075   1.366  0.2628  0.0091  0.0588
10299W        W26773  17.591  15.491  12.166 -0.1182 -0.0232  0.1757
10300W        W26774   6.816   9.781   2.935 -0.2143  0.2194  0.0129
10301W        W26775   0.216  14.530  14.279  0.0764  0.2452  0.0506
10302W        W26776   1.801   3.683   4.038  0.0430  0.1014  0.1960
10303W        W26777  16.020  12.187  15.160 -0.1248  0.2160  0.1027
10304W        W26778   8.198  10.066  13.995 -0.0617  0.0808 -0.3437
10305W        W26779   5.268  13.212   0.915 -0.2721  0.2831 -0.1983
10306W        W26780   5.965   8.887  13.795  0.0413 -0.1224 -0.1791
10307W        W26781   8.557  10.245  12.516  0.1841  0.1999 -0.0385
10308W        W26782  12.650   0.778   0.718 -0.1279  0.1090  0.3646
10309W        W26783   5.453   5.904   4.143 -0.1867  0.0616  0.0978
10310W        W26784  11.082  10.128   0.679 -0.0874  0.0632  0.3429
10311W        W26785   2.689  13.695  13.146 -0.0598 -0.1165 -0.0160
10312W        W26786  16.745   6.467  13.211 -0.1781  0.0931 -0.0342
10313W        W26787   4.693   1.212  12.286 -0.2082  0.1679  0.1291
10314W        W26788  17.249  11.708  13.398 -0.2002 -0.0536  0.2877
10315W        W26789  17.436  16.402   3.461  0.1967  0.1585 -0.1842
10316W        W26790  14.757   0.200  14.085  0.1013  0.1034 -0.1568
10317W        W26791  15.781   3.585   3.139 -0.3589  0.1128 -0.1931
10318W        W26792  16.549   2.903   1.048 -0.0674  0.0140  0.3001
10319W        W26793  12.786  17.325  16.143  0.1000  0.1782 -0.0134
10320W        W26794   3.924   0.300   0.184  0.0793  0.2429 -0.0157
10321W        W26795   3.588   3.886  13.929  0.3971  0.0383  0.0402
10322W        W26796   2.850   6.473   4.228  0.2532  0.1304 -0.0931
10323W        W26797  15.135  12.950   1.878  0.0653  0.0427  0.2811
10324W        W26798  14.836  15.492  12.580  0.2594  0.1362  0.0262
10325W        W26799  14.461   9.990   3.478  0.3641 -0.3069 -0.0653
10326W        W26800   5.892  14.685   2.628  0.1093 -0.3175 -0.3615
10327W        W26801  17.146   3.587   5.120  0.1618  0.1111 -0.0308
10328W        W26802  12.809   0.537   2.161 -0.0979  0.0356 -0.1529
10329W        W26803   9.631   7.702   3.030  0.0701  0.1151  0.5355
10330W        W26804   4.069  15.474   1.540  0.0570  0.0172  0.0695
10331W        W26805   2.847  10.396   0.133 -0.0380 -0.1604 -0.0435
10332W        W26806  13.974  10.052   0.973 -0.0386  0.0770 -0.0300
10333W        W26807   3.518   7.965   1.074 -0.1404 -0.2215 -0.0822
10334W        W26808  14.519  13.262   3.770  0.1915  0.1698  0.0770
10335W        W26809  14.632   3.757   1.159 -0.2191 -0.1190  0.0898
10336W        W26810   5.005   2.314  12.746  0.0505  0.0476 -0.1070
10337W        W26811  15.385   2.249  13.929  0.2141 -0.1792  0.2271
10338W        W26812  12.047  13.170  16.642 -0.1947  0.3632  0.3265
10339W        W26813  13.820  14.175  16.555  0.0888  0.1134  0.1348
10340W        W26814  15.380  16.830  15.774 -0.0543  0.0244  0.0047
10341W        W26815   3.024  10.818   2.569 -0.0309  0.0693 -0.1608
10342W        W26816  12.158   7.306  16.874  0.2258  0.1341  0.2092
10343W        W26817   1.589   6.394   1.196  0.2747 -0.0829 -0.1348
10344W        W26818   7.768   8.154   3.582 -0.1102 -0.0852  0.1389
10345W        W26819   4.753   2.676   1.720  0.0676  0.1175 -0.1125
10346W        W26820   1.743  16.541   3.923  0.0048  0.2139  0.1736
10347W        W26821  11.081   6.353  15.592 -0.0436  0.0668  0.2785
10348W        W26822   5.461   7.956  16.672 -0.0160  0.2095 -0.0902
10349W        W26823  13.324  12.939   2.441  0.1315  0.1653 -0.0542
10350W        W26824  17.669   3.918  15.766  0.1167  0.0065  0.1817
10351W        W26825  11.393   4.328   3.678  0.1817 -0.4085 -0.2133
10352W        W26826  17.298   0.973  15.086  0.0318 -0.0132 -0.2116
10353W        W26827  14.684   3.649   1.872  0.0385  0.1962  0.1704
10354W        W26828   4.011  10.012   4.225  0.3420  0.2992 -0.2147
10355W        W26829   8.801   8.817  14.512  0.3340 -0.0871 -0.2426
10356W        W26830   8.495   9.350  15.603  0.1469  0.0818  0.0099
10357W        W26831  16.288  13.554  12.592 -0.1413  0.2201  0.2875
10358W        W26832  15.689   1.831  14.823 -0.0945  0.0600  0.1423
10359W        W26833   0.884   9.722  11.467 -0.0955 -0.1361 -0.0898
10360W        W26834  13.530  16.914   2.609 -0.2822  0.0894 -0.1680
10361W        W26835   8.929  15.074  13.254 -0.0388 -0.2435  0.1704
10362W        W26836   9.672  11.889   2.765 -0.0417  0.2421 -0.1003
10363W        W26837  10.894  11.468  15.196  0.1185  0.2477 -0.1820
10364W        W26838   0.335  12.738   3.538 -0.1176  0.2617 -0.2416
10365W        W26839   8.047  15.432   1.604  0.1169 -0.0171  0.0136
10366W        W26840  13.816   3.540  16.168 -0.0244  0.3202  0.1495
10367W        W26841  10.006   6.447   2.484 -0.0184 -0.0735  0.0692
10368W        W26842   2.313   1.165   4.844  0.0224  0.0717  0.2944
10369W        W26843   2.918   9.840  12.432 -0.1480 -0.1479  0.0035
10370W        W26844   4.955  11.245  15.137 -0.1958 -0.1074 -0.1501
10371W        W26845   6.320  15.550  16.679 -0.1132  0.1066  0.2710
10372W        W26846   3.606   9.395  15.148 -0.0800 -0.1918  0.3445
10373W        W26847   4.858  12.150  11.279  0.1017 -0.3810 -0.2620
10374W        W26848  11.433  16.448   3.165 -0.1136  0.1018 -0.0193
10375W        W26849  15.577   1.391   3.929  0.0757  0.0988 -0.1892
10376W        W26850  12.220   0.774  16.483  0.0701 -0.2539 -0.1000
10377W        W26851  15.934   8.693   2.757 -0.2052  0.1680 -0.0573
10378W        W26852   7.148  17.675  15.730  0.0642  0.0864 -0.0547
10379W        W26853  16.127  15.171   3.453 -0.1857 -0.2088  0.1529
10380W        W26854  12.821   4.203   0.144  0.0635 -0.0416 -0.4282
10381W        W26855  11.385   1.882   4.870 -0.1487 -0.2971  0.1076
10382W        W26856   7.935  14.381  12.510 -0.2478 -0.0552  0.2414
10383W        W26857   8.072   7.207  15.336  0.0977 -0.0486  0.2406
10384W        W26858   3.771   8.438  14.723  0.1684  0.5262 -0.1640
10385W        W26859  12.365   0.538  11.984 -0.0504 -0.2296  0.0082
10386W        W26860   5.348  12.593   0.945  0.3961 -0.1992  0.0873
10387W        W26861  12.868   5.042  14.335 -0.1361  0.0439 -0.1637
10388W        W26862  15.532  13.148   1.095  0.2179  0.1900  0.3378
10389W        W26863   5.875   0.530  13.619  0.2301  0.1829  0.1666
10390W        W26864   2.968   7.767  13.897  0.0604  0.0778 -0.0491
10391W        W26865  13.701   4.218   2.405  0.5232  0.0480  0.1110
10392W        W26866   9.130   1.215   3.575  0.1053  0.0681  0.0147
10393W        W26867   4.567   9.820   4.945  0.0678  0.1590  0.0074
10394W        W26868   8.704   8.972  12.720  0.3345  0.1880 -0.3119
10395W        W26869   0.481  16.727   4.010 -0.1556 -0.2104 -0.2937
10396W        W26870  13.717  15.120  13.016  0.2065  0.2596 -0.2495
10397W        W26871   9.507   4.049  16.209  0.3960 -0.0945 -0.1853
10398W        W26872  13.386  16.282  14.747  0.0395  0.3825 -0.2980
10399W        W26873   8.413  14.580  14.975  0.1720  0.1601 -0.1196
10400W        W26874   2.371   4.758  13.081 -0.1597  0.2252 -0.0823
10401W        W26875   2.661  16.821  15.294  0.3354 -0.0863 -0.0976
10402W        W26876  16.709   2.516  14.240  0.3292 -0.0147 -0.2226
10403W        W26877  14.817   1.745   2.290 -0.0438  0.1667 -0.3076
10404W        W26878   1.214   4.577   1.867 -0.0782 -0.1315  0.1030
10405W        W26879   9.374  15.458  13.129 -0.1137  0.1648 -0.2153
10406W        W26880   6.404  16.911   2.779 -0.1438 -0.0460  0.1363
10407W        W26881  13.327  13.756  14.439  0.0287 -0.3430 -0.3433
10408W        W26882  12.713   9.659  14.518 -0.1745  0.0496 -0.1898
10409W        W26883  15.502   0.236  11.789  0.1772 -0.1150  0.3326
10410W        W26884  13.788  11.084   1.137 -0.1092  0.0990  0.0260
10411W        W26885  15.787   6.568   0.930 -0.1769  0.0134  0.1235
10412W        W26886  16.577  12.659   5.542  0.0391  0.1300  0.1776
10413W        W26887  16.363   3.164   5.893 -0.0157  0.1448  0.0893
10414W        W26888  17.006  16.934  13.648  0.0683 -0.2465 -0.2872
10415W        W26889  15.242   6.034   1.636 -0.0958  0.0064 -0.1058
10416W        W26890   6.820   6.684  16.892 -0.3274 -0.0112 -0.3080
10417W        W26891   2.572  16.138   5.673 -0.1717 -0.5222  0.1882
10418W        W26892  14.905   8.806  14.235 -0.0850 -0.2171  0.1605
10419W        W26893  14.288  12.956  13.647  0.1161 -0.3220 -0.3116
10420W        W26894   0.950  13.332  10.939  0.0236  0.0789  0.1619
10421W        W26895   9.491   6.706   3.109  0.1345 -0.1485 -0.1021
10422W        W26896  14.288   9.146  12.963  0.0593  0.1784  0.0251
10423W        W26897   4.011  14.860   0.941  0.1081  0.2521  0.0588
10424W        W26898  13.506  17.714   3.697  0.1416 -0.0775  0.3171
10425W        W26899  12.025  12.722   5.418  0.1889  0.0344  0.1967
10426W        W26900  14.403   3.226   2.395  0.1087 -0.2799 -0.0278
10427W        W26901  10.034  14.287   2.653  0.2818 -0.1462  0.1948
10428W        W26902   9.501   9.367   1.201 -0.0416  0.1103  0.1470
10429W        W26903   7.231  14.600   3.186  0.3284 -0.0239 -0.0342
10430W        W26904  16.715   4.751   3.501  0.0624 -0.1216  0.2733
10431W        W26905  10.649   6.025   2.988 -0.0038 -0.0571  0.2558
10432W        W26906   9.357   7.399   1.902  0.0366 -0.2013 -0.0319
10433W        W26907   7.464  17.091  14.733 -0.0291 -0.1369  0.0505
10434W        W26908  12.455   9.951   4.502  0.0859 -0.0041 -0.2028
10435W        W26909   2.960  12.068  15.410  0.2187 -0.1431  0.2715
10436W        W26910   6.618   4.873   5.062  0.1963  0.1347 -0.4355
10437W        W26911   4.154   9.053   3.680  0.1810 -0.0782  0.2243
10438W        W26912  16.699   4.427  16.307 -0.0343 -0.0275 -0.1569
10439W        W26913   8.473   4.044  16.301 -0.0289  0.2878  0.0562
10440W        W26914   6.084   8.030   4.165  0.2334 -0.0080 -0.2512
10441W        W26915   2.731  12.973   1.474  0.0404 -0.1076 -0.1214
10442W        W26916   4.148  15.057   1.964  0.0260 -0.2609  0.0754
10443W        W26917  13.233   2.849  13.273  0.1045 -0.0804 -0.1408
10444W        W26918   0.143  14.748   0.351  0.2229 -0.1712 -0.0854
10445W        W26919  10.637  12.781   3.756  0.1048 -0.1739 -0.0334
10446W        W26920  12.371   9.304   1.454 -0.1474 -0.1162  0.0950
10447W        W26921  14.106  11.684   2.465  0.0480 -0.1798 -0.0601
10448W        W26922  10.633   8.414   1.996  0.1703  0.0671  0.0050
10449W        W26923  13.414   1.465  16.816 -0.4957  0.1958 -0.1924
10450W        W26924   8.778   6.400   3.970 -0.1611 -0.1844 -0.1686
10451W        W26925  15.075   7.580  12.707  0.1749 -0.1556 -0.0591
10452W        W26926  11.627   1.319   4.806  0.1324  0.0070 -0.0305
10453W        W26927  17.271   9.007   3.708  0.1020 -0.1754 -0.3271
10454W        W26928   1.983  15.605   1.407 -0.1336 -0.0775 -0.4605
10455W        W26929  11.043  13.256  16.511  0.2694  0.1009  0.0946
10456W        W26930  14.697   0.280  15.461  0.2325 -0.0403 -0.4415
10457W        W26931   2.760  17.389   0.022  0.0654  0.1402 -0.0762
10458W        W26932  16.468  13.020   1.269 -0.2378 -0.1901 -0.0419
10459W        W26933  14.235  12.440  15.801  0.1055 -0.0872 -0.0090
10460W        W26934   3.482   1.852   2.183 -0.0215  0.1499 -0.1845
10461W        W26935  16.251  10.653  14.889 -0.2754  0.3434 -0.2259
10462W        W26936   4.178  12.041  13.759 -0.0239  0.1223 -0.0748
10463W        W26937   8.847   1.507  15.590 -0.0812  0.1301  0.2910
10464W        W26938  15.285  11.447  16.409 -0.2019 -0.3940 -0.0955
10465W        W26939   9.324  15.683   0.532  0.2940 -0.1192 -0.0191
10466W        W26940   8.673   5.926  15.650 -0.0817 -0.1499 -0.2564
10467W        W26941  10.962   7.382  13.110 -0.0057  0.0904 -0.0344
10468W        W26942   8.812   6.188   1.425 -0.0092  0.1394 -0.0617
10469W        W26943  16.239   5.164  15.830 -0.5292 -0.1974 -0.0508
10470W        W26944   5.354   5.630  13.998 -0.0281 -0.0104  0.6409
10471W        W26945   6.415  17.232   3.093 -0.3207  0.0171  0.2459
10472W        W26946   5.274  14.815   0.159 -0.0363  0.3665  0.2215
10473W        W26947  13.659  11.252  14.978  0.0346 -0.0107 -0.2457
10474W        W26948  15.744  12.581   3.757 -0.2491 -0.3140 -0.0581
10475W        W26949   0.427  14.623  11.357 -0.1445  0.0021 -0.0750
10476W        W26950  16.987   9.543  12.155 -0.1546  0.0829 -0.1097
10477W        W26951  13.043   6.742   2.762  0.1667  0.0667  0.0313
10478W        W26952  15.987  13.776   4.327 -0.2417  0.0230  0.4341
10479W        W26953   7.387   8.856   3.452 -0.0493 -0.1769 -0.2030
10480W        W26954   0.651   7.973  15.887  0.1542  0.0623  0.1881
10481W        W26955  13.472   8.010  14.020  0.3855  0.1566 -0.0183
10482W        W26956   9.655   3.858  16.670 -0.0840 -0.2999  0.0799
10483W        W26957  14.210  10.925  12.149  0.0055 -0.4297  0.0388
10484W        W26958   3.600   9.319  14.072 -0.0382  0.6165 -0.3392
10485W        W26959   4.218   8.710   1.246  0.4852 -0.0353  0.1063
10486W        W26960   7.470   5.103  14.891 -0.3800  0.0518  0.2743
10487W        W26961   5.931  14.397  12.555  0.0723 -0.2916 -0.1702
10488W        W26962   3.508  17.694   4.616 -0.1360  0.1557 -0.1950
10489W        W26963  14.973  11.301  15.468 -0.1193 -0.0217 -0.3189
10490W        W26964  11.262  15.178  16.328 -0.0062 -0.3098  0.0773
10491W        W26965  17.386   0.947   4.288 -0.1418 -0.1111 -0.0665
10492W        W26966  14.838  16.481  14.138 -0.2104 -0.1735  0.0296
10493W        W26967   1.074   2.639  14.515 -0.3351  0.1742 -0.1352
10494W        W26968   8.364  11.736  11.701 -0.2312  0.0065  0.1386
10495W        W26969   0.129   3.806   5.946  0.0200 -0.2672  0.2670
10496W        W26970   9.719  10.031   3.485  0.2003  0.0080 -0.0806
10497W        W26971   1.702   7.122   0.757 -0.2792  0.2308 -0.1869
10498W        W26972  17.529   2.214  12.520  0.0141  0.1017 -0.3611
10499W        W26973  15.147  12.900  14.437 -0.0803 -0.1717  0.0728
10500W        W26974   3.688  17.624  13.347  0.2135 -0.0669 -0.1784
10501W        W26975  13.698  13.223  16.436  0.2016  0.0508 -0.2338
10502W        W26976   8.468  10.708  16.261 -0.3432  0.1542  0.3063
10503W        W26977   1.730   9.293   3.770 -0.2384 -0.3980  0.0714
10504W        W26978   0.576   0.051   3.120 -0.1944 -0.0823 -0.0271
10505W        W26979   2.493  11.721  13.945  0.1611 -0.0500 -0.4608
10506W        W26980   1.195   6.308  13.641 -0.0547  0.0460 -0.2156
10507W        W26981  17.303   3.233  16.353 -0.0176  0.0529  0.1897
10508W        W26982  15.972   1.626   4.037 -0.0056 -0.1369  0.0282
10509W        W26983   6.485   4.195   5.226  0.2089 -0.2844  0.0906
10510W        W26984   5.654   5.180   1.312 -0.1066 -0.1146  0.0169
10511W        W26985  10.829  12.522   2.076  0.1806 -0.0371 -0.0928
10512W        W26986  13.623  10.112  11.707 -0.0862 -0.0808  0.2016
10513W        W26987   3.190  17.658  15.377  0.1094  0.0059 -0.0938
10514W        W26988  11.271  12.018  16.390  0.0315 -0.0350  0.0819
10515W        W26989   6.029  14.399  13.083  0.0131 -0.1375  0.2523
10516W        W26990   8.167  15.430  14.348 -0.0600  0.0345  0.0135
10517W        W26991   8.060  10.968  14.460  0.1069  0.1369  0.0358
10518W        W26992  10.266  15.102   2.335 -0.2297  0.1177  0.1682
10519W        W26993   3.178  15.043   2.767 -0.1407  0.3838 -0.0870
10520W        W26994  15.754   8.820   4.871 -0.1346  0.1987  0.1422
10521W        W26995   4.274   1.755  14.512 -0.0768  0.1479 -0.2937
10522W        W26996  14.262   3.343   1.193  0.0567  0.1576 -0.0139
10523W        W26997  13.081  15.286   1.801  0.1572  0.0587  0.1922
10524W        W26998  11.977  13.628   3.737 -0.1264 -0.0992 -0.2072
10525W        W26999   6.336  16.814   4.356  0.1886  0.0369  0.1127
10526W        W27000  16.399   9.827   2.047 -0.0633  0.0054  0.1867
10527W        W27001   2.754  15.793   3.791 -0.0877 -0.1665 -0.3298
10528W        W27002  10.339  17.378  16.240 -0.3299  0.0033  0.2776
10529W        W27003   5.357   1.684  12.080  0.1895  0.1094 -0.2761
10530W        W27004   7.369   8.853   5.680  0.1266  0.2438 -0.0151
10531W        W27005  14.874  15.098   5.196 -0.1143  0.1073  0.1897
10532W        W27006  15.103   5.620  16.436 -0.2924 -0.0245  0.0657
10533W        W27007  12.972   9.629  11.715 -0.5468  0.0826 -0.0155
10534W        W27008  13.212   1.838   5.383  0.0982  0.4949 -0.0465
10535W        W27009   9.767   4.947   0.344 -0.1304 -0.1309 -0.1144
10536W        W27010  13.296  12.283   5.720  0.0503 -0.3070  0.2504
10537W        W27011   6.522  13.537   0.094  0.0335 -0.5731 -0.1392
10538W        W27012   2.246  14.555  12.527  0.0341 -0.0059  0.2300
10539W        W27013  10.319   7.214   1.080 -0.1104  0.0243 -0.5019
10540W        W27014  12.504   0.937  13.686  0.0129 -0.0396 -0.0828
10541W        W27015   6.089  17.045  14.780 -0.0827  0.0162 -0.0771
10542W        W27016   0.197   3.376   3.555  0.1510 -0.0795 -0.1738
10543W        W27017   0.140   9.351   4.003 -0.0015  0.1971 -0.1487
10544W        W27018  14.036  14.505   3.552 -0.0518  0.0027 -0.1372
10545W        W27019  16.211   6.209  16.854  0.0405 -0.0909  0.1399
10546W        W27020   9.290   4.092  13.052 -0.0441 -0.3663  0.0546
10547W        W27021  10.683  13.124   1.146  0.1377  0.2471 -0.1645
10548W        W27022  11.825  12.499   0.578  0.0431  0.2020 -0.1485
10549W        W27023  14.136   7.445  16.160  0.0200 -0.0235 -0.0636
10550W        W27024   2.133   9.482  12.795 -0.0970 -0.2039  0.1620
10551W        W27025  15.013   2.711  12.306 -0.1298  0.0107  0.0806
10552W        W27026   7.317  11.444   3.590 -0.3565  0.0736 -0.2588
10553W        W27027  12.839   0.629  12.153  0.4022 -0.1448  0.1399
10554W        W27028   3.671   0.470  13.385  0.0703  0.0530 -0.1883
10555W        W27029  13.363   9.096  14.380  0.2273 -0.1099 -0.1689
10556W        W27030  13.422  17.086   5.375 -0.1730  0.4022 -0.1647
10557W        W27031  14.417   0.873   3.804  0.0329 -0.3670  0.3148
10558W        W27032   6.529  14.678  14.482 -0.1989  0.2247 -0.0110
10559W        W27033  10.221   8.826   1.367 -0.0209  0.4473  0.5247
10560W        W27034   5.079   5.110   0.114 -0.0735  0.1911  0.1541
10561W        W27035   1.723   4.109   6.411  0.2099  0.1140  0.0386
10562W        W27036   9.038  11.101  11.831  0.0006  0.0638  0.0529
10563W        W27037   8.485  17.100   5.635 -0.1067 -0.0493 -0.1291
10564W        W27038  10.373   4.223   3.493 -0.2111 -0.2595  0.1537
10565W        W27039   8.631   9.964   2.240 -0.1264 -0.0468  0.2942
10566W        W27040   2.101   7.488  13.499 -0.0241 -0.4247  0.3907
10567W        W27041   0.127   6.259   5.371 -0.0616 -0.3036 -0.2857
10568W        W27042   9.610  10.301  14.229  0.2662 -0.0350  0.1159
10569W        W27043  13.018  12.216   0.838 -0.1886 -0.0586  0.2485
10570W        W27044  14.806   3.500  11.765  0.1485  0.2197  0.1171
10571W        W27045   9.246   1.563   3.953 -0.0551 -0.0297  0.2135
10572W        W27046   4.083   3.941   5.048  0.0343 -0.1255  0.2135
10573W        W27047   2.356  15.327   2.845 -0.1004 -0.1999 -0.0846
10574W        W27048   4.160  10.527   5.334  0.3209  0.0616  0.1456
10575W        W27049   1.301   8.445   5.044 -0.0693 -0.2409 -0.1362
10576W        W27050  11.994   5.843  15.386  0.2018  0.3193 -0.2157
10577W        W27051  17.282   7.317  15.055 -0.3848  0.2542 -0.2350
10578W        W27052  11.879  13.178   2.088 -0.2201  0.0233  0.1748
10579W        W27053  10.142   4.894  13.873 -0.1086  0.0599  0.0197
10580W        W27054  15.781  10.399   4.092 -0.0704  0.1658  0.1280
10581W        W27055   2.357   6.468   3.036 -0.1439 -0.2344  0.1878
10582W        W27056  14.746   9.381   5.581 -0.0439  0.0330  0.0029
10583W        W27057   0.733  17.708   5.615 -0.1548 -0.4508  0.2111
10584W        W27058  13.244   0.416   3.138 -0.1593  0.0156 -0.4021
10585W        W27059   3.581   8.429   0.570  0.0197  0.1695  0.3765
10586W        W27060  13.369   0.215  10.718 -0.0589 -0.1665  0.0322
10587W        W27061   9.373   5.324   1.945 -0.0169 -0.1368  0.1126
10588W        W27062   2.401  11.446  13.557 -0.1701 -0.3625 -0.1049
10589W        W27063   9.174   2.253  13.112  0.1801 -0.0484 -0.2202
10590W        W27064   8.259  10.246  15.205 -0.2408  0.0740  0.1360
10591W        W27065  14.451   8.078  16.171 -0.0672 -0.1938  0.2893
10592W        W27066   4.971   1.158   3.486  0.1143  0.0657 -0.1189
10593W        W27067   4.614   2.980  14.883 -0.0827 -0.0143  0.0160
10594W        W27068  10.773   0.106   5.513 -0.2989  0.0473 -0.2017
10595W        W27069  11.231  17.587   3.770  0.1245 -0.0194  0.1506
10596W        W27070   1.483  10.447  16.824 -0.1778  0.0108 -0.0369
10597W        W27071   6.253  10.821  14.855 -0.3213  0.2334  0.1175
10598W        W27072  10.299  14.681   3.976 -0.1122 -0.1413 -0.1442
10599W        W27073  11.781  15.810   4.036 -0.1787  0.0268  0.0180
10600W        W27074   5.205  10.353  15.909  0.0380  0.0778  0.0797
10601W        W27075   5.546   6.348   0.455  0.1982  0.1133  0.0662
10602W        W27076  15.150  11.405  15.932 -0.0688  0.0400  0.2161
10603W        W27077   5.316  13.742   3.885  0.1012  0.3184 -0.2378
10604W        W27078  15.247  12.601  15.384 -0.1636  0.1677 -0.0983
10605W        W27079  16.798   9.390   0.017  0.1369  0.1595  0.1947
10606W        W27080   3.876  16.278   3.852 -0.1016  0.3975  0.0188
10607W        W27081   6.658  13.614   2.470  0.4064  0.1161 -0.2028
10608W        W27082  14.972   6.784  16.868  0.0316 -0.2504 -0.1437
10609W        W27083  11.469   9.286  12.805 -0.0139 -0.0661  0.1134
10610W        W27084  15.756  17.584   2.718 -0.2302  0.0276 -0.1281
10611W        W27085  15.310   4.148   1.768  0.0318  0.0876 -0.0538
10612W        W27086  11.935   0.918   2.734  0.4121 -0.0675  0.0548
10613W        W27087  17.467  10.729   4.153  0.1246 -0.0450 -0.0183
10614W        W27088  14.912  14.015  11.349  0.3088 -0.0122 -0.1145
10615W        W27089   2.441   5.653  15.527  0.0932  0.1389  0.1220
10616W        W27090   2.803  12.976   0.229 -0.2202 -0.2612 -0.0270
10617W        W27091  10.674  10.109   1.015  0.0461 -0.0541 -0.0799
10618W        W27092  11.495   5.271  11.882  0.0756  0.0661 -0.1973
10619W        W27093  12.429   4.333  16.202 -0.0617  0.1514  0.2719
10620W        W27094   3.347  13.236   0.304 -0.1432 -0.0412  0.1067
10621W        W27095   9.540   7.283  13.199 -0.1849 -0.2737 -0.1985
10622W        W27096   3.108   2.281  15.062  0.2636  0.1500  0.0494
10623W        W27097   3.569  13.921  11.535 -0.0750  0.0048 -0.1946
10624W        W27098   3.757  13.661  16.079 -0.3296 -0.2709 -0.1680
10625W        W27099   4.581  15.049  12.173 -0.0652  0.0037 -0.1333
10626W        W27100   8.684   8.714   4.967  0.0020 -0.0811 -0.2605
10627W        W27101  10.940   4.578   2.651  0.0471 -0.0437 -0.0668
10628W        W27102   7.712   9.278   0.885  0.2197 -0.0524 -0.1807
10629W        W27103  16.737  15.835   0.178  0.2303 -0.1917 -0.2054
10630W        W27104   3.028  17.746   4.866  0.1676 -0.1635  0.0182
10631W        W27105  10.479   1.340  12.755  0.0939 -0.0393 -0.0161
10632W        W27106   6.426   5.082   0.335 -0.2884  0.1126 -0.3054
10633W        W27107   3.661  15.641   1.203  0.1493  0.1513  0.2194
10634W        W27108   8.824   0.053   4.660  0.1141  0.1961 -0.0899
10635W        W27109   0.767   0.751   0.185  0.2057 -0.1330  0.2283
10636W        W27110   6.390   7.462  12.032 -0.5030  0.2754  0.0461
10637W        W27111   6.527   1.372  13.349  0.2332 -0.0947 -0.1607
10638W        W27112  10.797  15.746  12.854 -0.0266  0.0581 -0.0132
10639W        W27113  12.638   5.509   0.214 -0.2164 -0.2099  0.0280
10640W        W27114  10.383   4.923   4.685 -0.1285 -0.4114  0.3442
10641W        W27115   7.243   6.107   2.260 -0.5551 -0.0651 -0.2295
10642W        W27116   7.925  11.079   2.928 -0.1844 -0.1280  0.1459
10643W        W27117  12.525  14.477   5.282 -0.0494  0.0556  0.1053
10644W        W27118   1.605   2.631   4.297  0.0282  0.1455  0.0745
10645W        W27119   8.478  12.997  12.689 -0.1532  0.1723 -0.1069
10646W        W27120   6.676  10.596   2.672 -0.0432  0.0188  0.0269
10647W        W27121  15.952   4.141   0.939 -0.1069 -0.0954 -0.0551
10648W        W27122   1.291  14.032  10.934  0.1571  0.1287 -0.0285
10649W        W27123  13.768   9.605  14.658 -0.3799  0.0141 -0.5302
10650W        W27124  15.807   5.280   3.750 -0.0172  0.0635 -0.1219
10651W        W27125   6.657   6.166   2.244  0.2163  0.0990 -0.4007
10652W        W27126   9.716   6.082  15.362 -0.0977 -0.0630 -0.5301
10653W        W27127   7.431  17.327   0.502  0.0904 -0.0564 -0.0098
10654W        W27128   4.374   0.791   5.272  0.1415  0.0292  0.0318
10655W        W27129  16.682   3.119  16.455 -0.4598  0.2728 -0.1462
10656W        W27130   7.115  11.256   4.065 -0.0890  0.1107  0.0675
10657W        W27131  13.962   6.948  16.911  0.0853 -0.0760 -0.2378
10658W        W27132  10.030  10.882   0.128  0.3678 -0.1194  0.1936
10659W        W27133  16.215   4.648  16.073 -0.0282  0.0899  0.1493
10660W        W27134  12.635   4.430   4.644 -0.1440 -0.0435  0.3917
10661W        W27135   8.940  16.282   1.511 -0.2062  0.2187 -0.1761
10662W        W27136   7.695  10.646   2.522  0.4675  0.1995 -0.1309
10663W        W27137   2.126  14.333  16.128  0.0045  0.0251  0.0780
10664W        W27138  15.539  13.516   4.280 -0.1084  0.0170 -0.2639
10665W        W27139   7.558   4.165   1.913 -0.1892  0.0184  0.2033
10666W        W27140   5.683   1.908  14.890 -0.1133 -0.0011 -0.0124
10667W        W27141  10.048   9.880   3.915 -0.0693  0.1326  0.2675
10668W        W27142   3.234   1.228   1.619 -0.2782 -0.0293 -0.0999
10669W        W27143  14.432   4.055   2.094  0.0698 -0.0470 -0.0620
10670W        W27144   4.676   0.116  12.919  0.0926  0.1972 -0.0611
10671W        W27145   2.173   4.790  15.578  0.1659  0.2313  0.1096
10672W        W27146  11.170  16.775   4.407 -0.0621 -0.0171  0.2081
10673W        W27147   8.617   1.849  14.237  0.0296  0.0960 -0.1804
10674W        W27148  13.842   6.268  13.300 -0.3732  0.2983 -0.1339
10675W        W27149   7.381   6.486  15.292  0.0157  0.1258 -0.1108
10676W        W27150  17.380  12.372   3.224  0.0786 -0.0267 -0.0841
10677W        W27151   9.719   9.718   0.935  0.1090 -0.1649 -0.0782
10678W        W27152   4.823   8.339  13.895  0.1866 -0.0873 -0.0732
10679W        W27153   9.779  13.245  14.007 -0.0715 -0.1967  0.2150
10680W        W27154  10.754   7.569   3.879 -0.0765 -0.0888  0.0649
10681W        W27155  15.054   0.053   0.423 -0.3672  0.2564  0.1647
10682W        W27156  12.219  12.737  14.488  0.1087  0.1361  0.0716
10683W        W27157  12.921   3.846  15.806  0.0735  0.0210  0.1886
10684W        W27158  16.470   2.860  16.893  0.2091  0.0184  0.1149
10685W        W27159  16.125   5.531   1.536  0.0304  0.2331  0.1710
10686W        W27160   0.882  11.145  14.203  0.1179  0.0189  0.3298
10687W        W27161   9.504  14.615   4.360  0.2317 -0.0119  0.0005
10688W        W27162   1.014   6.792   2.925 -0.1053  0.2371  0.0874
10689W        W27163   1.635   7.786   4.315  0.0189  0.3101  0.0961
10690W        W27164  17.361   0.207   4.274 -0.2325  0.1422 -0.0662
10691W        W27165   1.256  10.151  15.079 -0.0685  0.0748  0.0056
10692W        W27166   2.720   5.965  13.601 -0.2965  0.0076 -0.3367
10693W        W27167   4.892   1.527  11.290  0.1496  0.5176 -0.1684
10694W        W27168   7.269   3.586   0.263 -0.0965 -0.0312 -0.0497
10695W        W27169  14.105   5.480   1.352 -0.1756  0.0082 -0.1869
10696W        W27170   9.769   7.418  13.694  0.0885  0.1735 -0.0600
10697W        W27171  14.797   4.515  12.977  0.2829  0.0415 -0.1039
10698W        W27172   0.446  16.429  12.769  0.0672 -0.1279 -0.2112
10699W        W27173  10.981   7.143   0.072  0.1944  0.1142  0.4483
10700W        W27174   4.382   0.133   4.075 -0.2061 -0.2350 -0.0525
10701W        W27175   5.634   7.792   4.075  0.1616 -0.2761  0.0638
10702W        W27176   3.650   2.877   3.972 -0.3951 -0.2645  0.0780
10703W        W27177  10.656   2.008  13.276 -0.1135  0.0902  0.1510
10704W        W27178  15.048  14.387  12.173  0.1123  0.1575  0.1806
10705W        W27179   2.300  14.655   3.613  0.0124 -0.2146 -0.3864
10706W        W27180   4.159  11.838  14.780 -0.0510  0.0898 -0.2761
10707W        W27181  16.450  17.203  14.542 -0.0204 -0.3586 -0.0096
10708W        W27182   3.503  10.493   3.898  0.2040  0.1374 -0.3043
10709W        W27183   3.645  15.737  15.742  0.2767 -0.0382 -0.2086
10710W        W27184   5.000   8.459   4.799  0.0878 -0.0263 -0.0696
10711W        W27185   5.442  12.471   5.826  0.1677 -0.0267  0.3524
10712W        W27186  14.712  16.979   4.421 -0.1135 -0.1078 -0.0677
10713W        W27187   2.492  14.590  12.940 -0.0370 -0.3830 -0.1654
10714W        W27188  13.371   3.565  14.679  0.3935 -0.0563 -0.1098
10715W        W27189   9.421   9.117   3.003  0.0908  0.0195  0.2945
10716W        W27190  13.687   2.563   4.393 -0.0594  0.2512 -0.1167
10717W        W27191  16.203   6.024   2.398  0.2446 -0.0135 -0.2471
10718W        W27192   2.672  14.503   0.110 -0.1617  0.0366  0.0788
10719W        W27193  12.065  17.024   5.295  0.1944  0.0236 -0.1649
10720W        W27194   6.232  10.944  14.361 -0.0390  0.2292  0.2952
10721W        W27195  12.486  15.815  12.539 -0.1746  0.1445 -0.0329
10722W        W27196   9.308  12.400  13.381  0.0249  0.3601  0.0294
10723W        W27197   8.385  11.757   4.603 -0.0359  0.0693  0.2207
10724W        W27198   2.938   5.148  16.207 -0.0318  0.0976 -0.0441
10725W        W27199   9.038   6.591   5.593 -0.1763 -0.0006  0.1281
10726W        W27200   3.170  17.624  14.086 -0.1113  0.3240  0.0171
10727W        W27201  17.628  13.538  16.325  0.0857 -0.1994  0.1713
10728W        W27202   0.450  14.039   0.816  0.0446  0.2337 -0.0864
10729W        W27203  15.830  10.111   1.132  0.2616  0.0636  0.1968
10730W        W27204   8.304   0.897  12.935 -0.0603 -0.0506 -0.1545
10731W        W27205  11.970  11.746   0.642  0.0797 -0.0604 -0.0620
10732W        W27206   5.299   5.237  16.627 -0.0388  0.2731  0.4787
10733W        W27207  16.131  12.383  12.751 -0.1227 -0.0061 -0.0376
10734W        W27208  11.191   8.574  12.990  0.3325  0.1747 -0.0532
10735W        W27209  14.222  11.341   5.239  0.1874  0.0451  0.1890
10736W        W27210   2.595   4.466  12.720 -0.0783 -0.0024 -0.1098
10737W        W27211   6.302  13.735   2.141 -0.2520 -0.3644  0.0208
10738W        W27212  11.369   0.222  11.709  0.0814  0.0585 -0.1412
10739W        W27213   3.248   2.946  16.395 -0.1306 -0.1647 -0.2760
10740W        W27214   1.320   5.020   6.357  0.2769  0.2536 -0.1704
10741W        W27215  12.926   3.723   6.158 -0.3615  0.0187  0.0710
10742W        W27216  14.097   0.822  12.004  0.0481  0.0566 -0.1437
10743W        W27217  14.391   8.593   3.227 -0.1078 -0.0764  0.2868
10744W        W27218  16.221  11.362  15.024 -0.0327 -0.2091 -0.0018
10745W        W27219  12.963  15.677   4.239 -0.0550  0.2909  0.0720
10746W        W27220  15.689   9.328  14.672  0.1367  0.2101  0.0791
10747W        W27221  16.321   6.801  13.182  0.1091 -0.1611 -0.2281
10748W        W27222   9.183  15.521  11.817  0.1641 -0.0288 -0.0418
10749W        W27223   1.691   1.256  16.254  0.1272 -0.1539  0.1938
10750W        W27224   6.090  13.224  13.316  0.4100 -0.1064  0.0923
10751W        W27225   1.769  16.378   1.984  0.0559 -0.4060 -0.1923
10752W        W27226  14.307   8.390  14.028  0.0576  0.1760  0.5995
10753W        W27227  11.194   5.741   2.448  0.0623  0.1353 -0.1050
10754W        W27228   1.773   6.246   3.190  0.2753  0.2046 -0.0709
10755W        W27229  11.879  15.916   0.384  0.1086  0.1414  0.0007
10756W        W27230   2.430   2.318   0.694  0.1446 -0.2990  0.3339
10757W        W27231   2.699  10.893   0.004 -0.1274 -0.3081 -0.1044
10758W        W27232   7.414   4.630   4.301 -0.0974 -0.4167  0.0891
10759W        W27233  14.941  11.733   2.382  0.0409  0.0940 -0.2833
10760W        W27234  15.508   2.212  16.126 -0.0895  0.1657  0.1281
10761W        W27235  11.648   2.663  14.267 -0.2054  0.0809 -0.1898
10762W        W27236  14.629   3.165  12.414 -0.2582 -0.3292 -0.0739
10763W        W27237  15.418   8.338   5.017  0.1341 -0.2750 -0.2077
10764W        W27238   8.454  13.702  13.163  0.0671 -0.3205 -0.2681
10765W        W27239   5.054   4.799   4.947  0.1496  0.0337  0.2581
10766W        W27240  10.114   4.379  16.092 -0.1687  0.0465 -0.4059
10767W        W27241   5.832   6.894   1.166 -0.2524  0.1733 -0.1489
10768W        W27242   8.219   7.951   3.635  0.0501  0.1608 -0.0208
10769W        W27243  12.679   0.736   3.525 -0.1293  0.2468  0.1604
10770W        W27244  14.829   9.053  13.837  0.0079  0.1354 -0.0411
10771W        W27245   5.101  16.649  12.714 -0.2339  0.1854 -0.1549
10772W        W27246   0.644  12.517   4.054 -0.1051 -0.2447  0.0178
10773W        W27247  11.461   4.364   2.847 -0.1125 -0.1437  0.2078
10774W        W27248   3.816   6.551   2.017 -0.1719  0.2370 -0.1196
10775W        W27249  11.907   5.267   5.634 -0.1384  0.1659 -0.0246
10776W        W27250   3.658   3.375  13.184 -0.1808  0.0481  0.0252
10777W        W27251   8.491  15.385   1.055  0.3256 -0.0337 -0.0991
10778W        W27252   8.116  15.579   2.554 -0.3736  0.2676  0.0160
10779W        W27253   6.182  11.355  14.764  0.0449 -0.0359 -0.1258
10780W        W27254   1.122   1.045  14.282 -0.1087  0.1472 -0.0074
10781W        W27255   3.776   5.372   2.502 -0.0235 -0.0665 -0.0200
10782W        W27256  13.791   9.695  15.942  0.2851 -0.0702 -0.3014
10783W        W27257   6.253  11.485  15.848 -0.0200 -0.1857 -0.2568
10784W        W27258   5.744   0.075  16.476 -0.3226 -0.0912 -0.0822
10785W        W27259   5.689  14.014   0.545 -0.0321 -0.0243  0.1002
10786W        W27260   2.083   1.975   3.715 -0.0314 -0.1697 -0.3193
10787W        W27261   4.786  12.081  16.884  0.2708 -0.1302  0.0029
10788W        W27262  15.202  15.883  12.653  0.0258 -0.0826 -0.4322
10789W        W27263   3.989   5.055  13.848 -0.0891 -0.1256 -0.1364
10790W        W27264   9.970   4.508   3.295 -0.2553 -0.1935  0.0721
10791W        W27265   4.990   2.438   4.498 -0.0462 -0.0909  0.0302
10792W        W27266  14.383  17.810   4.927  0.1105  0.1607  0.1721
10793W        W27267  12.860   0.038  15.253 -0.0955 -0.2301 -0.2486
10794W        W27268  13.371   1.774  11.588  0.1228 -0.1302  0.1319
10795W        W27269   1.820   7.192  10.968  0.1121 -0.0302 -0.3296
10796W        W27270  17.299  12.962  13.357  0.2876  0.2061  0.2070
10797W        W27271  13.094   3.606   0.812  0.0120 -0.2243  0.0572
10798W        W27272   1.001  11.522   2.278 -0.0657  0.1221 -0.0651
10799W        W27273   4.181   2.536   3.727  0.1149 -0.2358  0.0107
10800W        W27274  17.673   5.006   3.484  0.0269  0.1591  0.2094
10801W        W27275  11.011   4.726   1.728  0.0123  0.0759 -0.4389
10802W        W27276  15.456   3.011  16.629 -0.0154  0.0736  0.0644
10803W        W27277   6.983   0.509  11.546  0.1002 -0.1115  0.0759
10804W        W27278  11.373   2.451   2.498  0.0277 -0.0392 -0.0316
10805W        W27279   7.806  16.992   0.116 -0.1058 -0.0781  0.0504
10806W        W27280   5.167   7.921  15.235 -0.2636 -0.0512 -0.2323
10807W        W27281   2.848   1.430  13.602 -0.1865 -0.1806 -0.3650
10808W        W27282  17.737   7.763   5.042 -0.4536 -0.0126 -0.0892
10809W        W27283   6.435  15.757   5.135  0.2566 -0.2108 -0.1949
10810W        W27284  10.826  10.163   1.463  0.0671  0.0035  0.1420
10811W        W27285   4.845   9.554  13.948  0.2248 -0.1364  0.1095
10812W        W27286  14.646   6.527  12.718 -0.0284 -0.0027 -0.0221
10813W        W27287   3.794   5.194  12.247 -0.0711  0.0368  0.1733
10814W        W27288   6.248  12.962  15.657 -0.2386  0.1134  0.1059
10815W        W27289  17.622  12.600   4.608  0.2534 -0.1729  0.1230
10816W        W27290  17.213   1.273   4.717  0.0750  0.1933 -0.1489
10817W        W27291  12.514   3.190  15.059 -0.2089 -0.0344 -0.0469
10818W        W27292  14.893   8.839   1.586 -0.2572 -0.0967  0.1337
10819W        W27293  11.654  10.111   1.301 -0.1324  0.0579  0.0639
10820W        W27294   2.272   6.023  12.235  0.4076  0.4349  0.3140
10821W        W27295  16.657  11.218   3.587 -0.2614 -0.1506 -0.1896
10822W        W27296   4.808   2.002  13.243 -0.0347 -0.0715  0.0202
10823W        W27297  17.087   8.799   2.927  0.1699  0.0385 -0.0400
10824W        W27298   6.715  14.260   3.524  0.2205  0.2125 -0.0446
10825W        W27299   0.965  10.684  11.479  0.0189  0.2065  0.0255
10826W        W27300   0.190   9.827  15.250 -0.2134  0.1270  0.0326
10827W        W27301  14.069   1.602   2.931  0.2555  0.1096  0.0240
10828W        W27302   7.976   6.047  14.772 -0.0773 -0.1144 -0.3678
10829W        W27303  14.399  10.591  15.773 -0.2082 -0.0248 -0.0611
10830W        W27304  10.268  14.894  12.246  0.0355 -0.0299 -0.0445
10831W        W27305  17.784   0.365   3.830 -0.0097 -0.0829  0.1044
10832W        W27306   3.683   3.404   1.299 -0.0781  0.1918  0.1646
10833W        W27307  15.620  11.307   4.558  0.0561  0.4690 -0.0159
10834W        W27308   5.872   4.872   0.531  0.0780 -0.0864  0.1161
10835W        W27309   0.336  16.967   3.480  0.1220 -0.2332  0.0795
10836W        W27310   4.412   1.959   2.255 -0.0465 -0.0860  0.2681
10837W        W27311  14.466   4.241   1.165 -0.3232  0.0676  0.0849
10838W        W27312  16.996  17.507   1.292  0.2223 -0.0246  0.1674
10839W        W27313  13.641  10.850  13.253  0.0713 -0.1659  0.0820
10840W        W27314   3.170   0.162  15.044  0.0765  0.0520 -0.1144
10841W        W27315  16.209   7.056   5.315  0.2117 -0.0555  0.0069
10842W        W27316   3.849  17.543   5.466 -0.1261 -0.4711 -0.1771
10843W        W27317  14.823   1.039   4.449  0.2532 -0.1462 -0.0367
10844W        W27318   5.169   1.090   0.538  0.0377  0.1887  0.1073
10845W        W27319   9.477   2.092  15.471  0.2502 -0.0264  0.2581
10846W        W27320   5.552   0.730   0.664  0.1060  0.2742 -0.0170
10847W        W27321   7.695  13.553  14.915  0.0770  0.0550 -0.3584
10848W        W27322   9.267  12.507   0.027  0.2352  0.0622 -0.0281
10849W        W27323   7.040   2.607   4.934  0.0007  0.0121  0.1453
10850W        W27324   9.275  12.964  16.757 -0.1509  0.1986  0.0155
10851W        W27325  12.225  17.252   3.868 -0.1218  0.1080  0.0698
10852W        W27326  16.548   3.832  11.702 -0.2624  0.0210 -0.1274
10853W        W27327  15.943  12.082  12.336 -0.0168  0.0051  0.0164
10854W        W27328   8.591   1.871  12.006 -0.0299 -0.1163  0.2111
10855W        W27329  12.680   7.701   4.139  0.2460 -0.0237  0.0709
10856W        W27330   0.366   1.952   1.840  0.0879 -0.0100 -0.0681
10857W        W27331   1.889   2.020  16.887  0.1406 -0.1193 -0.0621
10858W        W27332   3.895   0.765   3.431  0.5163  0.1326  0.0039
10859W        W27333  11.192  12.874  15.385  0.0915  0.0235 -0.2641
10860W        W27334   6.635  15.397   3.957 -0.0345 -0.0612 -0.2860
10861W        W27335  13.599  14.278   0.038  0.2119  0.2061 -0.0138
10862W        W27336  12.638   1.451   2.382 -0.2092 -0.1253  0.0122
10863W        W27337  12.089   0.920   5.008 -0.1372 -0.4151  0.0037
10864W        W27338  14.266  14.735  14.724  0.3218  0.2825 -0.1371
10865W        W27339  17.466   8.860  13.942 -0.0220  0.0786 -0.1616
10866W        W27340   4.234   9.346  14.572 -0.0936 -0.1781  0.1181
10867W        W27341   5.255   9.065   3.476  0.0363 -0.1059 -0.3053
10868W        W27342  10.047   3.036  16.268  0.1205 -0.1790 -0.0509
10869W        W27343   5.923   4.293   3.794 -0.0422 -0.0443  0.0260
10870W        W27344  14.951  15.845   1.565 -0.2608 -0.0701  0.0368
10871W        W27345  13.252   7.788   1.672  0.3201 -0.0712 -0.0904
10872W        W27346  16.896   2.581  16.810 -0.1547  0.0654  0.0550
10873W        W27347   3.134  17.787  14.563  0.0462  0.0724  0.0885
10874W        W27348   3.932  12.545  11.088  0.0858 -0.0091 -0.0729
10875W        W27349  16.109   5.868   3.163 -0.4194  0.0921  0.3532
10876W        W27350   4.456   6.212   2.157  0.2217 -0.0321 -0.6213
10877W        W27351   0.638  12.462  16.323 -0.1217  0.0879 -0.0219
10878W        W27352  12.251   5.495  16.614  0.0181 -0.0927 -0.2384
10879W        W27353  11.282  17.472   4.972 -0.0673 -0.2658 -0.0733
10880W        W27354  13.718   5.409   5.926 -0.1450 -0.1994 -0.2065
10881W        W27355   7.191  12.388   0.412 -0.2486 -0.0254  0.0564
10882W        W27356  14.253   2.743   2.043  0.1173  0.0375 -0.2915
10883W        W27357  17.179   9.939  10.284 -0.1191  0.1285 -0.0077
10884W        W27358  13.440   7.499   5.405  0.2438  0.0356 -0.2431
10885W        W27359   2.925   3.169   3.346 -0.3036 -0.1255  0.0788
10886W        W27360  10.377   3.571  14.467 -0.1749  0.2010 -0.1765
10887W        W27361   1.521  16.522  11.393 -0.2997  0.3718 -0.1697
10888W        W27362  10.466  17.440   2.622  0.1012 -0.0244  0.2163
10889W        W27363   9.392  17.012   0.983 -0.0927  0.0239  0.2338
10890W        W27364  13.989  10.127  15.895  0.0312  0.1070 -0.1882
10891W        W27365  15.416   5.413  16.816 -0.2326  0.2363  0.0515
10892W        W27366  12.648  10.266  14.561  0.0991  0.1194  0.0190
10893W        W27367  14.928   6.829  15.994  0.0923 -0.1534  0.0204
10894W        W27368   4.170  17.066  16.130  0.0951  0.1679 -0.1320
10895W        W27369  14.163   9.599   3.477 -0.0244 -0.1459  0.1637
10896W        W27370  11.237   6.006  14.739  0.1411  0.2806  0.0450
10897W        W27371   7.600  11.714  14.952 -0.0587  0.2663  0.1832
10898W        W27372  16.378  17.676  15.584  0.0881  0.0322  0.0374
10899W        W27373   6.411  13.791   1.647 -0.1616  0.0863 -0.0540
10900W        W27374  15.531  12.432   2.459  0.5107  0.1125  0.0664
10901W        W27375   0.177  12.232   4.788  0.0034 -0.2237 -0.1464
10902W        W27376   9.800   1.148  13.992  0.1746 -0.1820  0.0612
10903W        W27377  13.682   7.182  16.099 -0.0486  0.1707  0.0799
10904W        W27378   9.762  11.125  12.373  0.1109  0.0385  0.1214
10905W        W27379  13.063  15.589  16.763 -0.3607  0.1552 -0.2340
10906W        W27380   1.263  15.733  11.438  0.1266 -0.1027 -0.1398
10907W        W27381   6.376  15.238   2.356 -0.3495 -0.0791  0.0038
10908W        W27382  12.182   7.266  15.082  0.3702  0.3216 -0.2081
10909W        W27383  10.793   3.008   4.543 -0.2222  0.2619  0.1491
10910W        W27384   7.245   4.913   0.886 -0.2031  0.0798 -0.1459
10911W        W27385  13.570   3.109  15.963  0.2514 -0.1530 -0.1276
10912W        W27386   1.919   8.529  16.096  0.1277  0.0153 -0.0161
10913W        W27387   4.615   2.725   3.954  0.1210  0.0975 -0.1622
10914W        W27388  16.115   3.896   1.969 -0.1762 -0.1554  0.2025
10915W        W27389   0.015  11.749   1.519 -0.0914  0.1927  0.1736
10916W        W27390   3.333  11.519  13.937  0.1535  0.0876 -0.0559
10917W        W27391  17.743   4.381  13.278 -0.4042  0.3461 -0.0246
10918W        W27392  15.384   6.335   6.453 -0.0306 -0.1557 -0.2055
10919W        W27393  11.663  15.871   1.476  0.1666  0.1084  0.0626
10920W        W27394   9.639  14.988  13.113 -0.2748  0.2002 -0.1996
10921W        W27395   9.193  11.106  12.354 -0.1852 -0.0713 -0.1293
10922W        W27396   2.558  11.823   4.006 -0.0294 -0.1107 -0.0433
10923W        W27397   0.137   6.917   4.811 -0.3032 -0.3066  0.3737
10924W        W27398   9.918   4.134   3.812 -0.1661  0.3488 -0.2133
10925W        W27399  10.387   5.868   0.378  0.2192  0.4394  0.1322
10926W        W27400  13.007  12.799   3.120 -0.4059 -0.3668 -0.0097
10927W        W27401   4.613   3.107  15.815 -0.0452  0.3839  0.2244
10928W        W27402  13.768   3.095   1.096  0.3491  0.3376 -0.2486
10929W        W27403   8.383   3.998   1.880  0.0849 -0.1017  0.3057
10930W        W27404   6.072  14.407   0.084  0.0037 -0.2454  0.3084
10931W        W27405   1.602   4.579   2.780  0.3633 -0.2258  0.0299
10932W        W27406   6.522  15.711   2.469 -0.0902  0.2246 -0.4164
10933W        W27407  13.953   3.713   5.400 -0.0034  0.3694 -0.1315
10934W        W27408   5.037   9.798   1.467  0.1010 -0.1929 -0.1716
10935W        W27409   0.692   2.371  16.614 -0.0183  0.1516  0.2479
10936W        W27410  13.345   7.586   4.900  0.2117 -0.2070 -0.0477
10937W        W27411   3.564   6.251  16.794  0.0476 -0.1047 -0.1323
10938W        W27412   3.947  16.668  12.835 -0.0893 -0.2051  0.4018
10939W        W27413  15.285   2.712   3.495  0.0351 -0.2994  0.0578
10940W        W27414   9.845   2.227   2.019 -0.0378  0.0763  0.0332
10941W        W27415   5.655   4.237   5.517 -0.0496 -0.2809 -0.2157
10942W        W27416   9.109   5.971  15.365  0.1579 -0.1132  0.0069
10943W        W27417   0.557  11.889  11.381  0.3486  0.1783  0.1260
10944W        W27418  16.164   1.363  15.935  0.2772 -0.1577 -0.1633
10945W        W27419   3.869  16.173  14.839  0.1008  0.1846 -0.1325
10946W        W27420   2.775   5.757  15.124 -0.1378  0.2701  0.0719
10947W        W27421   4.831  10.906  12.716 -0.0938 -0.1157  0.3723
10948W        W27422  14.409   1.909   2.585  0.0191  0.3842  0.2055
10949W        W27423   9.929   8.197  15.175 -0.1843 -0.0546 -0.0029
10950W        W27424  14.983   8.008  14.464  0.0925  0.3835  0.1835
10951W        W27425   6.932   5.558   1.908 -0.0526  0.2876  0.2260
10952W        W27426  16.297   4.221   3.889 -0.2212  0.0509 -0.4708
10953W        W27427  13.096  12.117   4.814 -0.1212 -0.0748  0.2205
10954W        W27428   5.695  13.932   4.168 -0.0984  0.0808  0.0485
10955W        W27429   1.853  13.453   2.148  0.1867  0.3785 -0.2961
10956W        W27430   1.504  14.060  14.778 -0.2867  0.0334 -0.1328
10957W        W27431   3.842   9.429  12.270 -0.1264 -0.1229  0.0850
10958W        W27432   4.325   3.374  14.652 -0.1986 -0.1602 -0.0727
10959W        W27433   4.021  15.911  14.050  0.0991 -0.1864 -0.2110
10960W        W27434  15.501   3.299   2.092  0.1413 -0.0370 -0.2334
10961W        W27435  17.281   4.148  11.894  0.2406 -0.1523 -0.0054
10962W        W27436   2.008  11.760   0.217 -0.1150  0.2177 -0.0504
10963W        W27437   5.288   5.701  12.135  0.1397  0.1134  0.0456
10964W        W27438   4.662  11.547  11.864 -0.1577 -0.2710 -0.1342
10965W        W27439   6.003   4.777   1.047  0.0256 -0.2844 -0.2917
10966W        W27440  13.702   5.490   3.278 -0.1857  0.1149  0.1341
10967W        W27441  16.408  11.027   4.145 -0.1687 -0.1889  0.1969
10968W        W27442   4.169  16.397   2.152  0.1538 -0.0004  0.0670
10969W        W27443  15.354  15.071  14.046 -0.3089 -0.0896  0.0094
10970W        W27444  11.614  11.167   4.534 -0.1236 -0.3016 -0.1516
10971W        W27445   0.784   1.543   3.991 -0.1699 -0.1313 -0.1772
10972W        W27446  12.299  15.968  13.834  0.1389  0.0856  0.1724
10973W        W27447   6.678   4.848  13.156  0.0758 -0.2417 -0.1455
10974W        W27448  13.325   7.217  16.528 -0.1608  0.0767  0.1853
10975W        W27449  12.399  16.982   1.021 -0.2010  0.2065  0.1470
10976W        W27450  16.715  17.663  14.060  0.1203 -0.1371 -0.2707
10977W        W27451  14.510  12.455  13.551  0.0560 -0.2138 -0.1312
10978W        W27452  15.255  10.112   2.760 -0.2133 -0.1422  0.0696
10979W        W27453   6.920  16.053   5.099 -0.1752 -0.0518 -0.2860
10980W        W27454  16.545   7.459  13.826 -0.0384  0.1369 -0.0804
10981W        W27455   4.411   3.400   0.157  0.0398 -0.1664 -0.1727
10982W        W27456   9.223   1.220   4.345  0.0240  0.2993 -0.1165
10983W        W27457   3.532  11.972  12.125  0.0300  0.0618  0.1364
10984W        W27458   1.256   7.080   2.506  0.0841 -0.0019 -0.1237
10985W        W27459   6.913  17.706  12.832  0.0038  0.0955  0.0307
10986W        W27460   0.023  17.124  14.621  0.1284 -0.2680  0.0761
10987W        W27461   0.328   8.984  13.228  0.0997  0.2011  0.0245
10988W        W27462   7.852   8.694  15.977  0.1387 -0.2479 -0.2363
10989W        W27463  10.186   5.311  11.962 -0.1391 -0.1893 -0.0945
10990W        W27464  13.517  15.162  14.875 -0.0875  0.0471 -0.1793
10991W        W27465  13.371  16.272  13.583 -0.0637 -0.0190 -0.3987
10992W        W27466   6.166  15.325   1.904  0.0348  0.1528  0.2324
10993W        W27467  16.744  13.510   1.400  0.3328  0.3016 -0.3577
10994W        W27468  15.327   5.395   3.593 -0.1744  0.1760 -0.0689
10995W        W27469  10.611  12.197   1.072  0.1749  0.1880  0.1023
10996W        W27470   4.328  16.590  14.892 -0.0062 -0.3781  0.0411
10997W        W27471  16.227  10.005  16.343 -0.4118 -0.3492 -0.0888
10998W        W27472   6.798  12.146  13.765 -0.0351 -0.1072  0.0161
10999W        W27473  16.080   6.760   3.575 -0.2075 -0.0746 -0.3791
11000W        W27474  13.410   9.342  12.012 -0.1931  0.1779 -0.0090
11001W        W27475   8.588   4.172   3.615 -0.0523 -0.1161  0.0405
11002W        W27476   6.150   4.876  15.128  0.0384 -0.1320 -0.1236
11003W        W27477   0.869   7.396   2.488 -0.1015 -0.4021 -0.0840
11004W        W27478  14.384   1.580  13.194 -0.0249  0.1539  0.1139
11005W        W27479  17.732  13.435   2.367 -0.0288  0.1495  0.0655
11006W        W27480  13.715  16.923   0.741  0.0063  0.2368 -0.1053
11007W        W27481  11.003  12.729   2.540 -0.0373  0.0150  0.0242
11008W        W27482   0.540   8.302  14.232  0.0434 -0.4763  0.0436
11009W        W27483   7.606   8.451  12.484 -0.1077 -0.0790 -0.0611
11010W        W27484  12.331  14.653   2.075 -0.0060  0.0217  0.1958
11011W        W27485   0.570   3.841  13.218 -0.2176 -0.0738 -0.0472
11012W        W27486   5.838   0.439   5.609  0.0961  0.0329  0.1290
11013W        W27487   2.926   1.643   4.405 -0.1653 -0.0663 -0.3457
11014W        W27488   0.102   6.275   1.247  0.0339 -0.1151 -0.0179
11015W        W27489  16.212  11.866   0.553 -0.1783  0.0966  0.3097
11016W        W27490   9.604   3.302   5.222  0.0827  0.0353  0.2104
11017W        W27491  11.706   0.699  16.485  0.0563  0.2703  0.1191
11018W        W27492   7.769   9.393  11.834  0.0847 -0.1429 -0.0486
11019W        W27493   3.995  10.876  11.131 -0.0704 -0.1404 -0.0951
11020W        W27494   0.111   0.415   1.399  0.3031  0.4032  0.0225
11021W        W27495  10.621   7.752   2.979  0.1544  0.1602 -0.1450
11022W        W27496   6.666   0.295  15.342  0.1194  0.4130 -0.1574
11023W        W27497  14.947  13.211   4.644 -0.1844 -0.1148 -0.0156
11024W        W27498   6.310  12.146   5.638 -0.0297 -0.0480  0.1791
11025W        W27499   5.879  10.993  16.111 -0.0751 -0.0591 -0.3103
11026W        W27500  12.200   4.814  16.052 -0.2914  0.1215 -0.1234
11027W        W27501   7.861  12.789   1.916 -0.2008 -0.5400  0.3483
11028W        W27502   0.181   3.353   0.115 -0.0174  0.2379 -0.0995
11029W        W27503   3.025  11.291   4.840 -0.1753  0.2213 -0.1773
11030W        W27504   9.050   4.508  11.854 -0.0839 -0.0191 -0.1489
11031W        W27505  16.679   5.485  11.916 -0.1575  0.0804  0.0257
11032W        W27506  17.512  15.793   1.325  0.1774 -0.0028 -0.1172
11033W        W27507  17.246   0.682  12.726  0.0247  0.0643 -0.1427
11034W        W27508  12.155   4.682   3.595  0.0505 -0.0029 -0.0714
11035W        W27509   8.536   0.517   1.907 -0.1894  0.2101 -0.0163
11036W        W27510   0.110  11.793   2.473  0.0326 -0.1618 -0.0643
11037W        W27511   8.670   2.808  16.903 -0.1747 -0.0558 -0.1143
11038W        W27512  14.400  10.750   1.934 -0.0834  0.3220 -0.0733
11039W        W27513  11.659   0.007  12.130 -0.0780 -0.0534  0.3455
11040W        W27514  17.295   4.285   0.924  0.0054  0.0654  0.1801
11041W        W27515   8.988   6.406  15.049 -0.0802  0.3004 -0.0826
11042W        W27516   4.622  11.280  13.557 -0.2470  0.1402  0.0223
11043W        W27517   8.996  12.496  15.378 -0.1799 -0.1161 -0.0668
11044W        W27518   2.240  15.016  16.621  0.0074 -0.4061 -0.0349
11045W        W27519   0.136  15.113   4.789  0.1593 -0.0138 -0.1644
11046W        W27520   4.989  15.327  13.028 -0.2380  0.0567  0.3532
11047W        W27521  16.891  14.277   3.234 -0.0374  0.0023 -0.0620
11048W        W27522  16.979   9.773  16.597  0.0774 -0.2475  0.2984
11049W        W27523  10.373  11.118  11.644 -0.3182  0.0444  0.0102
11050W        W27524   2.708   3.054  12.956 -0.1034  0.0838 -0.1821
11051W        W27525  16.533   6.522   3.800 -0.0559 -0.2719  0.0801
11052W        W27526  12.295  16.105   4.239  0.3384  0.1112 -0.0565
11053W        W27527  11.671   5.682   1.421 -0.0649  0.1042  0.4435
11054W        W27528  10.703   3.512  16.251  0.1354 -0.1464  0.0210
11055W        W27529  10.696  12.911  12.381 -0.0470 -0.0548 -0.0447
11056W        W27530  17.435   7.436   1.035 -0.2343  0.1080 -0.0021
11057W        W27531   6.635  15.910  11.447 -0.2008  0.0098  0.2161
11058W        W27532  11.726   8.339   4.865  0.1397  0.0952 -0.2013
11059W        W27533  15.594  11.892  14.379 -0.2845 -0.0212  0.0646
11060W        W27534  15.747   5.534   3.309  0.0557 -0.1942 -0.2633
11061W        W27535   5.522  16.306   0.112 -0.0308 -0.2118  0.0677
11062W        W27536  13.018   2.787  12.217 -0.0778 -0.0487 -0.0767
11063W        W27537   3.100   7.920   1.411  0.0985  0.0678 -0.2173
11064W        W27538   5.145   3.712  14.351 -0.0442  0.1418 -0.0834
11065W        W27539  11.586   4.295   1.514  0.3862  0.0405 -0.0406
11066W        W27540   8.117   9.024  11.801  0.0036  0.2198 -0.0264
11067W        W27541  11.682   4.101   2.520  0.5224 -0.0457  0.0854
11068W        W27542   9.081  17.048  13.103  0.1984 -0.0724  0.1634
11069W        W27543  17.419   9.374   2.303  0.1158 -0.1589 -0.1412
11070W        W27544   6.112   4.680   0.189 -0.1262 -0.3152 -0.2531
11071W        W27545   8.611   2.861  12.154  0.1515 -0.1025  0.0517
11072W        W27546   5.669  11.125   3.502 -0.0261 -0.0893  0.0018
11073W        W27547   0.563  14.283  14.637 -0.0513 -0.2355  0.2184
11074W        W27548  15.871   6.439   2.448  0.3176 -0.0314 -0.0918
11075W        W27549  17.732   3.266   5.880  0.3824 -0.0129 -0.0866
11076W        W27550  16.055   4.070   6.073 -0.1063 -0.0247  0.2191
11077W        W27551   1.544   1.368   3.920 -0.1375  0.1425  0.2970
11078W        W27552   1.312  14.950  14.328  0.1200 -0.1769 -0.3595
11079W        W27553   5.025  11.688  12.167 -0.0469  0.0456 -0.1985
11080W        W27554  14.558   6.035  12.784  0.1218 -0.2167  0.0515
11081W        W27555   5.066   8.455   0.329 -0.1627  0.0929  0.1195
11082W        W27556   2.930  12.389   3.114  0.0240  0.2173 -0.2906
11083W        W27557  10.522   8.262   4.691  0.0240 -0.0408  0.1909
11084W        W27558  16.122  13.579  16.199  0.1119  0.1256 -0.0798
11085W        W27559   0.953   6.919  14.849 -0.1836 -0.0630  0.3270
11086W        W27560   5.650   7.851  14.536 -0.1999 -0.2159 -0.0284
11087W        W27561  11.868   4.737  15.580 -0.0350 -0.1213 -0.0952
11088W        W27562  16.335   9.063   0.169  0.0171  0.1824 -0.0689
11089W        W27563  12.393  12.715   4.275 -0.1156  0.0645  0.0587
11090W        W27564   4.259   9.848   3.732 -0.3490 -0.1117 -0.0776
11091W        W27565   8.504  17.440  16.692 -0.0344 -0.0812 -0.0159
11092W        W27566  16.391   8.491  15.458 -0.1062  0.4104  0.4912
11093W        W27567  13.312  12.152   1.906  0.4128 -0.2256 -0.0581
11094W        W27568   2.135   3.102   3.600 -0.2584  0.2669 -0.1562
11095W        W27569   3.758   5.466   1.265 -0.2109  0.1322  0.0395
11096W        W27570   1.532   5.428  15.439 -0.1544 -0.2752  0.0212
11097W        W27571   1.336   2.432   3.933  0.2147  0.1629  0.0380
11098W        W27572   0.644  10.212   4.116  0.2312 -0.0586  0.0164
11099W        W27573   3.356  14.579   4.067  0.0590  0.0543 -0.0502
11100W        W27574  15.913  16.363   5.104 -0.1328  0.5577  0.0858
11101W        W27575  15.622   5.342   5.052  0.0095  0.1043 -0.0415
11102W        W27576  10.943  16.312   4.417 -0.0451 -0.0640 -0.0137
11103W        W27577  16.033  14.706   3.204  0.2061  0.1559 -0.0025
11104W        W27578   5.917   9.520   3.110 -0.2398 -0.0623 -0.0067
11105W        W27579   4.122  14.047  15.247 -0.0114  0.2236  0.1703
11106W        W27580   0.466   6.878  15.735 -0.3117 -0.1153 -0.1217
11107W        W27581   8.145  15.388  15.139 -0.0047  0.1794 -0.0897
11108W        W27582  14.900   4.142  16.327  0.3114  0.4023 -0.0554
11109W        W27583  12.536   1.247  16.440 -0.2350  0.0064 -0.0486
11110W        W27584   5.792  12.060   1.494  0.1618 -0.0841 -0.0394
11111W        W27585  13.847   8.843   0.743 -0.1276 -0.4775 -0.0809
11112W        W27586   7.704   4.095   1.101  0.2979 -0.1688  0.1814
11113W        W27587   6.316   3.019  14.512 -0.0228  0.0323 -0.1425
11114W        W27588  11.172  13.349  14.964 -0.0332  0.0011 -0.1536
11115W        W27589  15.625  14.682  13.308 -0.2760  0.1608 -0.0422
11116W        W27590  15.266  12.764   3.718 -0.1558  0.1568 -0.0448
11117W        W27591   7.367   0.758  16.540  0.0554 -0.2238  0.0962
11118W        W27592  11.244   1.233  14.469 -0.2090  0.1541  0.2307
11119W        W27593   7.422  12.894  14.094  0.1200  0.0557  0.2716
11120W        W27594   9.801   1.896   0.996 -0.2144  0.0589  0.0820
11121W        W27595   4.980   3.078   1.710 -0.1453 -0.1417  0.2116
11122W        W27596  16.515   7.987   2.867  0.2190  0.4139 -0.1884
11123W        W27597   8.432   8.528  14.343 -0.4716 -0.0349 -0.4375
11124W        W27598  15.110   2.539   1.113 -0.1968 -0.1158 -0.2246
11125W        W27599   1.945  14.254  13.598 -0.1699  0.1193  0.4743
11126W        W27600   4.343  12.896  14.201 -0.0553 -0.0109  0.1010
11127W        W27601  10.445   7.658  12.191 -0.0324  0.2206 -0.1114
11128W        W27602   8.249  14.450   5.744  0.1051 -0.3673 -0.0207
11129W        W27603   6.989   7.418  15.440  0.0857 -0.1230  0.1417
11130W        W27604  11.824  12.258  12.618  0.1116  0.0605  0.0400
11131W        W27605   9.263  13.263   2.852 -0.1747 -0.1473  0.1466
11132W        W27606  11.956  11.660  12.028  0.2249  0.0943 -0.0534
11133W        W27607  11.678  11.489  11.344 -0.1322 -0.1414  0.2225
11134W        W27608   9.361   2.862   5.977  0.1220  0.2161  0.0411
11135W        W27609  13.303  15.841  13.819 -0.0687 -0.2047  0.1264
11136W        W27610  10.579  11.127  12.095  0.0327 -0.0920  0.0689
11137W        W27611  17.712  10.300   1.772 -0.1011 -0.0983 -0.0501
11138W        W27612  14.122   3.397   4.779  0.0858 -0.1757 -0.1130
11139W        W27613  11.163   5.731  11.813 -0.1428  0.1695 -0.0604
11140W        W27614   8.577  11.936   0.934  0.0546 -0.1109  0.0048
11141W        W27615   6.138   2.871  15.184  0.1625 -0.0582  0.1776
11142W        W27616   6.972   7.731   5.042  0.0829  0.0825  0.0169
11143W        W27617   8.717   8.451  15.907  0.0865 -0.0543 -0.0569
11144W        W27618   6.757  13.235  15.787 -0.0750 -0.0352 -0.3361
11145W        W27619   4.066  14.992  16.512 -0.2146 -0.1947 -0.0881
11146W        W27620  13.726   4.525   4.287 -0.1212 -0.1672  0.0203
11147W        W27621   5.640   8.047  11.069  0.0288 -0.0444  0.1849
11148W        W27622  10.217   6.071  16.633 -0.0526  0.0629 -0.4279
11149W        W27623   3.883  12.595   2.009 -0.2436 -0.1538 -0.0728
11150W        W27624   0.896   5.225   2.866  0.1549  0.0159  0.1562
11151W        W27625  10.015  16.604   1.577  0.2249  0.2114  0.1536
11152W        W27626   9.163   4.567  12.989 -0.0134 -0.1910 -0.0439
11153W        W27627  16.584  16.114   1.374 -0.2094  0.1652  0.0738
11154W        W27628   3.955   6.453   3.454 -0.3114 -0.4328  0.3140
11155W        W27629   6.844   9.913  12.207 -0.2653 -0.0852  0.3676
11156W        W27630  13.252  14.492   2.478 -0.2769 -0.2825  0.0184
11157W        W27631   5.773   8.021   4.555  0.0638 -0.0162  0.4202
11158W        W27632  11.662  17.374  15.514 -0.3652  0.3283 -0.0292
11159W        W27633  10.692  15.169  12.442 -0.1732  0.1171 -0.2669
11160W        W27634   2.186   4.989  12.072 -0.0553 -0.2940  0.1531
11161W        W27635   4.610  15.576  13.258 -0.2280 -0.0040  0.0120
11162W        W27636  17.392   4.871   0.992 -0.0439  0.1351  0.1418
11163W        W27637   1.632   9.787  14.280  0.1686  0.2510  0.3588
11164W        W27638   0.429  10.629   5.048  0.0118  0.2922  0.0126
11165W        W27639  12.080  14.704  14.219 -0.1062  0.1176  0.0595
11166W        W27640  13.319   5.793   4.913 -0.0006 -0.0599 -0.0492
11167W        W27641   5.135  14.020   1.145  0.1470 -0.0403 -0.1154
11168W        W27642   8.307  10.018   3.039  0.0029 -0.0352  0.2029
11169W        W27643   8.259   4.704   2.351  0.0939  0.1473 -0.2090
11170W        W27644   7.676  13.386  14.364 -0.1018  0.2870 -0.0813
11171W        W27645   6.259  15.883   0.757  0.0915 -0.0304 -0.1984
11172W        W27646   0.590   7.346   5.365 -0.0119  0.0326 -0.2392
11173W        W27647   4.020   2.413   2.369 -0.0122  0.3231 -0.2620
11174W        W27648   4.009   6.950  13.459  0.0239 -0.0507 -0.4578
11175W        W27649  12.722  11.615   1.375 -0.0922  0.1308  0.0168
11176W        W27650  14.503  17.052   1.744 -0.2216  0.0312  0.0443
11177W        W27651  14.083  12.467  16.702 -0.0331  0.2932  0.0896
11178W        W27652   6.227  11.543   2.824  0.1580  0.0473 -0.2953
11179W        W27653  11.859  11.486   5.736  0.0471 -0.2929  0.3881
11180W        W27654   4.168   8.296   4.106 -0.1336  0.1045  0.0350
11181W        W27655  12.623  10.215   5.150 -0.2006  0.0520  0.0209
11182W        W27656   7.693  16.393   0.698 -0.0095 -0.1203  0.0151
11183W        W27657   3.587   9.871  14.865 -0.0163  0.0754 -0.0329
11184W        W27658   7.462  10.704  15.323  0.1690  0.1123 -0.0824
11185W        W27659   4.403   4.135  14.214 -0.1801 -0.4397 -0.0023
11186W        W27660   8.855  16.116  13.289 -0.1490  0.2267  0.1752
11187W        W27661  12.702   0.493  13.036  0.0524  0.0218 -0.3047
11188W        W27662  11.121  14.995   4.119 -0.2183 -0.0251 -0.3635
11189W        W27663   6.784   0.325   1.783 -0.1268  0.3023 -0.0705
11190W        W27664   2.413   5.264   2.933  0.1165  0.0867 -0.1355
11191W        W27665  16.049  14.215  16.819  0.0333 -0.0535  0.2019
11192W        W27666   3.995  12.030   1.866 -0.1125 -0.2640 -0.0353
11193W        W27667  16.393  11.823  15.217 -0.1353 -0.0963  0.2304
11194W        W27668   8.451  11.230   4.085 -0.2072 -0.3685  0.2857
11195W        W27669   9.906  12.723   5.097  0.2952  0.0832 -0.2762
11196W        W27670  16.487   2.254  16.647 -0.2941  0.0356 -0.0337
11197W        W27671   9.754   6.946  16.594  0.0639 -0.2324  0.2815
11198W        W27672   8.321   9.774   3.525 -0.0971 -0.1624 -0.0941
11199W        W27673  17.083   9.294  14.014 -0.1593 -0.0036 -0.0007
11200W        W27674   9.883  14.267  14.031 -0.3345 -0.0844 -0.1340
11201W        W27675   2.664  10.329  14.753  0.1845  0.1101 -0.0035
11202W        W27676   7.383   2.777   0.933 -0.0592  0.1410  0.0514
11203W        W27677  16.480  15.604  13.574 -0.0514 -0.0795  0.0267
11204W        W27678  12.829  13.468   3.950 -0.0533 -0.2800 -0.2576
11205W        W27679   4.128  16.266  14.466  0.1372  0.0867 -0.0235
11206W        W27680   1.100   2.079  13.512 -0.0310 -0.1834 -0.1990
11207W        W27681  14.191  15.678   2.719 -0.1128 -0.0065  0.2527
11208W        W27682  13.578   9.439   4.516 -0.0149 -0.0057  0.0025
11209W        W27683  11.846   4.500   5.303  0.0263  0.1912 -0.1057
11210W        W27684   7.332   8.507   5.216 -0.0980 -0.0031  0.0895
11211W        W27685  14.818  13.811   1.992  0.0693 -0.1057  0.0853
11212W        W27686   8.110   5.785  16.509 -0.0100  0.0580 -0.2458
11213W        W27687  16.554  14.076  16.044  0.1969  0.0845 -0.5697
11214W        W27688   0.504  10.288  15.575 -0.0499  0.2885 -0.2034
11215W        W27689  12.764   0.901   4.066 -0.1089  0.0471 -0.5479
11216W        W27690  11.390   9.535   4.678 -0.2034 -0.4371  0.0250
11217W        W27691   5.804  12.814   0.234  0.0914  0.0479  0.1706
11218W        W27692   8.705  11.031  12.414 -0.0916  0.1001  0.0824
11219W        W27693   9.881  12.643  12.120  0.1011  0.0727 -0.4216
11220W        W27694   6.756  13.162   4.121  0.2238 -0.1701  0.0137
11221W        W27695   0.930   1.865   1.213 -0.0092 -0.0870 -0.2787
11222W        W27696  12.172   8.152  13.648 -0.0195  0.6317 -0.2128
11223W        W27697   1.410  10.239   0.319 -0.1719 -0.2147 -0.0063
11224W        W27698   6.884   5.671   2.942  0.0969  0.0641 -0.0490
11225W        W27699   7.042   1.318   5.510 -0.1658 -0.0770 -0.0379
11226W        W27700   0.491   1.617  11.357  0.0777  0.1577 -0.0699
11227W        W27701  16.199  11.795  14.776 -0.1732  0.0622 -0.2991
11228W        W27702  12.433  14.755  13.415  0.4065 -0.1992  0.2657
11229W        W27703  12.135  11.252  14.654  0.0309  0.0223 -0.0793
11230W        W27704   1.272  13.794   0.565 -0.0090  0.1664  0.2734
11231W        W27705   8.784  16.835   4.736  0.2909 -0.2601  0.0410
11232W        W27706   4.946  10.155   1.115 -0.2498 -0.1663  0.2818
11233W        W27707   1.299  11.701  15.754 -0.0353 -0.0139 -0.0936
11234W        W27708   8.113   2.905  16.815  0.2386 -0.2390  0.1436
11235W        W27709   1.549   9.940  15.889  0.2991  0.1177 -0.0013
11236W        W27710   0.697   7.624  15.410 -0.2460 -0.1900  0.1305
11237W        W27711   6.454   8.939  16.645  0.0431  0.2442  0.1396
11238W        W27712   1.066  13.198  12.797  0.1544 -0.1336 -0.1951
11239W        W27713   3.690  16.946   0.721 -0.0032  0.3077  0.1001
11240W        W27714  12.298  16.209  12.889 -0.0318  0.0552  0.0468
11241W        W27715  12.048   0.740   1.783  0.3547  0.0279  0.1703
11242W        W27716  15.883   0.328  13.905  0.1657  0.2774  0.1739
11243W        W27717  17.297  11.412  14.472  0.2438 -0.0684  0.0295
11244W        W27718  14.057  10.631  13.548  0.1037  0.1457 -0.0356
11245W        W27719   9.807  17.179  11.597 -0.0232  0.1034  0.2511
11246W        W27720  13.003  13.523   2.148 -0.0510 -0.2568 -0.0952
11247W        W27721  16.766  12.101  11.526  0.4450  0.2231 -0.1110
11248W        W27722  14.232   9.442   5.699  0.1403 -0.0409 -0.1500
11249W        W27723  15.762  13.083  16.752  0.1957  0.2225 -0.1054
11250W        W27724  10.697   9.320   2.551 -0.0481  0.0734  0.2186
11251W        W27725  10.495  11.888   0.152 -0.0548 -0.1252 -0.0607
11252W        W27726   8.323   4.653  13.227  0.4244  0.2687  0.0076
11253W        W27727  14.528   8.335   0.158  0.2367 -0.0649 -0.1681
11254W        W27728  13.342  10.764  16.856 -0.2523 -0.1835 -0.0291
11255W        W27729   6.915  14.221  15.019 -0.0614 -0.1310  0.0006
11256W        W27730  10.919  15.955  14.450  0.2153  0.2197 -0.0888
11257W        W27731  17.049   1.531  13.168  0.0268  0.4395  0.1059
11258W        W27732   4.526   0.703   0.968 -0.0547  0.1977 -0.0183
11259W        W27733   5.008   5.397   0.636  0.1617  0.1158  0.0961
11260W        W27734   9.994   5.753  12.016  0.0458  0.0747  0.0404
11261W        W27735   6.172   6.332   6.227  0.2073 -0.4102  0.2682
11262W        W27736  11.312  11.829   4.014 -0.0219 -0.0235  0.0111
11263W        W27737  13.537  14.139   1.062 -0.0987  0.0348  0.0039
11264W        W27738  17.166  16.102   4.666 -0.0420 -0.0534  0.2762
11265W        W27739   3.369   7.460   4.191 -0.1795 -0.1980 -0.1752
11266W        W27740   2.539  15.644  14.530  0.0248  0.1129 -0.1018
11267W        W27741   4.345   0.081  16.304  0.0067 -0.1936 -0.0807
11268W        W27742  11.036  10.179  14.890 -0.1650  0.1480  0.2069
11269W        W27743  11.621   6.630  16.462 -0.0394 -0.1888 -0.1472
11270W        W27744  15.226  15.593  12.240  0.1070  0.0660  0.0742
11271W        W27745   7.902   1.087   2.529 -0.0092  0.3139  0.0804
11272W        W27746  11.411  10.385   5.008 -0.1563 -0.0272  0.0184
11273W        W27747   0.920  16.592  13.612  0.1204 -0.0195 -0.1549
11274W        W27748  16.538  14.515   2.762  0.1281 -0.0289  0.0216
11275W        W27749  13.975  13.571  13.469 -0.5130  0.2102  0.0048
11276W        W27750  16.092   6.159  15.002  0.0337 -0.0250 -0.0301
11277W        W27751   2.320   7.605  15.388 -0.3764  0.0019  0.3322
11278W        W27752   1.318  11.148  11.368 -0.2038 -0.0023  0.0297
11279W        W27753   9.637   5.747   4.088 -0.2574 -0.2195 -0.1207
11280W        W27754  12.822   1.467  15.072  0.0822  0.2013  0.0082
11281W        W27755  10.761   8.594   3.144  0.0154  0.3826 -0.2756
11282W        W27756  15.860   6.042  15.449 -0.1728 -0.0655  0.1646
11283W        W27757  14.712  17.605  15.633 -0.0124  0.1779 -0.0405
11284W        W27758   2.775   3.897   5.461 -0.1335 -0.0259  0.0538
11285W        W27759   8.087  17.256   0.791  0.0133 -0.1907  0.0463
11286W        W27760   7.115  12.133   0.892 -0.2916 -0.0968 -0.3326
11287W        W27761  14.656   1.690   5.166 -0.2567  0.0735  0.2120
11288W        W27762  10.866  14.088   0.597 -0.0338 -0.0662 -0.2168
11289W        W27763   0.385  15.603   0.213  0.1119  0.0185 -0.2952
11290W        W27764  14.911  12.489   0.875 -0.0816  0.1306 -0.3423
11291W        W27765   5.854   2.818   4.135 -0.0533  0.2111 -0.2929
11292W        W27766   6.614   1.112   2.120  0.3228  0.1938 -0.1981
11293W        W27767  17.813   0.809   0.051  0.0905 -0.2832 -0.0223
11294W        W27768   9.716   5.139  12.106 -0.2032  0.2026 -0.1215
11295W        W27769   7.427   0.157   2.927  0.0132  0.0296  0.3668
11296W        W27770  11.399   3.049  11.529 -0.0019 -0.2036 -0.3337
11297W        W27771   3.496   4.116   0.066 -0.3127 -0.0626 -0.2201
11298W        W27772   9.544   7.289   2.743  0.0103  0.0973 -0.0008
11299W        W27773   9.554   9.116  13.878  0.2666 -0.1325  0.1229
11300W        W27774   1.673  12.569  15.627  0.1411 -0.1265 -0.2495
11301W        W27775   5.550  12.490   1.400 -0.1315  0.1332  0.2107
11302W        W27776   5.273   1.179   4.156  0.0535 -0.1845  0.1950
11303W        W27777  13.447   9.524  13.957 -0.2329  0.1822  0.1702
11304W        W27778   8.151   4.187  13.868 -0.1140 -0.0775 -0.2327
11305W        W27779   0.201   0.399  10.857  0.1563  0.0468 -0.0821
11306W        W27780  14.854  16.215   3.275  0.1506 -0.1285 -0.2975
11307W        W27781  12.657   0.508   1.147 -0.0102 -0.2482 -0.1233
11308W        W27782   3.990  17.222   2.348 -0.1225  0.0433 -0.0623
11309W        W27783   3.602  13.921   2.318 -0.0978  0.0326  0.0836
11310W        W27784  12.364  13.796  16.774 -0.3700 -0.1386  0.2166
11311W        W27785  16.192  10.263  13.801  0.0710  0.0723  0.0189
11312W        W27786   4.510   4.561   5.438  0.1108 -0.1705  0.1638
11313W        W27787  14.554   6.179   2.659 -0.1287 -0.1356  0.0674
11314W        W27788  12.110  15.069   3.786 -0.0233 -0.4049 -0.3105
11315W        W27789   2.760   6.673   2.812  0.0933  0.0614 -0.0061
11316W        W27790   6.432  17.582  16.101 -0.0798  0.0650  0.0101
11317W        W27791   9.960   4.943  15.407 -0.1885  0.2121 -0.2607
11318W        W27792  12.263   7.604  15.654  0.0704  0.1552 -0.1736
11319W        W27793  12.283   0.689   3.139  0.0741 -0.0505 -0.0756
11320W        W27794  13.212   1.263  11.815  0.2084  0.1126 -0.2022
11321W        W27795  13.818  16.192  13.339  0.2908  0.0578  0.0009
11322W        W27796  12.913   7.128  15.292 -0.0665 -0.0527 -0.0445
11323W        W27797   2.708  10.996   0.499 -0.1172 -0.0766 -0.1685
11324W        W27798   9.281  10.659   0.688  0.1302  0.0997  0.0012
11325W        W27799   3.961   9.805   2.329  0.3191  0.3719 -0.1475
11326W        W27800   4.906  13.041   1.203  0.3497 -0.1166 -0.3294
11327W        W27801   4.908   1.925   4.668 -0.2166 -0.1807 -0.1767
11328W        W27802  10.056   8.269   5.357  0.1778  0.3639 -0.1823
11329W        W27803  12.316  12.057   3.068  0.1822 -0.0783 -0.1848
11330W        W27804   2.161  16.870  15.164 -0.0061  0.1765 -0.1419
11331W        W27805  11.172  14.889   0.444 -0.0768  0.1464  0.0382
11332W        W27806   1.156   2.201   0.533 -0.0904 -0.3175  0.2457
11333W        W27807  14.599  10.424  16.707 -0.2981 -0.2612  0.1584
11334W        W27808   9.490   0.935   0.624  0.3672  0.1284 -0.1030
11335W        W27809  12.155   7.636   2.415  0.2998 -0.1532 -0.1992
11336W        W27810   4.260  10.198   0.608 -0.0173 -0.2096  0.0093
11337W        W27811   8.087  16.189   0.493 -0.0402 -0.1703  0.1086
11338W        W27812   4.547   2.256  14.771  0.2019 -0.2571  0.1077
11339W        W27813   7.867  14.953   1.813  0.1693 -0.2112 -0.0557
11340W        W27814   6.164   5.036   4.157  0.0912 -0.1871 -0.0609
11341W        W27815   2.874   6.889  14.867  0.0573  0.0358 -0.1396
11342W        W27816   5.484   5.018   4.744 -0.0355  0.3864 -0.0786
11343W        W27817   5.941   3.837   0.356 -0.2181  0.1593  0.0944
11344W        W27818   7.787   1.677  12.894  0.0881 -0.0247  0.1474
11345W        W27819   1.468  15.598  15.075  0.3721  0.0029 -0.2773
11346W        W27820   2.033  14.250   0.363  0.0146 -0.1404 -0.1163
11347W        W27821  14.693  15.704   1.201  0.1809  0.0286  0.1657
11348W        W27822  15.323   2.711   2.121 -0.2692 -0.0214 -0.2762
11349W        W27823   2.513   3.806   3.562  0.0815 -0.0141 -0.0740
11350W        W27824   7.503  13.277  11.937  0.1083 -0.0721  0.1063
11351W        W27825  16.499  16.542   1.615  0.2321  0.0521 -0.1244
11352W        W27826   9.988  10.257  11.702 -0.0391  0.1303  0.0247
11353W        W27827   2.958   6.000  13.196 -0.0699 -0.2296  0.0395
11354W        W27828   1.320   6.774   1.017 -0.1041 -0.0154 -0.2253
11355W        W27829   7.484   0.417  13.008 -0.3282 -0.0453 -0.3076
11356W        W27830  12.622   3.188  16.915  0.0423 -0.1066 -0.1571
11357W        W27831  17.083   5.037   2.427 -0.2325 -0.2240  0.0600
11358W        W27832   4.458  13.171   1.361 -0.0207 -0.0808 -0.0960
11359W        W27833   3.261   2.758  15.260 -0.1848 -0.0198 -0.1317
11360W        W27834   3.006  14.893  12.047 -0.0400 -0.3632 -0.0693
11361W        W27835   2.765  13.486   1.561 -0.1423 -0.4041 -0.1506
11362W        W27836   8.348  17.627  10.119  0.0627 -0.1959 -0.2803
11363W        W27837   3.706  12.471  12.022 -0.0009 -0.0310  0.1730
11364W        W27838  10.546  16.767   0.860  0.2952  0.2856  0.0985
11365W        W27839   0.500   9.698   4.903  0.1269  0.2057 -0.0618
11366W        W27840   5.048  14.254  14.150  0.1710 -0.3853  0.2508
11367W        W27841  15.682  10.446   4.610  0.1391 -0.1767 -0.1804
11368W        W27842  11.834   0.523   0.235 -0.0595  0.2921  0.1416
11369W        W27843  14.099  10.817   3.941 -0.1375 -0.1160  0.0267
11370W        W27844  10.756   5.377  16.722 -0.0924  0.1153  0.1157
11371W        W27845   3.184   4.676   3.899 -0.0691  0.0703  0.1596
11372W        W27846  13.667  12.441  14.336  0.3377 -0.0839  0.1815
11373W        W27847  16.318   3.073  15.335 -0.0885 -0.1385  0.0214
11374W        W27848   5.098   5.432   1.562  0.1894 -0.1077 -0.0530
11375W        W27849  15.072  10.195   1.340  0.3360 -0.0006  0.0860
11376W        W27850  17.383   3.793  15.289 -0.1018 -0.2751  0.0794
11377W        W27851  13.897   5.352  14.465 -0.1224  0.0918 -0.1567
11378W        W27852   6.155   5.611  11.998 -0.0149  0.2273  0.0568
11379W        W27853  12.426  11.471  14.978 -0.2133 -0.1681  0.0605
11380W        W27854  15.419   3.603   2.556  0.1651  0.0505  0.0800
11381W        W27855  12.037  15.550   4.570 -0.2326 -0.1222 -0.2330
11382W        W27856   9.178   5.354   0.637 -0.0978  0.2207  0.0284
11383W        W27857  16.027   4.734  12.265 -0.2444 -0.0289  0.0202
11384W        W27858   2.110  17.726   2.018 -0.0525  0.2460 -0.0577
11385W        W27859   3.982   6.312   5.135 -0.1143 -0.0471 -0.0390
11386W        W27860   5.237  16.717   4.880  0.1479 -0.0311  0.1755
11387W        W27861   3.534   9.203  13.555 -0.1393 -0.1793 -0.0418
11388W        W27862   8.222  17.058  12.594  0.1741  0.2657 -0.4020
11389W        W27863   4.190  16.236   4.257 -0.2066  0.0613 -0.2759
11390W        W27864   2.610  12.131  16.746  0.0228 -0.0384  0.0214
11391W        W27865   5.910   6.239   4.837 -0.3334 -0.0223  0.0194
11392W        W27866   5.172   4.147   3.864 -0.2282  0.0893 -0.0529
11393W        W27867  17.410   7.130   1.520  0.0974 -0.0294  0.1445
11394W        W27868   8.005   4.791  13.585  0.1003  0.3175 -0.0678
11395W        W27869  15.309  13.096  12.405  0.0650  0.1656  0.1228
11396W        W27870   1.179  10.224   0.802  0.1157  0.1690  0.0809
11397W        W27871   8.550  11.024   0.194 -0.0419 -0.1164  0.2416
11398W        W27872   6.300   4.171  13.016  0.2264 -0.1376  0.0915
11399W        W27873  15.492   9.810  16.420  0.0438  0.2599 -0.1384
11400W        W27874   7.322  10.194  13.645 -0.0808  0.1379  0.0427
11401W        W27875  12.338  14.800   0.017  0.0764  0.1248  0.0631
11402W        W27876  17.099   1.521   0.217  0.0248 -0.0160 -0.2545
11403W        W27877   4.652   9.036  14.704 -0.1961 -0.1831 -0.2571
11404W        W27878  16.137  12.710  16.927  0.4081  0.2522 -0.1958
11405W        W27879   6.378  14.546   5.545 -0.3229  0.1428  0.0322
11406W        W27880  11.309   1.964   0.333  0.0451 -0.3212  0.0525
11407W        W27881   7.522   7.308  15.289 -0.1152  0.0524  0.0519
11408W        W27882  13.641   5.887  15.297  0.1319 -0.1828  0.0361
11409W        W27883  11.985   9.371   2.709 -0.3245 -0.1279  0.0307
11410W        W27884   4.476   5.885  14.289 -0.1659  0.0175 -0.1716
11411W        W27885  10.807   5.949  11.532  0.0653  0.1804 -0.3827
11412W        W27886  11.313   6.898  11.380  0.0033 -0.4214 -0.0861
11413W        W27887  12.081   9.931   3.292  0.1073  0.1313  0.3202
11414W        W27888   6.022   3.253   2.420  0.0030 -0.1453  0.2632
11415W        W27889   8.952  13.679  13.243  0.1909 -0.1748 -0.0826
11416W        W27890  11.206   0.664   1.789 -0.3068 -0.1093  0.2866
11417W        W27891   3.014   9.217   1.882  0.2959  0.1248 -0.0341
11418W        W27892  16.999  11.971   3.168 -0.1104 -0.2411 -0.0596
11419W        W27893  13.808  14.854   5.279  0.0558 -0.3344 -0.0802
11420W        W27894   7.399  13.090  16.925 -0.0142 -0.0979 -0.2491
11421W        W27895   5.425   2.441   0.896  0.1366  0.1081  0.0457
11422W        W27896  14.694  16.824  13.202 -0.2727 -0.2541  0.0663
11423W        W27897  14.787   3.951  15.699  0.2711 -0.0884 -0.0422
11424W        W27898  16.983   1.204  16.083 -0.1318  0.2683  0.1223
11425W        W27899  17.251  10.328  15.371 -0.0817  0.0211 -0.0795
11426W        W27900   8.548   5.528  16.562 -0.1922 -0.1757 -0.0891
11427W        W27901  13.736   3.811   1.505 -0.1248 -0.1884 -0.2716
11428W        W27902  13.394  11.343   5.409  0.0762  0.1104 -0.0734
11429W        W27903   7.118  11.118   4.546  0.0727  0.1475 -0.0279
11430W        W27904  15.266  15.695   6.390  0.0783 -0.0699 -0.0588
11431W        W27905   3.730  12.468   5.208  0.4662 -0.0859  0.0073
11432W        W27906   7.133  14.833  16.151  0.0590 -0.1638  0.0610
11433W        W27907   8.319   9.295  15.157  0.1802  0.0718 -0.0777
11434W        W27908  11.564  15.355  14.089  0.0204  0.1343  0.2845
11435W        W27909   5.020   3.210   3.838  0.0238 -0.2859  0.1779
11436W        W27910   6.163   3.896   1.851  0.2015 -0.2061  0.0225
11437W        W27911  13.441   5.625  12.330  0.0831 -0.0884 -0.0606
11438W        W27912   4.078  15.501  16.359  0.0407  0.3302 -0.0661
11439W        W27913  10.068  14.492   3.134 -0.2568  0.0843 -0.2100
11440W        W27914  14.511  14.127   0.373 -0.0671  0.0314  0.2729
11441W        W27915   8.197  10.451  13.615  0.0262  0.2984  0.1161
11442W        W27916   1.393   4.031  14.792  0.2489  0.0542 -0.1845
11443W        W27917   6.153  13.271   3.103 -0.0643 -0.0500  0.1352
11444W        W27918  11.943   4.494  16.463 -0.0877  0.2201 -0.0303
11445W        W27919  13.495  12.086   3.493  0.1212  0.0865  0.1649
11446W        W27920  17.011   5.560   2.533 -0.2456  0.1702  0.0035
11447W        W27921   9.816   0.182   4.197 -0.1293  0.0471 -0.0871
11448W        W27922   2.459  13.546  15.505 -0.0301  0.0379  0.4733
11449W        W27923   5.435  15.618   3.760 -0.0782 -0.2905  0.1591
11450W        W27924  16.844   4.490  12.024 -0.1649  0.0891 -0.0134
11451W        W27925  12.553   8.053  13.888  0.0194 -0.1539  0.1460
11452W        W27926   9.782  13.819  15.752 -0.2344 -0.0983 -0.0466
11453W        W27927   3.282   8.971   0.255  0.1791 -0.2031 -0.2238
11454W        W27928  11.683   6.160  16.207 -0.2302  0.4075  0.0439
11455W        W27929   6.077   4.915   2.129  0.0972 -0.0339 -0.2692
11456W        W27930   3.980   8.400  16.728 -0.1505  0.1207 -0.2600
11457W        W27931   3.090   4.440  16.880 -0.1481  0.1433  0.0060
11458W        W27932  10.089  12.535   2.100 -0.0790 -0.0877  0.0228
11459W        W27933  12.898  13.470  14.430 -0.0505  0.1498 -0.1953
11460W        W27934   7.333  16.754   4.609  0.1132 -0.1587  0.0290
11461W        W27935   7.949  14.339   3.811  0.0936  0.1756 -0.1357
11462W        W27936   6.371   2.012   3.181  0.1222 -0.2562  0.0788
11463W        W27937  17.752  13.271  15.040 -0.0806 -0.1246 -0.3203
11464W        W27938   4.029  14.525  13.200 -0.1533  0.0278  0.3987
11465W        W27939   1.705  11.518   4.124  0.2992  0.0965 -0.3087
11466W        W27940   1.300  12.340  15.380  0.3469  0.2078  0.2646
11467W        W27941   9.477   0.443   3.929  0.1141 -0.1871  0.2267
11468W        W27942  10.927   6.493   2.262 -0.1922 -0.0882  0.0165
11469W        W27943   4.532  13.705  15.468  0.5690  0.0620  0.1349
11470W        W27944   5.453  10.431   1.954 -0.1319  0.1635 -0.1689
11471W        W27945  15.157   8.455  13.467 -0.3073 -0.1197 -0.0501
11472W        W27946   2.852   6.601   2.240 -0.2798  0.1669 -0.0724
11473W        W27947   0.824   1.479  14.313  0.1986 -0.0438  0.5832
11474W        W27948   0.444   0.345   5.442 -0.0860  0.1838  0.0802
11475W        W27949  14.714  12.223   0.412 -0.1293 -0.2575 -0.1844
11476W        W27950   6.717  13.555  11.461  0.2111  0.1116 -0.1202
11477W        W27951  15.968  13.542   0.625  0.3730 -0.1446 -0.0426
11478W        W27952  16.723   8.381  16.537 -0.1631  0.5021  0.0284
11479W        W27953   9.802  13.673   3.359 -0.2697  0.1730  0.2788
11480W        W27954   2.099   3.689  14.110  0.0603  0.0663  0.0989
11481W        W27955   1.179   5.697  15.802 -0.0845 -0.0534  0.0928
11482W        W27956  12.502  13.374  14.875 -0.1365 -0.0742 -0.1691
11483W        W27957  16.622   1.824   5.294 -0.1561 -0.3597 -0.0587
11484W        W27958   0.330  12.894  12.051 -0.0961 -0.0384 -0.2519
11485W        W27959  15.922   7.536  11.654 -0.2554  0.0995  0.2703
11486W        W27960  13.489  17.794  16.207  0.1113 -0.1038  0.1347
11487W        W27961  14.047  16.177  14.207 -0.1975  0.0795  0.1447
11488W        W27962   0.000   1.073  15.039 -0.0837 -0.0310 -0.0444
11489W        W27963   5.966  15.448   5.808  0.0558  0.4603 -0.2904
11490W        W27964   9.634  12.377   2.827 -0.0939  0.1071 -0.0568
11491W        W27965  12.484   6.676  16.349 -0.0992 -0.0251 -0.0386
11492W        W27966   6.873   3.067  13.594 -0.0568 -0.2245  0.2314
11493W        W27967  17.391  11.253  15.831 -0.1833 -0.1239 -0.2917
11494W        W27968  15.335   0.519  12.681  0.0899  0.2598 -0.0959
11495W        W27969   5.627   0.127  13.497 -0.0175 -0.1505 -0.2133
11496W        W27970   8.858   0.735  15.801  0.1125  0.2865  0.5569
11497W        W27971   5.416   1.706   5.917 -0.0089  0.0030  0.0425
11498W        W27972  14.319  14.495   5.276 -0.0371  0.2251  0.1524
11499W        W27973  12.646   4.292   5.125 -0.1294 -0.1331  0.0466
11500W        W27974  13.670  13.989  15.669 -0.0040 -0.0113  0.0936
11501W        W27975   5.851   7.436   2.706  0.0607  0.1953  0.2308
11502W        W27976  10.989  12.663   4.700 -0.0418  0.1276  0.3080
11503W        W27977   8.238  14.796  15.372  0.4090  0.1657 -0.3169
11504W        W27978  11.721  10.908   5.817 -0.0020  0.3918 -0.1159
11505W        W27979  10.278   2.964   0.079  0.0221  0.2697  0.0803
11506W        W27980  13.318  10.371  16.456 -0.0845 -0.3497 -0.3603
11507W        W27981   1.765   5.632   1.160 -0.3272 -0.3385 -0.0149
11508W        W27982  12.253  15.554  14.699 -0.0186  0.1504  0.1044
11509W        W27983   9.704   1.001  13.413 -0.1451 -0.1916  0.0525
11510W        W27984  15.998  11.804  15.505  0.0483  0.1353 -0.2637
11511W        W27985  15.929  11.483   0.705  0.0765 -0.0288  0.2681
11512W        W27986  16.343  13.877  13.124 -0.2461  0.0869  0.1000
11513W        W27987   9.386  17.193   1.806 -0.0318  0.0511  0.3407
11514W        W27988  16.317   4.313   1.234 -0.0419 -0.0359  0.1763
11515W        W27989   7.242  17.232  14.175 -0.2510  0.1512  0.0025
11516W        W27990  17.074   2.405   0.319 -0.0274 -0.0523  0.1545
11517W        W27991   5.045   8.574  11.450 -0.1773 -0.0441 -0.1312
11518W        W27992   1.723  13.977   2.112 -0.1675 -0.1460  0.1612
11519W        W27993  14.432   8.968  14.134  0.0515  0.1683 -0.2052
11520W        W27994  11.618   9.728  15.887 -0.2885  0.4088  0.0644
11521W        W27995  12.146  11.428   6.117 -0.3674  0.5044  0.0064
11522W        W27996   3.353  11.099   1.128  0.1544 -0.2274 -0.2566
11523W        W27997   5.800   2.684  12.731 -0.0755  0.1808 -0.0106
11524W        W27998  10.219   7.111   0.581  0.2580 -0.0889 -0.0469
11525W        W27999   0.165   7.697  15.150 -0.0809  0.3026  0.2700
11526W        W28000   2.798  11.373  12.208  0.3169  0.2991 -0.1984
11527W        W28001   5.348   6.219   3.781  0.1741 -0.0436 -0.1646
11528W        W28002  11.714   6.060   4.607  0.1060 -0.0414  0.3001
11529W        W28003  16.795  13.204  16.574  0.0709  0.1649  0.0148
11530W        W28004   3.207   8.850  11.402 -0.4410  0.0355 -0.0810
11531W        W28005  10.027  15.218  15.679 -0.1905 -0.0341  0.1367
11532W        W28006   9.459   5.207   4.501  0.0232 -0.1295 -0.0180
11533W        W28007  11.750   4.368   4.804  0.1005 -0.0189  0.0825
11534W        W28008  10.082  14.558  12.971  0.0817  0.0602  0.0802
11535W        W28009   2.515   7.342  14.961 -0.0384  0.0568  0.3189
11536W        W28010   5.829  16.862   4.973 -0.0443 -0.2500  0.1249
11537W        W28011  14.536  14.633   2.511 -0.0270 -0.0050 -0.1677
11538W        W28012  16.058  11.943   2.625 -0.0940  0.0687  0.0455
11539W        W28013  15.669   0.970  12.657 -0.1235 -0.0587  0.3177
11540W        W28014   1.775   4.017  14.467  0.2489  0.1356  0.0765
11541W        W28015  14.071   3.797   3.996  0.2300  0.3037  0.3527
11542W        W28016   6.687   9.573  14.763  0.3171  0.0021 -0.0496
11543W        W28017   0.392  12.278  11.621  0.0800  0.4036 -0.0023
11544W        W28018  11.258   9.950   0.024  0.3327 -0.0559  0.1579
11545W        W28019  10.539  13.924  15.204  0.2331  0.0972 -0.0006
11546W        W28020  14.647   3.996   0.678  0.3152 -0.0641 -0.5726
11547W        W28021  12.046   0.894   4.486  0.1891  0.0413 -0.3743
11548W        W28022  15.591  10.154   1.654 -0.0691  0.0754  0.2207
11549W        W28023  15.249  11.525   2.725 -0.0090  0.0463 -0.4281
11550W        W28024   0.858   9.244  14.065 -0.0199 -0.0205  0.1200
11551W        W28025   0.793  16.592   6.263  0.0047 -0.1125 -0.0734
11552W        W28026  11.514  16.013  15.330  0.0370 -0.0448  0.0410
11553W        W28027  15.130   6.294   2.104 -0.1012  0.0856  0.1275
11554W        W28028   1.597   5.642   0.357 -0.1082 -0.1001 -0.0447
11555W        W28029   2.461   4.150   4.279 -0.2376  0.0348  0.1628
11556W        W28030  10.480  11.348  13.647 -0.2626 -0.0806 -0.0427
11557W        W28031  11.053  10.919   1.031  0.1235 -0.1833 -0.2244
11558W        W28032  17.191   4.866   3.328 -0.1933  0.3997  0.2514
11559W        W28033   5.739  15.549  15.683 -0.0373 -0.0929 -0.1202
11560W        W28034  17.282  17.802   2.648  0.1647  0.0682  0.0372
11561W        W28035  10.186   2.331  13.155  0.0188 -0.0216  0.0314
11562W        W28036   9.988  12.458   1.152 -0.0364  0.0288 -0.0829
11563W        W28037  10.294   9.389  13.439 -0.2688  0.1719 -0.1451
11564W        W28038   2.281   2.551   1.632  0.1209 -0.2587 -0.2283
11565W        W28039   1.399   7.575  13.703  0.0233 -0.1349 -0.1112
11566W        W28040   1.807   0.736   2.288 -0.0726 -0.2323  0.0889
11567W        W28041   7.339   0.377   2.300  0.0503  0.0165 -0.0988
11568W        W28042  11.767  15.249  15.398 -0.0324  0.1140 -0.1482
11569W        W28043   2.151   9.748  16.499  0.0401 -0.2378 -0.0667
11570W        W28044   9.965   2.936  13.939 -0.0400  0.4036  0.0022
11571W        W28045   5.160  10.732  16.294  0.2578  0.2461 -0.0024
11572W        W28046  17.483  15.035   4.601  0.0364  0.1876 -0.1642
11573W        W28047   5.635  12.236  13.779 -0.0649 -0.0008  0.0295
11574W        W28048  12.729  16.581   3.911 -0.1377 -0.1123  0.0406
11575W        W28049   1.488   4.527   6.097  0.1840 -0.0582  0.0148
11576W        W28050  17.434   8.031   2.688  0.2328 -0.5040  0.1775
11577W        W28051  17.138   8.746   5.002 -0.0553 -0.1259 -0.4133
11578W        W28052  11.706  13.876   0.940  0.0824  0.2460 -0.0959
11579W        W28053   1.078  14.188  13.836  0.0246  0.0281  0.2505
11580W        W28054   8.548  17.453   0.832  0.0308 -0.1896  0.0664
11581W        W28055  15.948  16.486  16.215 -0.1977  0.1627 -0.1105
11582W        W28056   7.440   0.567   4.835 -0.0620  0.0749  0.0075
11583W        W28057   5.548  15.700  12.000 -0.3328 -0.0350  0.3888
11584W        W28058   4.596  14.211  15.008 -0.0877  0.0609  0.0375
11585W        W28059  11.553  16.095   2.819 -0.2724 -0.2912 -0.0661
11586W        W28060  14.681  17.701   3.112 -0.1214  0.2106 -0.0108
11587W        W28061   5.463   9.583  15.116  0.0308  0.2126 -0.2075
11588W        W28062  15.660   7.927  15.248  0.2049  0.0024 -0.2528
11589W        W28063  17.470  16.712   2.349 -0.3329  0.3011  0.2109
11590W        W28064   8.849  13.434  12.694  0.1785  0.2617  0.2129
11591W        W28065   9.373   5.717   3.617 -0.0611 -0.2801  0.1458
11592W        W28066  15.947  16.985  11.754 -0.0334  0.1047  0.1822
11593W        W28067   0.392  15.035  15.595  0.0795 -0.3703 -0.0483
11594W        W28068   5.521   6.043   2.213 -0.1045  0.3563 -0.0300
11595W        W28069   3.134  17.461  15.861  0.0499 -0.2458 -0.0556
11596W        W28070   4.425  16.015  13.249 -0.0097 -0.1792 -0.1653
11597W        W28071   8.223  16.554   1.910 -0.0996 -0.0657  0.1199
11598W        W28072  12.487   0.062  14.011 -0.2269  0.1185  0.4154
11599W        W28073   9.923   8.283   2.208  0.0899  0.2579  0.1658
11600W        W28074  13.949  11.757  13.213  0.3647  0.0395 -0.1255
11601W        W28075   9.117   2.849   1.887 -0.0789 -0.0133 -0.3069
11602W        W28076   9.968  13.041  11.679  0.0403 -0.1826 -0.1884
11603W        W28077   6.676  11.810   4.771  0.0463 -0.3478 -0.1525
11604W        W28078   7.964   4.771   5.839 -0.0057 -0.0200  0.0386
11605W        W28079  11.727   7.787   3.691 -0.1417 -0.2042 -0.1319
11606W        W28080  17.505  14.369  14.330 -0.2555 -0.2310  0.3168
11607W        W28081   4.325  11.871  14.212  0.0892  0.0648  0.0204
11608W        W28082   2.394  12.019  11.869  0.2539  0.0235  0.0253
11609W        W28083  17.473  17.347  16.033 -0.4277 -0.1325  0.0089
11610W        W28084   5.639  12.467   2.052 -0.0396 -0.2489 -0.3505
11611W        W28085   7.746  14.181   1.137  0.2107  0.2066 -0.2438
11612W        W28086   0.631  15.015   3.650  0.0256 -0.2316  0.0215
11613W        W28087   7.570   3.757   1.547  0.2455  0.1593 -0.0862
11614W        W28088   3.331   7.191  16.490  0.5977 -0.2518 -0.1864
11615W        W28089  11.771  10.163  16.127 -0.1790  0.0043  0.1289
11616W        W28090   9.826   5.860  15.909  0.0140 -0.2174 -0.1624
11617W        W28091  16.492  17.174   0.323 -0.0584 -0.0895  0.2886
11618W        W28092   0.824  14.116  15.543 -0.0108 -0.1138  0.2526
11619W        W28093  17.705   2.813   4.100  0.2349 -0.1896  0.0979
11620W        W28094   7.224   8.679  13.668  0.0160 -0.0297  0.1507
11621W        W28095  15.326  16.455  15.454 -0.0230  0.1295 -0.1165
11622W        W28096   0.661  12.512  15.266 -0.0721  0.1767  0.3089
11623W        W28097   6.226   8.962   1.776  0.2350 -0.2254 -0.0318
11624W        W28098   3.889   4.654  14.145 -0.3218  0.1511 -0.0587
11625W        W28099  10.028   4.832  14.434 -0.1401  0.0891  0.0769
11626W        W28100  11.805   5.328  16.847  0.0088 -0.0925 -0.0210
11627W        W28101   4.639  12.644  13.820 -0.0674  0.3071  0.1859
11628W        W28102  11.851  12.327   1.705  0.0814  0.3299 -0.0812
11629W        W28103   6.118   7.568   0.466 -0.1029  0.2136 -0.0696
11630W        W28104   5.355  14.144  15.420 -0.2029  0.1072 -0.0869
11631W        W28105   7.979   1.132  12.661 -0.1160 -0.0776 -0.0247
11632W        W28106  16.760  11.668   0.577 -0.0504 -0.2008  0.2607
11633W        W28107   6.494  10.989   4.553  0.0607  0.1259  0.1118
11634W        W28108  17.767   3.491   1.639 -0.2392  0.2519 -0.2387
11635W        W28109   8.438   5.811  16.114 -0.0335 -0.1868  0.4074
11636W        W28110   9.809   3.856   1.501  0.4027  0.0511  0.0643
11637W        W28111   3.738  14.744  14.217  0.0737  0.1154 -0.1617
11638W        W28112   3.791   9.821  11.841 -0.0327 -0.1490  0.0823
11639W        W28113   2.557   5.783  11.837 -0.1717  0.0076  0.0955
11640W        W28114  12.763   4.098  13.218  0.0197 -0.2230  0.2645
11641W        W28115   8.181   0.694   3.748 -0.0119  0.0783  0.0152
11642W        W28116  16.215   8.595  14.979 -0.0135  0.0592  0.0357
11643W        W28117  15.572   9.342   1.361  0.0624  0.1061 -0.2240
11644W        W28118   2.803   6.397  12.903  0.3339  0.3321 -0.4192
11645W        W28119  15.772   6.905  16.152  0.0009 -0.1746  0.1811
11646W        W28120  15.405  16.268   3.169 -0.0208  0.1417  0.2075
11647W        W28121  11.229   8.499  15.049  0.1217  0.0109 -0.4473
11648W        W28122   2.906   4.424   5.240  0.2456  0.3813 -0.0866
11649W        W28123   2.225   0.402  14.459  0.0994 -0.0807 -0.0823
11650W        W28124   8.873  12.945   2.883 -0.0089 -0.0838 -0.2748
11651W        W28125   5.454  13.528   5.543  0.0191 -0.1409  0.1713
11652W        W28126   4.492   2.673  14.447 -0.1450  0.1032 -0.0284
11653W        W28127   8.232   5.816  11.719  0.1335 -0.1250 -0.0110
11654W        W28128   9.162  14.192  15.022 -0.2121 -0.3149 -0.2901
11655W        W28129   6.914  10.763   4.940 -0.0428 -0.0705 -0.0332
11656W        W28130   9.246  11.939  13.702  0.1066 -0.2240 -0.0109
11657W        W28131   5.462  14.102  14.968  0.1060 -0.0914 -0.0507
11658W        W28132  11.773   3.525  15.161  0.1670 -0.0706 -0.3308
11659W        W28133  14.116  15.370  12.865  0.0451 -0.4055  0.1470
11660W        W28134   1.601   3.586  16.800 -0.4955  0.0663  0.0250
11661W        W28135  12.556  10.718   2.880  0.1932  0.0149 -0.0540
11662W        W28136   4.554   9.904  15.172  0.1856  0.0227  0.0072
11663W        W28137  15.077   8.395   1.387  0.1001  0.0519  0.1475
11664W        W28138   1.490  10.277   5.696 -0.1229 -0.3178  0.0351
11665W        W28139   5.304  16.025  15.148 -0.0402 -0.1338 -0.2791
11666W        W28140   9.681   9.311  16.126  0.0215 -0.1016  0.0568
11667W        W28141  16.449   1.456   3.992  0.3002  0.1565 -0.1132
11668W        W28142   7.557   7.541   0.747  0.3745 -0.2601 -0.0047
11669W        W28143  10.467   4.687   2.590 -0.1320 -0.0621  0.4404
11670W        W28144  14.847   9.664   3.570 -0.0460 -0.0329 -0.1429
11671W        W28145   3.479   2.640   1.439  0.0255  0.0715 -0.2872
11672W        W28146   1.939  10.379   1.994  0.1030 -0.2385  0.3580
11673W        W28147  13.504   7.406   0.964  0.0094 -0.2907  0.1339
11674W        W28148  14.888   0.161  15.928 -0.3522  0.0727 -0.0426
11675W        W28149   6.529   2.735  13.791 -0.0182  0.2432  0.0949
11676W        W28150  13.091  12.579  15.259  0.1746 -0.1989  0.0701
11677W        W28151   9.249  10.088   3.685  0.1137 -0.2254  0.2717
11678W        W28152   4.202   9.615   4.575 -0.0966  0.1179 -0.0387
11679W        W28153   7.942   4.235   5.508  0.0792  0.1176  0.3703
11680W        W28154  15.995  17.195   0.579  0.0875  0.0244  0.0032
11681W        W28155  15.743   8.359  14.685 -0.4033  0.0914  0.1349
11682W        W28156   3.598   8.613   0.065 -0.2402 -0.0205 -0.1238
11683W        W28157  13.178   9.917   4.090  0.1258  0.0316 -0.2547
11684W        W28158   4.552   5.598  13.541  0.1279 -0.0812 -0.1756
11685W        W28159   5.671  10.807   0.950 -0.0317 -0.1936  0.1279
11686W        W28160   2.353   4.715   3.243 -0.0319 -0.0244  0.0096
11687W        W28161  15.409   0.803  13.087 -0.0047 -0.0321  0.2518
11688W        W28162   8.646  10.260   1.805  0.0870 -0.0364 -0.0966
11689W        W28163   2.350   4.525   5.070  0.1903 -0.1752 -0.1417
11690W        W28164  13.522  12.043  12.881 -0.2280 -0.1136  0.1085
11691W        W28165  16.182   6.359  11.891 -0.1757 -0.1800 -0.0404
11692W        W28166   7.439   7.189   4.775  0.0784  0.0027 -0.0900
11693W        W28167  12.661  12.788   5.161 -0.0836  0.0247 -0.0366
11694W        W28168  14.828   0.749  14.166  0.0938  0.2974  0.0574
11695W        W28169   3.314   5.153   1.370  0.3890  0.2425 -0.2223
11696W        W28170  17.824   1.610  14.164 -0.2230 -0.0463 -0.1606
11697W        W28171   9.669  17.676   4.511  0.3122  0.2228 -0.1264
11698W        W28172  13.867   3.412  15.046  0.1280  0.0841  0.0259
11699W        W28173   5.330   2.734   2.354 -0.1715  0.0344 -0.2489
11700W        W28174  11.353   6.727   3.464  0.2419  0.1250 -0.1107
11701W        W28175   0.074   8.244   4.128 -0.0719  0.0285  0.3755
11702W        W28176  16.698   8.997   3.278 -0.4688 -0.0635  0.0658
11703W        W28177   3.209  17.811   0.691  0.0633  0.0887  0.1868
11704W        W28178   3.966  17.610  14.783  0.1390 -0.1813  0.1277
11705W        W28179  14.861   3.597   5.287  0.5109  0.0505 -0.2191
11706W        W28180   4.957   5.591  14.348  0.0891  0.0421 -0.3464
11707W        W28181  13.640   6.896   1.718 -0.1228 -0.1616  0.2596
11708W        W28182  15.846  11.408   1.937 -0.0139 -0.0927 -0.1742
11709W        W28183   4.121   4.767   5.700 -0.0671  0.0935  0.1642
11710W        W28184   1.345   9.737   4.617 -0.0471 -0.3208  0.1632
11711W        W28185  10.059  12.150   3.070  0.0591 -0.5732 -0.1032
11712W        W28186   9.228   1.230   5.428 -0.0218  0.0577 -0.0301
11713W        W28187  15.211   2.811   1.648 -0.2074 -0.0390  0.0595
11714W        W28188   5.285  15.746  15.586  0.3357  0.0319  0.1280
11715W        W28189   7.600  14.567   5.267  0.0964  0.1306  0.3985
11716W        W28190  15.742  14.947   1.257  0.2322 -0.2376 -0.1037
11717W        W28191   9.892  17.191   0.311 -0.3889  0.1478 -0.0720
11718W        W28192  14.169   4.701  13.142 -0.1818 -0.0659  0.0564
11719W        W28193  15.891  14.505  12.611  0.2120  0.1030 -0.1481
11720W        W28194  10.693  12.789  15.496  0.0074  0.1285  0.0058
11721W        W28195   4.366   7.323  14.751 -0.0060  0.0714  0.2289
11722W        W28196  17.257   7.141   0.325 -0.1134 -0.0656 -0.0244
11723W        W28197  16.264   2.505  14.443 -0.0836 -0.0435  0.1323
11724W        W28198  10.261  10.168   2.676 -0.0711  0.0127 -0.1542
11725W        W28199   7.188   3.482   5.226  0.0746  0.1149  0.2793
11726W        W28200  14.412  15.396   5.404  0.2700 -0.0254  0.1058
11727W        W28201   7.710   7.792   2.812  0.0562  0.2842 -0.0980
11728W        W28202  10.106   3.692  13.103 -0.0651  0.1560  0.1143
11729W        W28203  17.670  11.017   2.403  0.2731  0.1343 -0.2190
11730W        W28204   2.565  15.467  15.534 -0.0571 -0.2503  0.0089
11731W        W28205   7.911  17.449  12.877  0.0515 -0.1071 -0.1821
11732W        W28206   2.307   4.681  14.105 -0.1127  0.0696  0.0713
11733W        W28207  10.301  17.058  10.907  0.2266 -0.1467  0.0506
11734W        W28208  10.112   3.532  16.498  0.3047 -0.1418 -0.0386
11735W        W28209   0.614   2.104  12.048  0.2201 -0.0090  0.0019
11736W        W28210  13.317   2.323   1.283  0.2619 -0.1352 -0.2307
11737W        W28211  12.594   3.197   1.370 -0.0258  0.2295  0.0822
11738W        W28212  15.495  17.180   0.415  0.1142  0.0428 -0.0517
11739W        W28213   0.280  15.066  14.211  0.5108  0.0970  0.1115
11740W        W28214   3.850  15.514  12.249  0.0881 -0.0032 -0.1793
11741W        W28215  13.871  13.646  13.947 -0.1642  0.1739 -0.0110
11742W        W28216   3.908  17.137  15.746 -0.0687  0.3332  0.2277
11743W        W28217  15.655   4.002  12.694 -0.0610 -0.0486 -0.0254
11744W        W28218   7.638   6.482   0.460 -0.0680 -0.1265 -0.1043
11745W        W28219   8.156  15.561   3.079  0.1297 -0.0048  0.0877
11746W        W28220  11.641  12.911   0.813 -0.1828  0.1572  0.3761
11747W        W28221  16.464  13.159   4.688  0.0376 -0.0020  0.4082
11748W        W28222   9.436  10.181   0.639 -0.1004 -0.3511 -0.1118
11749W        W28223   0.401  16.434   3.324  0.1350  0.0709  0.1566
11750W        W28224  13.354  15.044  13.926 -0.3854  0.0144  0.1196
11751W        W28225   7.508   3.421   3.406 -0.0436  0.2888 -0.0981
11752W        W28226   9.011   6.159   4.357  0.1044 -0.0104 -0.0207
11753W        W28227  16.593   8.186  14.703 -0.0962  0.0768 -0.1312
11754W        W28228   5.954  16.810   1.471  0.1857 -0.2173 -0.0700
11755W        W28229  13.642   7.834  11.986 -0.2650 -0.1138  0.1314
11756W        W28230   4.593   0.853  15.945 -0.1115  0.2110  0.0147
11757W        W28231  16.323  16.600   3.912  0.1512  0.1801 -0.1338
11758W        W28232   8.997  17.462  12.815 -0.0120  0.1435  0.3158
11759W        W28233   6.419  12.016  16.774  0.1433 -0.0627  0.2456
11760W        W28234   0.098  11.363  11.261  0.0774  0.0351 -0.0900
11761W        W28235  15.031  11.393   1.898 -0.2115  0.0509 -0.1026
11762W        W28236   2.399   5.978   4.823 -0.0054  0.1783  0.3143
11763W        W28237   5.922   2.462   5.236 -0.2241 -0.1107 -0.0283
11764W        W28238   0.258   8.103   5.014 -0.0630  0.0329  0.2487
11765W        W28239   5.324   4.552  12.212 -0.1131 -0.0327  0.2170
11766W        W28240  10.509   0.985  13.159 -0.1524 -0.0450  0.0621
11767W        W28241  16.137   3.560   2.796 -0.0426  0.0177  0.2443
11768W        W28242   7.914  10.339   1.082 -0.1386  0.0376 -0.0892
11769W        W28243   5.881   1.420   1.928 -0.4606  0.1304 -0.1717
11770W        W28244   4.548  15.243   4.013  0.1665  0.0206  0.0629
11771W        W28245  13.460  16.693   4.228 -0.1087  0.4051 -0.1369
11772W        W28246   1.974  16.174   5.733 -0.1160 -0.0562 -0.0769
11773W        W28247   2.748   9.592  12.855  0.0805  0.0997  0.0492
11774W        W28248  13.734   1.498   0.313  0.2559  0.2807 -0.2969
11775W        W28249  15.730  14.788  14.308  0.0146  0.0604 -0.2436
11776W        W28250  11.519  12.570  15.012 -0.1044  0.0331 -0.3225
11777W        W28251  12.685  14.658   0.864 -0.2878 -0.1329  0.2794
11778W        W28252   6.712  14.064   4.099 -0.5805 -0.1764  0.0735
11779W        W28253   8.730   7.588  12.834  0.0056 -0.0217 -0.1194
11780W        W28254   8.561  17.488   3.290  0.1332  0.2471  0.2763
11781W        W28255   9.653   8.233  13.457 -0.3988 -0.0569 -0.0610
11782W        W28256  15.922   0.537  16.909 -0.0333 -0.2155 -0.0674
11783W        W28257   0.222  10.992  12.195  0.2935  0.3510  0.2182
11784W        W28258   5.788   9.281  11.638  0.1155  0.0593 -0.1134
11785W        W28259   3.887   0.089  13.791  0.1788 -0.2456  0.1989
11786W        W28260  17.765   1.180   3.604  0.0017 -0.0823 -0.1061
11787W        W28261   4.389   4.182   0.466 -0.1002  0.0750  0.2069
11788W        W28262   1.769  12.198   0.745  0.2000 -0.0016  0.0758
11789W        W28263  10.706  13.784  15.662 -0.0314 -0.1897  0.0734
11790W        W28264  10.974  15.971  12.183 -0.2621 -0.2173  0.1359
11791W        W28265   1.386  11.179   4.333  0.3774 -0.4666 -0.1138
11792W        W28266   9.249   7.009   3.540 -0.2405 -0.1064 -0.3321
11793W        W28267   1.764   1.904  13.437  0.1110 -0.0480 -0.1423
11794W        W28268   3.268  12.734  16.142 -0.1633 -0.0131  0.1467
11795W        W28269   8.583  16.574  12.529  0.0141 -0.2385 -0.0136
11796W        W28270   4.103  16.968   2.855  0.0318 -0.0333 -0.2628
11797W        W28271   5.943   9.002   0.261 -0.0532 -0.0096  0.0854
11798W        W28272   0.827   5.051   2.395 -0.0192  0.1051  0.1567
11799W        W28273   2.813  15.256  12.709  0.0191  0.2149 -0.2502
11800W        W28274   2.451  11.133  16.559  0.0177  0.0179  0.2893
11801W        W28275   4.909   6.182  12.982  0.2265  0.1134  0.1895
11802W        W28276  13.604   4.006  13.940 -0.0792  0.1588  0.3548
11803W        W28277   1.924   8.322   4.789 -0.1026  0.1183 -0.0783
11804W        W28278  12.398   5.169   4.796  0.1087  0.2863  0.3086
11805W        W28279   7.374   4.053   0.083 -0.0978 -0.0700  0.1523
11806W        W28280   5.710  10.505   3.101 -0.1344  0.2123  0.1317
11807W        W28281   8.134  17.042   3.420  0.4020 -0.0421 -0.0846
11808W        W28282   7.718   7.155  12.195 -0.0856 -0.1663 -0.3656
11809W        W28283   0.537  15.336  15.196  0.1949 -0.0615 -0.0875
11810W        W28284   2.957  12.774   4.698  0.1461  0.2836 -0.0991
11811W        W28285  11.925   1.355   0.311  0.0587  0.0409 -0.2904
11812W        W28286   5.867   1.597   2.769 -0.0185  0.1102 -0.1704
11813W        W28287   5.688   0.959   3.690 -0.1561 -0.2769 -0.1806
11814W        W28288  10.684  14.975   0.208  0.0610 -0.3594  0.0732
11815W        W28289   3.018   9.239   1.370  0.1926  0.1252  0.0554
11816W        W28290   2.220   4.351   1.124  0.1946  0.1774  0.1815
11817W        W28291  10.949   4.133   5.131  0.0887 -0.2362 -0.1016
11818W        W28292   4.243  12.351  14.145  0.2506  0.0328 -0.2312
11819W        W28293   3.744  15.136  14.679 -0.2725  0.0041 -0.3354
11820W        W28294  12.893  10.950  10.718 -0.1654  0.2108 -0.1184
11821W        W28295   7.695  13.560   0.335 -0.1199  0.0538  0.0055
11822W        W28296  14.653  12.568   5.536 -0.1720  0.3297 -0.1323
11823W        W28297   8.729  14.991   1.750 -0.1609 -0.2248  0.1633
11824W        W28298  17.627   2.341  15.483 -0.0907  0.1600  0.1788
11825W        W28299   5.094   7.294   0.284 -0.1368  0.0791  0.2324
11826W        W28300  17.328   6.139  12.434  0.0178 -0.1816  0.2528
11827W        W28301   7.293  10.677   4.209 -0.4698 -0.0798  0.2421
11828W        W28302   1.034  11.022   2.234  0.0841  0.1814 -0.1903
11829W        W28303   2.725  14.989   3.549 -0.0001 -0.1678  0.1187
11830W        W28304   7.571  17.621  16.105  0.3045  0.1920  0.1687
11831W        W28305   6.180   0.864   3.589 -0.0460 -0.1289 -0.0252
11832W        W28306  16.228   0.306   2.615 -0.0559 -0.0599  0.1461
11833W        W28307   4.479   6.227   3.207 -0.0248  0.1432 -0.1206
11834W        W28308   8.623   2.132   2.177  0.1623  0.2822 -0.0589
11835W        W28309   6.292   7.806   4.579  0.0552  0.0757 -0.1151
11836W        W28310  16.153   4.672   2.179  0.0818 -0.1945  0.2218
11837W        W28311  11.917   2.254  12.266 -0.0709 -0.0603  0.0356
11838W        W28312   8.180   3.477   5.042  0.1663  0.0763 -0.1354
11839W        W28313  14.783   1.071  14.579  0.0930 -0.0145  0.4619
11840W        W28314  14.875  15.158   1.030  0.4079 -0.0707  0.2454
11841W        W28315  10.034   2.762  12.119 -0.1509  0.0414 -0.1048
11842W        W28316  10.685   1.893   1.523 -0.3817 -0.2867  0.0356
11843W        W28317  17.716   9.766   1.740 -0.1111 -0.0203  0.0719
11844W        W28318  17.724   7.625  15.999 -0.2682 -0.0336  0.1694
11845W        W28319   5.770  16.109  15.019  0.0144  0.0113  0.0671
11846W        W28320   1.440  10.681   4.841  0.0652 -0.1003  0.0590
11847W        W28321   4.950  14.473  16.370 -0.0074  0.1932 -0.2623
11848W        W28322  10.011   4.194   1.171 -0.0415 -0.0365 -0.2528
11849W        W28323   1.696  15.758   4.760  0.4618  0.0879 -0.1377
11850W        W28324  17.126   8.710  15.317 -0.1564 -0.2501  0.0404
11851W        W28325  16.264  11.789  16.429 -0.2589  0.0036 -0.2490
11852W        W28326   5.674   9.080   4.347 -0.1869 -0.1061  0.0929
11853W        W28327  16.454  13.416  13.371  0.0623  0.1889 -0.3558
11854W        W28328  16.835  11.418   3.995  0.1341  0.3284  0.1590
11855W        W28329  12.878  13.470   4.472 -0.1227  0.2515 -0.2575
11856W        W28330   7.486   5.317  16.892  0.3005  0.0838 -0.0440
11857W        W28331   8.542  17.535  14.910  0.3929  0.1367  0.0515
11858W        W28332  16.175  16.418  11.655 -0.1090  0.0823 -0.1146
11859W        W28333   8.026  16.743  12.185  0.1501 -0.0923 -0.2894
11860W        W28334  14.345  12.374   1.140 -0.0361  0.0902 -0.0771
11861W        W28335   2.804   7.801   3.558  0.0141 -0.1641  0.2021
11862W        W28336   6.289  16.137  13.266  0.1389 -0.1549 -0.0055
11863W        W28337   2.337   0.768  15.358  0.1620  0.1605 -0.0917
11864W        W28338   1.142   4.469   5.239 -0.3274  0.2924  0.1102
11865W        W28339   8.142  13.446  16.007  0.0768  0.1525  0.3029
11866W        W28340   3.946  17.365   0.452  0.1289  0.2362  0.0271
11867W        W28341   5.073   7.902  14.768 -0.2680 -0.2126 -0.1007
11868W        W28342  12.089   3.662  15.917 -0.0648  0.1110 -0.0471
11869W        W28343  15.520  12.238   1.689 -0.1574  0.0093 -0.1868
11870W        W28344   2.316  17.255  16.625  0.2332  0.1218  0.0722
11871W        W28345  17.698  15.645  11.690  0.1964 -0.2594  0.1646
11872W        W28346  12.249   9.931  14.664 -0.1296  0.2089  0.0663
11873W        W28347  15.780  12.804  12.010  0.0266 -0.0208 -0.2396
11874W        W28348   7.982   4.085   1.530  0.0919 -0.2135  0.0622
11875W        W28349   9.509   1.082   3.244  0.1472 -0.1119 -0.0934
11876W        W28350   9.565   1.639  11.737  0.1494 -0.2431  0.3380
11877W        W28351   6.424   6.058   0.695 -0.3113  0.1877  0.1286
11878W        W28352   8.825   2.197  11.733 -0.0357  0.0998  0.0443
11879W        W28353   0.794   3.253   1.144 -0.1974  0.4717  0.1282
11880W        W28354   9.283  11.215  15.012  0.0063  0.0092 -0.0508
11881W        W28355  10.334   7.932  16.506  0.0656  0.2332 -0.1114
11882W        W28356  13.229  11.041  13.086 -0.1023  0.2010 -0.1976
11883W        W28357  12.485  16.952  15.742 -0.0153  0.2916  0.3290
11884W        W28358   0.968   0.378  11.822  0.0621 -0.1103  0.1502
11885W        W28359   2.636   0.475  16.145  0.2201  0.1281  0.1155
11886W        W28360  14.974  15.915  14.010 -0.1581  0.2445  0.1079
11887W        W28361   0.130   4.054   2.791 -0.2568 -0.1315  0.1008
11888W        W28362  11.753  17.670  14.335  0.0399  0.0998  0.0695
11889W        W28363   2.227  11.756  10.879  0.0589  0.4741  0.1536
11890W        W28364   2.057  11.621  15.779  0.5319 -0.2776  0.2447
11891W        W28365  13.354  16.236   4.545 -0.1821 -0.4384 -0.2043
11892W        W28366  16.161   4.555   2.672 -0.1413  0.1172 -0.0320
11893W        W28367   3.915  17.034  13.950 -0.2904 -0.0495 -0.0474
11894W        W28368  11.391  12.263   4.724  0.2054 -0.3344 -0.0877
11895W        W28369   9.902   2.425  11.776  0.0072  0.2144  0.0837
11896W        W28370   1.297  13.331   1.887 -0.0810 -0.0845  0.1566
11897W        W28371   4.238   9.156  15.923 -0.2626  0.3930  0.0513
11898W        W28372   9.218   4.470  16.097  0.0715  0.1243 -0.2095
11899W        W28373   0.893  17.502  14.808 -0.0588 -0.2248  0.2256
11900W        W28374  17.643  10.987   3.803 -0.1269 -0.0567 -0.0038
11901W        W28375  11.348   5.583   0.574  0.0484  0.1802 -0.1645
11902W        W28376  16.156   0.864   3.324 -0.1372 -0.0100  0.0439
11903W        W28377   6.433   9.142   4.785 -0.0373 -0.0332  0.0646
11904W        W28378   6.216   5.592  15.003  0.1706  0.2404  0.0482
11905W        W28379  13.792  13.074   3.328 -0.0496 -0.1917  0.1392
11906W        W28380  13.341   6.127   2.133  0.2246  0.0041 -0.1816
11907W        W28381   5.603   9.663   2.757  0.0480 -0.0716 -0.0407
11908W        W28382   0.755   2.779  16.322 -0.4273  0.0568  0.0262
11909W        W28383   0.469   2.071   5.430 -0.0966  0.5040  0.0283
11910W        W28384   3.500  17.425   4.081  0.1724  0.0424 -0.0163
11911W        W28385  12.263  14.494   1.054 -0.1068  0.1115 -0.0011
11912W        W28386  10.105   5.124   5.365  0.0767 -0.0741 -0.0318
11913W        W28387   2.047   9.292   0.391 -0.2955  0.2764  0.1292
11914W        W28388  13.965  13.168  13.161  0.0481  0.0265  0.5083
11915W        W28389   5.598  10.535  11.377 -0.2057  0.0593  0.0592
11916W        W28390   4.603  14.934   2.684  0.0609 -0.1255 -0.2843
11917W        W28391  12.993  10.003   2.850 -0.3237 -0.1182 -0.0285
11918W        W28392   9.887   3.726   0.994 -0.1198 -0.0437  0.0683
11919W        W28393   3.864  15.906  15.251 -0.0167 -0.0930 -0.2723
11920W        W28394  17.008  16.674   2.465  0.0890  0.3398 -0.1674
11921W        W28395   7.952  13.591  16.799 -0.1882  0.1403 -0.1780
11922W        W28396   4.142   9.032   4.773 -0.0194 -0.0764  0.0611
11923W        W28397  12.220   3.917   0.859 -0.2002 -0.1102 -0.1628
11924W        W28398  13.822   6.769  14.228 -0.1830 -0.0864 -0.1306
11925W        W28399  11.339  11.696  12.616 -0.2632 -0.2668  0.1628
11926W        W28400   8.989   8.171  14.611  0.0712  0.1393  0.0127
11927W        W28401   4.380   3.418  13.828  0.1763  0.0643 -0.0482
11928W        W28402  14.237  11.561   0.465 -0.3048 -0.2373  0.2081
11929W        W28403   9.995   6.778   3.116 -0.3613 -0.2538  0.0302
11930W        W28404  11.689  10.699   5.322  0.0729 -0.0692  0.2390
11931W        W28405  12.729   0.078   6.028 -0.2013  0.2086  0.0597
11932W        W28406   4.597  10.985   3.128  0.0620  0.0097  0.0051
11933W        W28407   5.791   3.369  12.267 -0.2655 -0.0406 -0.0651
11934W        W28408   1.605  12.908   2.041  0.2241  0.3046  0.0429
11935W        W28409   1.449  12.258   5.689 -0.0116 -0.0363 -0.0227
11936W        W28410  14.399   7.335   3.241  0.0574  0.1411  0.0610
11937W        W28411   6.360  14.749  13.033  0.1581 -0.1696 -0.3473
11938W        W28412   4.434  15.815  13.667 -0.4946 -0.0681 -0.1573
11939W        W28413   6.237   2.269   1.446 -0.1398 -0.3215  0.0947
11940W        W28414   2.139   1.238   1.097  0.2351 -0.0858  0.0746
11941W        W28415  13.204   9.075  16.537 -0.0449  0.0707 -0.0516
11942W        W28416   2.183   7.363  14.555 -0.3899 -0.0214  0.1817
11943W        W28417   0.521  13.235  16.913 -0.0671 -0.1653 -0.1583
11944W        W28418  11.726  10.556   2.224  0.2657 -0.1442  0.0958
11945W        W28419   4.520  13.350   1.885 -0.0155  0.1879 -0.0648
11946W        W28420   6.618  12.312  12.683  0.1699 -0.2309  0.0574
11947W        W28421   4.126   0.916   1.121  0.0434  0.1236 -0.1812
11948W        W28422   3.542   0.496   0.485 -0.1239  0.0851 -0.1024
11949W        W28423   6.175   1.780   5.297  0.2372 -0.0622  0.1363
11950W        W28424  11.248  14.054   2.044  0.3000  0.1507  0.4940
11951W        W28425   9.781   1.293   4.677  0.1339  0.1384 -0.2570
11952W        W28426   2.903   0.008   5.308  0.1554 -0.1152  0.0121
11953W        W28427   4.336  16.458  13.520  0.1902 -0.1600 -0.1049
11954W        W28428   5.179  14.150   2.427  0.3128  0.0860  0.1185
11955W        W28429   3.289  13.514   2.211 -0.0236  0.0071  0.1031
11956W        W28430   8.925   5.754   3.248  0.0618 -0.0430  0.1398
11957W        W28431  13.328   3.304   2.332 -0.2077  0.1001 -0.2716
11958W        W28432   6.297   8.447  16.515 -0.0161 -0.0930 -0.1861
11959W        W28433   4.793  10.625  16.739  0.0835  0.2353 -0.0889
11960W        W28434  11.299  11.213   4.078 -0.1653 -0.2395  0.2048
11961W        W28435   3.409   6.909   1.017 -0.0498 -0.2950 -0.1238
11962W        W28436   6.361  15.909  14.981 -0.0016  0.0651  0.1773
11963W        W28437  14.388  13.849  13.191 -0.1106 -0.2821 -0.2572
11964W        W28438   4.635  12.615   3.788  0.0983 -0.2285 -0.0237
11965W        W28439   9.899  17.676  11.415 -0.2530 -0.3139  0.2052
11966W        W28440  17.781  16.858  14.045 -0.2704 -0.1578  0.0506
11967W        W28441   9.759   3.615   3.196  0.0784 -0.0950 -0.1110
11968W        W28442   6.053   1.764   1.615 -0.0381 -0.1434  0.0228
11969W        W28443   4.924   3.578  16.116 -0.1841  0.2376 -0.0617
11970W        W28444  14.564   4.485   3.816  0.1965  0.1421  0.2024
11971W        W28445   8.427   3.289  14.557 -0.1389  0.1675 -0.0753
11972W        W28446   8.699   4.413   4.637  0.3223 -0.0297  0.0289
11973W        W28447  10.228   6.154  16.112  0.0714 -0.2359 -0.2102
11974W        W28448  15.333   9.867  16.908  0.1808  0.1791 -0.0984
11975W        W28449  11.565  14.532   0.419 -0.1186  0.0204 -0.1287
11976W        W28450  15.202   5.329   0.966 -0.0015 -0.0339  0.0657
11977W        W28451   3.180   9.645   1.145 -0.1974 -0.0459 -0.2749
11978W        W28452   1.531   7.151  14.367 -0.2560  0.0035 -0.1103
11979W        W28453  15.848   8.247   3.327  0.0524  0.2786 -0.0643
11980W        W28454  10.249  15.593  15.364 -0.1179  0.1009  0.0803
11981W        W28455   9.185   6.203   3.171  0.0353 -0.1920  0.1731
11982W        W28456   2.992  16.052  12.027 -0.0655 -0.1331  0.0790
11983W        W28457   5.345   5.419  15.313 -0.0121  0.4079  0.0482
11984W        W28458  10.562   7.148  12.863  0.0703  0.2417 -0.0059
11985W        W28459   1.521   7.897  15.599 -0.2910 -0.1207  0.2952
11986W        W28460  13.142  15.785   3.671 -0.2010 -0.1561 -0.3665
11987W        W28461   5.189   5.453   4.222 -0.1577 -0.0891  0.1327
11988W        W28462  14.786   2.250  13.070 -0.0086  0.2521  0.2267
11989W        W28463   5.585  16.917  11.841  0.1993  0.0084 -0.0764
11990W        W28464  10.936   5.944   3.481 -0.0183  0.3390 -0.0051
11991W        W28465  15.399   4.441   2.181 -0.1422 -0.1942 -0.0506
11992W        W28466   0.088  12.319   3.398 -0.2085  0.0696  0.0320
11993W        W28467  14.512   9.608   4.122  0.0750 -0.0748 -0.2143
11994W        W28468   5.580  14.464  10.644  0.1026 -0.1740 -0.2022
11995W        W28469   3.419   4.147  12.119  0.0738 -0.1351  0.2849
11996W        W28470  15.640   0.937  14.851 -0.2185 -0.1944  0.0136
11997W        W28471  15.249   8.796  12.607 -0.0766 -0.0267  0.1049
11998W        W28472   6.251   1.215   5.048  0.0775 -0.2255  0.0911
11999W        W28473  17.326   3.896   1.246  0.1975  0.2394 -0.0900
12000W        W28474  13.559   1.668   0.794 -0.0504 -0.1286 -0.1455
12001W        W28475   0.992   0.662   6.142 -0.1214  0.0708 -0.2663
12002W        W28476  13.666   5.156   0.043 -0.1734  0.1019  0.0211
12003W        W28477   2.426  14.701   0.990  0.0596  0.2212 -0.1822
12004W        W28478  14.716  10.283   4.942 -0.0231 -0.0854  0.1024
12005W        W28479   5.883  16.054  11.883  0.1426  0.1066  0.1920
12006W        W28480   9.497   9.218  12.511 -0.0417 -0.0228  0.0148
12007W        W28481   5.611   9.875   0.473  0.1881  0.1038  0.1637
12008W        W28482  13.481   3.663  15.223  0.0189 -0.2460  0.2250
12009W        W28483   2.832  16.242   3.950 -0.1886 -0.0199 -0.0604
12010W        W28484  12.234  11.011  12.743  0.3468 -0.2357 -0.1928
12011W        W28485  12.315   3.844  16.332 -0.2090  0.0038 -0.0048
12012W        W28486   9.639   8.609  13.857 -0.0419  0.0524 -0.0047
12013W        W28487  13.630  13.532   4.351 -0.1369 -0.0972 -0.0080
12014W        W28488   5.153  16.323   2.266  0.0919 -0.1837 -0.0574
12015W        W28489   0.209  11.256   1.533  0.0749  0.0167 -0.0115
12016W        W28490  14.651   8.461   5.607 -0.0295  0.0535 -0.0445
12017W        W28491  10.475   2.639   1.917 -0.1398 -0.2153 -0.1850
12018W        W28492   6.966  13.163   2.780  0.0576  0.2273 -0.2178
12019W        W28493   5.433  14.834   5.348  0.0209 -0.0805 -0.2465
12020W        W28494  16.635  10.749   3.731 -0.0336 -0.1493 -0.1131
12021W        W28495   2.535   7.950   1.731  0.1933 -0.0065  0.0646
12022W        W28496  14.705   8.275  15.665  0.1660 -0.0916  0.1754
12023W        W28497  14.111   9.410  12.551 -0.1792 -0.1406  0.0280
12024W        W28498   6.610   9.412   4.461  0.0954  0.3127 -0.1507
12025W        W28499   4.966  15.591   3.386  0.1236  0.2756  0.1184
12026W        W28500  13.425   1.123   2.521  0.0847  0.0822  0.2756
12027W        W28501  16.503   5.301  12.750  0.1272  0.2103 -0.0564
12028W        W28502   6.718  12.077   5.236 -0.1435 -0.1178 -0.0173
12029W        W28503   4.363   9.117  12.024  0.2864  0.4379  0.1847
12030W        W28504   1.657  15.564   4.293  0.1171 -0.1054  0.2027
12031W        W28505  13.711   7.598  11.565  0.2906  0.0842 -0.1797
12032W        W28506  13.506   5.388   3.760 -0.2659 -0.2979 -0.0635
12033W        W28507  10.323   5.536   3.560  0.1198 -0.0119  0.2425
12034W        W28508   5.634   4.241   1.907 -0.0167  0.3253 -0.4346
12035W        W28509  12.031   9.066  16.214  0.0263 -0.3270  0.1280
12036W        W28510   6.574  16.942  16.192 -0.0031  0.1702  0.0763
12037W        W28511  15.790  12.061   3.833 -0.0108 -0.0851  0.0648
12038W        W28512   7.140  10.451   1.988  0.0125 -0.3388  0.1566
12039W        W28513   3.128  14.355  15.640  0.1468  0.2547 -0.4951
12040W        W28514   1.767   2.265   4.644 -0.0555 -0.0207  0.0693
12041W        W28515  13.480   7.294  12.086  0.1348  0.1269  0.1541
12042W        W28516   2.900   4.917  14.036  0.0210  0.2523 -0.2050
12043W        W28517   5.249   8.249   2.470  0.0159  0.0482 -0.2727
12044W        W28518   6.545  10.628   3.696  0.3608 -0.0873 -0.1796
12045W        W28519   7.827   3.563  13.919  0.2953 -0.1704  0.1314
12046W        W28520  12.810   1.719   4.553 -0.0425 -0.0337  0.0576
12047W        W28521   3.647  10.838   0.257 -0.1066 -0.1310 -0.2092
12048W        W28522  13.499  17.541   5.106  0.1104 -0.0171  0.2016
12049W        W28523  15.825  11.796  13.860 -0.1155  0.1075  0.1328
12050W        W28524  12.259   0.512  12.813 -0.0618  0.0826  0.3244
12051W        W28525   4.184   5.555  13.928  0.0279  0.0181 -0.1518
12052W        W28526  15.409  16.976  16.573 -0.0145 -0.0135  0.0415
12053W        W28527   9.863   9.369  11.703 -0.0112  0.1837  0.1774
12054W        W28528  13.186   1.646  15.371  0.2021 -0.0310 -0.0643
12055W        W28529  14.214   0.535   5.674  0.1117  0.0080 -0.2217
12056W        W28530  13.495   0.123   0.291  0.0593 -0.0912 -0.0960
12057W        W28531  13.290  13.461   0.275 -0.1234 -0.0915  0.0851
12058W        W28532   3.399  12.665   1.923 -0.2210 -0.0580 -0.1308
12059W        W28533  15.547   1.513   1.830  0.0180  0.3437 -0.0883
12060W        W28534   7.148  10.444  15.712  0.0821  0.1183 -0.0613
12061W        W28535  17.576   7.282  12.432  0.0812 -0.0591 -0.1376
12062W        W28536  15.863  16.161   1.871  0.0189 -0.1319  0.3404
12063W        W28537   5.612   9.191   2.565  0.0632  0.1819 -0.1771
12064W        W28538   8.020  11.329   1.971  0.1750 -0.3364 -0.1659
12065W        W28539   5.217  16.165   4.943  0.0051  0.0652 -0.1122
12066W        W28540  13.091   5.173   2.858 -0.0089 -0.1980  0.2142
12067W        W28541   4.502  12.739   0.439  0.0960  0.1179  0.0193
12068W        W28542  12.199  11.203  16.009  0.0981  0.2275  0.2583
12069W        W28543  12.018  17.359  14.590  0.1959  0.0501 -0.1734
12070W        W28544  13.292  15.733  16.361  0.1553  0.0567 -0.1841
12071W        W28545   7.935   4.796   2.797 -0.0115  0.1954  0.1213
12072W        W28546  17.559   7.874  12.466 -0.2223 -0.0567  0.4333
12073W        W28547  10.077  17.180  15.779  0.2550  0.0779 -0.2206
12074W        W28548  13.122   4.084   3.605  0.0166  0.0441  0.0122
12075W        W28549  15.448   7.877  16.232 -0.1620  0.1078  0.4028
12076W        W28550   0.631  15.429  16.626 -0.1214 -0.1273  0.2475
12077W        W28551   3.078  14.862   0.948  0.2541 -0.0458  0.0679
12078W        W28552  15.491   2.639  14.276 -0.0770 -0.0964  0.2957
12079W        W28553  16.737   9.540   1.759  0.1764  0.0413  0.0655
12080W        W28554  13.597  10.210   0.640  0.1643 -0.1054 -0.0624
12081W        W28555   5.490   2.573   3.819  0.0161 -0.1009 -0.1717
12082W        W28556   9.095   9.605  13.896  0.1816 -0.1356 -0.4237
12083W        W28557  11.467  11.032   2.348  0.0486 -0.1975  0.2430
12084W        W28558   9.580   2.228   0.203 -0.0702 -0.1387  0.1246
12085W        W28559  13.190  12.242   3.118  0.0276  0.1680 -0.0252
12086W        W28560  16.854   7.281   5.488  0.0868 -0.3361  0.0706
12087W        W28561  11.636  15.035  15.988 -0.2102 -0.1269  0.2011
12088W        W28562  15.553   3.389  16.135  0.3897 -0.0315  0.1426
12089W        W28563  17.454  10.951   3.302 -0.5272  0.0791  0.1194
12090W        W28564  10.680   6.573   1.743  0.0009 -0.2872 -0.1363
12091W        W28565  14.895  11.120   2.834 -0.2148 -0.3279  0.0243
12092W        W28566  17.805  12.583  14.515  0.2369 -0.3540 -0.1431
12093W        W28567  13.055   3.841  11.974  0.0767 -0.2173  0.2199
12094W        W28568  15.246   9.047   0.860  0.1842 -0.2886 -0.0716
12095W        W28569  13.134   8.867  15.147  0.2543  0.0756 -0.0501
12096W        W28570  15.390  16.717   1.788  0.2127 -0.0238  0.0481
12097W        W28571   2.823  14.248  13.146 -0.1884 -0.1167  0.0369
12098W        W28572   4.171   7.418  11.612 -0.1148  0.2982  0.0216
12099W        W28573   8.961   8.002  16.122  0.1728 -0.0579 -0.2186
12100W        W28574  12.795  17.727  13.187 -0.2146 -0.1393  0.0906
12101W        W28575  15.134   3.369   0.041  0.0061 -0.0107  0.0583
12102W        W28576  17.449   3.913  16.747 -0.0473 -0.0162  0.0522
12103W        W28577   0.863  15.237  16.032 -0.0784 -0.1698  0.0723
12104W        W28578   3.587  13.568   1.174  0.2204 -0.2185  0.1570
12105W        W28579   6.444   8.760  13.553 -0.0052 -0.0113 -0.0312
12106W        W28580   4.814  16.863   3.989 -0.4880 -0.2491 -0.1127
12107W        W28581  16.294   1.473  16.864 -0.0133  0.0724 -0.2801
12108W        W28582  16.208  13.554  11.730  0.3013 -0.0294 -0.0477
12109W        W28583  11.918  13.467  12.396 -0.0707 -0.0444  0.1011
12110W        W28584  14.061   2.290   1.880  0.0005  0.0669 -0.0214
12111W        W28585   1.390   2.586   2.390 -0.3446 -0.0857 -0.2346
12112W        W28586  15.357  13.318  13.116  0.1012  0.0808  0.3205
12113W        W28587   0.635  11.673   2.548  0.3112  0.0596 -0.1688
12114W        W28588  14.372  15.051  11.692 -0.0249  0.0365  0.2278
12115W        W28589  11.047   8.009   4.123  0.0507 -0.0114  0.1143
12116W        W28590   3.652  10.035  13.959  0.1743 -0.2643 -0.1717
12117W        W28591   2.388  17.601  12.703  0.1695 -0.0151  0.0972
12118W        W28592  14.959   2.315  16.880 -0.4580  0.0996  0.0539
12119W        W28593  17.298  17.086   5.422  0.0753 -0.1801 -0.0967
12120W        W28594  11.933   6.642   2.733 -0.2634  0.1863  0.2474
12121W        W28595  13.054   5.349   0.473  0.0114 -0.0245 -0.0476
12122W        W28596   2.469  12.166   1.273  0.2972 -0.2062  0.0614
12123W        W28597  16.083   0.870  12.429 -0.2178  0.1867 -0.2572
12124W        W28598  11.273  16.939   4.923  0.2243  0.2040  0.2396
12125W        W28599  15.054   2.043  16.470  0.1976 -0.4022  0.2153
12126W        W28600   7.355  14.395   1.396  0.1058 -0.3649 -0.1763
12127W        W28601   2.963   4.909   1.681  0.1325  0.1581  0.1643
12128W        W28602   7.609  16.826  10.755  0.0323  0.0255 -0.0500
12129W        W28603   7.799  15.011   1.331 -0.1253 -0.0214 -0.0990
12130W        W28604   2.163   7.198  16.513 -0.2247 -0.2115 -0.1907
12131W        W28605   3.512  15.080   0.956  0.2639  0.1125 -0.0632
12132W        W28606   2.146   6.528  14.262 -0.1068 -0.0852 -0.1239
12133W        W28607   8.050  17.230   2.965 -0.0345  0.0023  0.0603
12134W        W28608  17.025   7.710   4.025 -0.3034  0.1460 -0.2138
12135W        W28609   4.023  10.928  14.442 -0.0415  0.0776  0.0433
12136W        W28610   2.902  13.996   1.618 -0.1005 -0.0090 -0.0482
12137W        W28611   8.844  17.266  13.980  0.0309  0.1917  0.2369
12138W        W28612   2.910   0.905  14.848 -0.0269  0.4512 -0.2244
12139W        W28613   8.463   4.734  13.979 -0.0652  0.3350  0.0516
12140W        W28614   8.581  13.372  14.837 -0.2386 -0.3397  0.1323
12141W        W28615  14.681   2.697  14.337  0.0967 -0.0204  0.1097
12142W        W28616   8.465  12.384   4.753  0.0750  0.0013 -0.1179
12143W        W28617   6.944   3.524  13.879 -0.0569  0.2019 -0.0810
12144W        W28618  17.317   4.186  16.279  0.0641  0.4227  0.1221
12145W        W28619  15.502  11.358   1.094  0.2400  0.0659  0.1003
12146W        W28620  16.662   6.866   3.500 -0.1466 -0.0937  0.0321
12147W        W28621  14.227   4.644   3.458 -0.1917  0.2181 -0.1079
12148W        W28622  11.066   0.473  12.566  0.3239  0.0658 -0.1002
12149W        W28623  14.518  10.781  14.694 -0.1556 -0.0226 -0.3520
12150W        W28624   8.786   0.080   0.488 -0.3100  0.0551 -0.0716
12151W        W28625  15.181  14.893   3.044 -0.4560 -0.0477 -0.1444
12152W        W28626   5.136  16.176   0.416 -0.2136  0.4654  0.0184
12153W        W28627  16.003   3.471   4.755 -0.2528  0.2320 -0.1496
12154W        W28628  17.532   1.980   5.782 -0.0391 -0.4262  0.0580
12155W        W28629  11.253   9.888   4.353  0.0015 -0.0142  0.2695
12156W        W28630   7.346   3.007   5.160 -0.0908 -0.1894  0.0558
12157W        W28631   4.187  15.925   1.904  0.1174 -0.4465 -0.2031
12158W        W28632   2.687  11.796   2.209 -0.2420  0.0006 -0.0373
12159W        W28633   2.835   4.578  15.001 -0.1378 -0.3057  0.4666
12160W        W28634   9.771  12.850  14.813  0.2279  0.3123  0.0234
12161W        W28635   6.578  10.852  12.121 -0.1511 -0.3307  0.1513
12162W        W28636  14.734  13.564   5.022  0.3738 -0.0582 -0.2352
12163W        W28637   7.314  13.011   1.002  0.2790  0.2814  0.1127
12164W        W28638   6.267  10.925   4.046  0.2058  0.2156 -0.1105
12165W        W28639  17.687  13.350   3.308  0.1187 -0.0711 -0.0905
12166W        W28640  15.728  15.384  16.077 -0.1708 -0.1683 -0.0218
12167W        W28641  15.569   3.087   4.380  0.2052  0.0405 -0.1050
12168W        W28642   9.006   5.730  12.329 -0.1713 -0.0726  0.3949
12169W        W28643   4.081   9.946  13.367  0.1225 -0.0352  0.4110
12170W        W28644  16.559   0.811  12.264 -0.1827  0.0851 -0.0363
12171W        W28645   3.967   3.919   5.897 -0.0313  0.0632 -0.1962
12172W        W28646  17.674   1.610  15.526  0.1471 -0.0326 -0.0313
12173W        W28647   9.309  10.369  11.998 -0.0520 -0.2397 -0.0140
12174W        W28648   9.916   3.234  13.452 -0.0586  0.0779 -0.0247
12175W        W28649   3.043   8.216  15.221  0.1293  0.1117 -0.2975
12176W        W28650  13.990   7.094  14.559  0.0449  0.3005 -0.0071
12177W        W28651  13.277  13.818   4.012  0.0242  0.0255 -0.0246
12178W        W28652   7.126  15.156  11.448  0.2747 -0.1214  0.0676
12179W        W28653   0.461   4.864  14.183  0.1244  0.0208  0.1368
12180W        W28654   7.194   0.374  16.820  0.2256 -0.1192  0.0073
12181W        W28655  16.606   3.634  13.638  0.0172  0.0912 -0.1248
12182W        W28656   2.336  13.707   2.804  0.1634 -0.2102 -0.2076
12183W        W28657  16.634  15.331  16.533  0.0726  0.1771  0.1265
12184W        W28658  12.029   7.093   5.410 -0.0925 -0.0255  0.0877
12185W        W28659  16.752   5.811  14.751 -0.1475  0.2568 -0.1293
12186W        W28660  17.645  11.344  13.519  0.0033  0.0986 -0.2235
12187W        W28661   0.736   3.126  15.033 -0.0094 -0.0864 -0.2181
12188W        W28662  14.174   6.327   3.054  0.0047  0.0414  0.0690
12189W        W28663   6.871  11.138  12.535 -0.1108 -0.2002  0.0224
12190W        W28664  15.819  15.033   5.362  0.1457  0.1217 -0.2674
12191W        W28665   6.355  11.782   0.285 -0.1282 -0.2096  0.2497
12192W        W28666   4.436   0.012   3.115  0.2985 -0.0164 -0.2174
12193W        W28667   5.045  15.655   0.282  0.1485  0.0116 -0.0127
12194W        W28668  11.670  12.494   5.695  0.0980 -0.2612 -0.2374
12195W        W28669   9.051  17.783  11.864 -0.0947 -0.2966 -0.0666
12196W        W28670   1.105   9.476   1.632 -0.1069  0.2701  0.1309
12197W        W28671  16.066  13.699   5.671 -0.0597  0.0388 -0.1823
12198W        W28672   1.739   7.858  13.542 -0.3793 -0.1319  0.0177
12199W        W28673   6.387   6.911  13.679  0.0426  0.2125  0.0850
12200W        W28674  10.082   3.594  12.648  0.1680 -0.3212  0.0469
12201W        W28675   5.205  16.769   0.092  0.1495 -0.0962 -0.0924
12202W        W28676   2.972   1.411  14.097  0.1727 -0.0174  0.4077
12203W        W28677  14.322  11.283  14.424  0.0672 -0.2445 -0.2569
12204W        W28678  17.257  14.899  15.970  0.0158 -0.1737 -0.2426
12205W        W28679   6.655   4.460   0.343 -0.1126 -0.1686  0.2014
12206W        W28680   9.172   5.603   2.671 -0.0329 -0.4343  0.1769
12207W        W28681  17.585  16.147  14.040  0.0615  0.0826 -0.0196
12208W        W28682  16.673  12.084   3.607  0.2110 -0.3506  0.1654
12209W        W28683   7.855   1.007   4.305 -0.1610  0.0449  0.0960
12210W        W28684   0.315  13.140   3.198  0.2003 -0.1520 -0.0648
12211W        W28685   9.039   6.258   4.839  0.0228 -0.2484 -0.0369
12212W        W28686  11.865  15.983  11.430 -0.2984 -0.0353 -0.0369
12213W        W28687   4.757  15.420   0.741  0.0815  0.0913  0.1601
12214W        W28688  10.827  15.258   2.009 -0.1103 -0.0549 -0.0716
12215W        W28689   5.800  10.335   0.747  0.0753 -0.1695  0.0592
12216W        W28690  16.056   5.062   4.170 -0.2207  0.0771 -0.2327
12217W        W28691   6.605  11.355   4.234 -0.1234  0.2029 -0.1580
12218W        W28692  12.538   6.528   3.716 -0.1462  0.1166 -0.0558
12219W        W28693   1.096  11.203   2.720  0.0135 -0.0864 -0.2731
12220W        W28694   3.498  12.365  14.704  0.0834  0.2908 -0.0573
12221W        W28695  12.546  13.919  13.941  0.1476 -0.0541 -0.0998
12222W        W28696   1.724   6.152   0.373  0.1344 -0.1888  0.1592
12223W        W28697  14.521  11.108  11.668 -0.0574 -0.1254 -0.0017
12224W        W28698   9.741   3.668   3.988  0.0279 -0.1046  0.0243
12225W        W28699   9.854   6.352   0.611 -0.1197  0.0233  0.1758
12226W        W28700  12.589   5.107   2.550  0.0902  0.2700  0.1567
12227W        W28701   0.208  13.248  11.693 -0.0431 -0.0042  0.0923
12228W        W28702   5.616   7.271  11.804 -0.1844 -0.0952 -0.0342
12229W        W28703   6.900   0.927   1.101  0.0256 -0.1057  0.1600
12230W        W28704   6.365  17.522   2.035  0.0449  0.1174  0.1501
12231W        W28705  16.482   1.221   5.983  0.0017 -0.0140 -0.1296
12232W        W28706   8.690  10.557   0.020 -0.0151 -0.2010 -0.0750
12233W        W28707   8.282   9.981   4.977 -0.2700 -0.0052  0.1450
12234W        W28708   8.346   3.916  11.966  0.1979 -0.1742  0.0264
12235W        W28709  17.709   8.923  14.421 -0.1857 -0.2400  0.1707
12236W        W28710   1.699  11.394   2.851  0.1642  0.1085  0.1148
12237W        W28711   1.038   3.832   5.757  0.0896 -0.1733  0.2002
12238W        W28712   6.101   4.631  14.115 -0.1494  0.1835 -0.2100
12239W        W28713   2.101   7.238   3.356 -0.0159 -0.4964 -0.0253
12240W        W28714   8.392  13.683  11.955 -0.0732  0.2145 -0.0633
12241W        W28715   0.141   7.639   0.940 -0.4468 -0.1556  0.0022
12242W        W28716  17.803   4.921   4.967 -0.0011  0.4592 -0.1237
12243W        W28717  14.194   4.708   4.261  0.1071  0.1805  0.0309
12244W        W28718   5.502  14.141  13.884  0.0235  0.0524 -0.0324
12245W        W28719   9.689   9.024   2.586  0.3655  0.2707  0.1328
12246W        W28720   6.605  12.776  15.302  0.1613 -0.0052 -0.1662
12247W        W28721  13.355  12.908   4.544 -0.3397 -0.0993  0.0745
12248W        W28722  11.672   8.599   2.889 -0.1186  0.0824  0.0419
12249W        W28723   9.639  14.022   5.099  0.2350 -0.0136 -0.4004
12250W        W28724  13.826   7.313   4.954  0.1539  0.0077  0.0785
12251W        W28725  17.458   9.635  14.236  0.0609  0.2271  0.0819
12252W        W28726   7.539  12.747  16.063 -0.1459  0.0568 -0.3311
12253W        W28727  13.853   6.422   4.523 -0.2196  0.0572 -0.0235
12254W        W28728  16.456  17.570   3.897 -0.1915  0.0990  0.1689
12255W        W28729  12.155   5.647   1.433 -0.2413 -0.0596 -0.1412
12256W        W28730  11.772   0.345   1.122 -0.0643  0.0956 -0.0768
12257W        W28731   2.526  11.789   4.858  0.0379  0.0482 -0.2893
12258W        W28732   2.091   7.827   1.620 -0.0397  0.0786 -0.1830
12259W        W28733  11.861  13.627   4.369  0.1086 -0.2211 -0.1881
12260W        W28734   8.735   9.482  16.040 -0.0120  0.2427 -0.1869
12261W        W28735   4.706   3.386   0.560 -0.1333  0.4210  0.2661
12262W        W28736   4.875  14.099  13.664 -0.1876 -0.1082  0.1203
12263W        W28737   9.851  17.169  12.931 -0.2234  0.1820  0.2248
12264W        W28738  10.107  13.478  11.964  0.1717 -0.2286 -0.2332
12265W        W28739   2.016  11.981   4.890 -0.1755  0.0943 -0.0216
12266W        W28740   9.832   9.559   3.525 -0.0459  0.0022  0.0077
12267W        W28741   5.469  10.685   2.582 -0.0630  0.0137 -0.0887
12268W        W28742  14.918   5.627   1.264  0.0309 -0.0150  0.2947
12269W        W28743   2.714   2.671   3.973 -0.0317 -0.2911 -0.2765
12270W        W28744   7.780   7.693  14.407 -0.2814 -0.0832  0.2994
12271W        W28745   8.265  12.714   1.639 -0.1188 -0.0584 -0.2780
12272W        W28746   1.048   7.084  14.347  0.1511 -0.0401 -0.2069
12273W        W28747   5.204  16.441  16.305  0.0326  0.3644 -0.1549
12274W        W28748   6.335   9.111   0.649  0.0690 -0.1490  0.0917
12275W        W28749   6.638  12.761  14.428 -0.0565 -0.1067 -0.0304
12276W        W28750   3.348   6.820  16.854 -0.0291  0.1874 -0.0885
12277W        W28751   5.454  12.860   4.218  0.1298  0.1539  0.1072
12278W        W28752  10.443   8.587   5.474 -0.3046  0.0871  0.3576
12279W        W28753   5.718  13.004  14.316 -0.2986 -0.0100  0.4049
12280W        W28754  11.285  14.974   2.081 -0.2945  0.0187  0.0340
12281W        W28755   7.603  15.070  11.962 -0.0348  0.0157 -0.0877
12282W        W28756   7.305  12.755   4.452 -0.2731 -0.1483 -0.0357
12283W        W28757  12.942   7.561   6.373 -0.0675  0.1414  0.0482
12284W        W28758   3.531  13.817   3.849 -0.2188 -0.3577 -0.2114
12285W        W28759  16.532   3.909   6.186  0.4376  0.2898  0.1511
12286W        W28760  13.725   6.421   1.167 -0.0277  0.1263 -0.1066
12287W        W28761  12.831  15.177   0.715  0.0168  0.1830 -0.0834
12288W        W28762  14.498  13.686  16.252 -0.0721  0.1277 -0.0074
12289W        W28763   2.432  15.589  13.756 -0.0968 -0.0158 -0.0066
12290W        W28764   1.579   4.321  12.528 -0.2458 -0.0579  0.1489
12291W        W28765  16.757  13.011   2.141  0.1077  0.2216 -0.2028
12292W        W28766   2.853   0.917  13.923 -0.0238 -0.1910  0.4237
12293W        W28767   7.413   2.062  14.731 -0.0702 -0.1180  0.1456
12294W        W28768   0.684  13.808  11.784 -0.2368  0.1398 -0.0427
12295W        W28769   8.234  13.920   4.486 -0.0324 -0.0541 -0.0529
12296W        W28770   1.787   8.277  11.944 -0.2325 -0.1865  0.0760
12297W        W28771   4.775   3.775   3.930 -0.0298  0.0667 -0.1156
12298W        W28772  12.482  11.956  14.870 -0.0744 -0.0556  0.2199
12299W        W28773  12.583   5.492   3.873 -0.0628  0.0947 -0.0690
12300W        W28774  14.807   9.928   3.051 -0.1206  0.1679  0.0937
12301W        W28775   8.209   0.156   5.318 -0.0641 -0.1102  0.2391
12302W        W28776   5.526  11.794  13.437  0.0136 -0.2334  0.0876
12303W        W28777  16.248  13.240   5.638 -0.3483 -0.0437  0.1698
12304W        W28778  12.360   5.579   1.889  0.0350 -0.1340  0.3738
12305W        W28779   0.425  12.949   1.666 -0.1726  0.0191  0.0216
12306W        W28780   1.957  15.320  16.336 -0.0635  0.1587  0.0565
12307W        W28781   8.180   0.518   5.684 -0.0378 -0.3521  0.1611
12308W        W28782  14.417  11.952  13.316  0.0536  0.0739 -0.0521
12309W        W28783  11.645  16.381   2.347 -0.0975  0.1719  0.0845
12310W        W28784   5.212  16.986   5.602  0.0235 -0.2238  0.2696
12311W        W28785  12.696  14.610  11.636  0.0764  0.1247  0.0522
12312W        W28786  16.237   0.786   5.661 -0.0053  0.0400  0.0796
12313W        W28787  12.819  16.286   6.172 -0.1523 -0.0887  0.2552
12314W        W28788   0.233  16.622   4.523 -0.2513  0.1353  0.1251
12315W        W28789  10.792   6.441   4.815 -0.1600  0.3284  0.0829
12316W        W28790  12.385   3.313  14.047  0.2445 -0.0449  0.0609
12317W        W28791   5.481  11.500   0.193 -0.1709 -0.0889  0.1142
12318W        W28792  12.185   9.919   4.047 -0.1973 -0.0034  0.1138
12319W        W28793   8.641  13.690   3.612  0.0625 -0.1513 -0.5192
12320W        W28794   7.708   4.145   4.273  0.1060 -0.3205  0.0124
12321W        W28795   0.102   2.976  14.225 -0.3363  0.0621  0.0627
12322W        W28796  13.395   6.552   5.289  0.0058 -0.2359 -0.2398
12323W        W28797  10.597   3.335   3.104  0.1166  0.1978 -0.1175
12324W        W28798  10.077  16.908  14.804 -0.0691  0.0717 -0.1757
12325W        W28799   5.344  13.669  16.574  0.1500 -0.0190 -0.3500
12326W        W28800   9.154  10.701   2.327 -0.2236 -0.0290 -0.1191
12327W        W28801  14.234   4.305   0.678  0.0120 -0.1607 -0.2077
12328W        W28802   2.690   0.969  13.470  0.1746 -0.3415 -0.1338
12329W        W28803   7.196   6.950  15.375 -0.1497 -0.0472  0.0349
12330W        W28804   0.663   4.656   5.530  0.4418  0.0091 -0.1280
12331W        W28805   0.639  13.325  12.024  0.0601 -0.1353  0.2573
12332W        W28806   7.814  13.562   4.746 -0.0185 -0.0507 -0.0467
12333W        W28807  15.169   6.680   3.081  0.0745  0.1271  0.0481
12334W        W28808  17.013   8.239  11.648  0.0698  0.0905 -0.0009
12335W        W28809   1.490   3.675   5.155 -0.1440 -0.0573  0.2576
12336W        W28810  11.931  14.524   3.880 -0.2148 -0.1166  0.2164
12337W        W28811   5.241  17.303  16.120  0.0415  0.3411  0.0441
12338W        W28812   5.801  16.104   6.469 -0.3667 -0.0280  0.0926
12339W        W28813   4.663  12.850   1.692 -0.0842  0.1793 -0.0853
12340W        W28814   2.426   1.223  13.797 -0.0775  0.1225  0.0024
12341W        W28815   8.162   8.563   3.545  0.1226  0.0388 -0.0175
12342W        W28816   1.319   9.433   1.084 -0.2097  0.1858 -0.0389
12343W        W28817   3.789  16.925  12.203 -0.1667  0.0418 -0.2032
12344W        W28818  14.298   0.074  15.271  0.0080 -0.1218  0.2750
12345W        W28819   1.011  13.126  11.389  0.2797  0.1189 -0.0794
12346W        W28820   5.249   8.592  11.893  0.2093 -0.0148  0.1708
12347W        W28821  15.764   3.573   3.666 -0.1507  0.0091  0.0379
12348W        W28822   1.124   8.492   0.211  0.1178 -0.0848  0.0496
12349W        W28823   4.689  11.669  13.041  0.0202  0.0946 -0.1792
12350W        W28824  15.230   2.754  12.821 -0.2215  0.0712 -0.1581
12351W        W28825  12.566  12.712   1.394  0.1517  0.0451 -0.0947
12352W        W28826  12.098   1.742  16.188 -0.1996  0.0735  0.3254
12353W        W28827  14.167  10.080  14.454  0.0026  0.1227 -0.0137
12354W        W28828   0.511   9.144   2.680 -0.2799 -0.1456  0.1587
12355W        W28829  15.777   4.709  16.461  0.1322  0.0493 -0.2551
12356W        W28830  15.920   1.109  16.844 -0.1509  0.0023  0.3285
12357W        W28831   2.725  10.840  14.861  0.2125  0.1899 -0.1137
12358W        W28832  12.092   4.569  11.889  0.0551 -0.0547 -0.3741
12359W        W28833  16.445  12.693  14.153 -0.1576 -0.0422  0.1844
12360W        W28834   8.571  12.021  15.297  0.0152  0.0292  0.1774
12361W        W28835   9.116   2.753  16.562  0.0854  0.0417  0.1013
12362W        W28836   0.982  12.158  16.654  0.0468  0.3553 -0.0350
12363W        W28837  10.578   0.512   0.266 -0.0710  0.0238 -0.1986
12364W        W28838   3.140  10.174  11.206 -0.1437  0.1331 -0.0510
12365W        W28839  10.914   0.153  15.098  0.0327  0.1277 -0.1641
12366W        W28840   6.562   2.263  12.453 -0.2184 -0.2886  0.2322
12367W        W28841   4.475   7.225   5.174 -0.1502  0.4122  0.2284
12368W        W28842  17.364   0.274   5.179  0.0369 -0.2592 -0.2154
12369W        W28843  17.231  15.050   4.114  0.3414 -0.0254  0.1144
12370W        W28844  10.455  11.508   5.118 -0.1778 -0.2576  0.3025
12371W        W28845  10.347   0.689  14.513 -0.1176  0.0391 -0.2217
12372W        W28846  15.185   4.595   1.135 -0.2293 -0.0071  0.3349
12373W        W28847   7.983   2.585   5.454  0.1963  0.2492  0.1911
12374W        W28848   6.056   6.061  15.854  0.1844 -0.1984 -0.4021
12375W        W28849   6.242   7.137  11.717  0.0724 -0.1330  0.0467
12376W        W28850  15.660  15.772   4.243  0.0110 -0.0379  0.0430
12377W        W28851  17.564   2.874  16.080  0.2061  0.1299 -0.0265
12378W        W28852  12.219   9.407  13.505  0.2268 -0.3371  0.0772
12379W        W28853   2.609  14.997  11.565  0.1477 -0.2728 -0.1312
12380W        W28854   7.565   0.940  12.329 -0.0742  0.0667 -0.3320
12381W        W28855   4.519   8.624  14.216  0.1920 -0.1124 -0.1848
12382W        W28856   0.493  13.819  13.081  0.1915 -0.3347  0.0121
12383W        W28857   2.963   2.775   4.809  0.1191  0.1955  0.4483
12384W        W28858   6.869   7.199   4.889 -0.3299 -0.1289  0.0121
12385W        W28859   1.541   7.528  15.916  0.3183  0.1914  0.1616
12386W        W28860   3.765   9.205  16.370 -0.1226  0.3679 -0.3067
12387W        W28861   0.818   6.579   4.257 -0.3579 -0.0353 -0.0080
12388W        W28862  16.750  13.658  14.660 -0.2440  0.1912  0.0004
12389W        W28863  13.131   6.569   1.957  0.0798  0.2492  0.0146
12390W        W28864  11.538   1.270  13.519 -0.1805  0.0395 -0.0724
12391W        W28865  16.560  10.764  11.472 -0.1191 -0.0358 -0.1236
12392W        W28866   3.809   0.809   5.056 -0.0889  0.0595 -0.1523
12393W        W28867  17.369  10.899  11.858 -0.0411 -0.2540  0.1185
12394W        W28868   6.874  14.933   0.291  0.1966  0.0666  0.0171
12395W        W28869   3.023   2.928   0.289 -0.1429  0.1681 -0.1275
12396W        W28870  12.317   6.437  12.812  0.1426 -0.1500  0.1622
12397W        W28871   0.403  17.224  16.674  0.0330 -0.1014 -0.0904
12398W        W28872  10.196   8.494  13.777  0.3125 -0.0841 -0.1020
12399W        W28873   1.055   7.132  12.509 -0.2738 -0.1237 -0.0623
12400W        W28874   9.448  14.288  14.327  0.2467 -0.2106  0.1091
12401W        W28875  12.684  15.566   3.849 -0.2542 -0.3362 -0.2424
12402W        W28876   0.840   1.527  16.076  0.1109 -0.1041  0.0575
12403W        W28877  12.605  13.415  13.076  0.1193  0.4908  0.1049
12404W        W28878   6.648  17.505   0.689  0.1970  0.3119  0.1490
12405W        W28879   3.118   8.437   2.338 -0.1109  0.1454 -0.1103
12406W        W28880   9.429   6.899   5.120  0.2789 -0.2107 -0.1651
12407W        W28881   0.336   3.771  15.480 -0.0463  0.2086 -0.2207
12408W        W28882  11.006  10.663   0.301  0.0033  0.1215  0.0740
12409W        W28883   8.514  11.133  11.932  0.1621 -0.4840 -0.0710
12410W        W28884  12.899   9.906   4.675  0.2661  0.5108 -0.0033
12411W        W28885  10.910   0.562  11.778  0.1713 -0.1721 -0.0090
12412W        W28886  13.830   8.131   2.364  0.0442  0.0164  0.0438
12413W        W28887   6.930  12.897   5.605 -0.2177  0.1417  0.0070
12414W        W28888  17.827  15.574   2.427  0.1601  0.1564  0.0288
12415W        W28889   9.057  13.920  14.206  0.1426  0.0751  0.0351
12416W        W28890  17.725  14.641  15.681 -0.0297 -0.0294  0.1333
12417W        W28891  13.026  15.107   4.049  0.0810 -0.1384  0.0477
12418W        W28892   3.233   0.286   4.567  0.0690  0.0360  0.4074
12419W        W28893   3.939  14.713  11.672  0.0911 -0.1544 -0.1832
12420W        W28894  16.099  14.126  16.315 -0.1743 -0.0804  0.1403
12421W        W28895  15.199   1.632  13.168  0.0383 -0.0348 -0.1073
12422W        W28896   4.139   3.358   5.337  0.0560 -0.1985  0.1924
12423W        W28897   1.880  16.560   1.063 -0.0626 -0.4058  0.2941
12424W        W28898   7.484   5.208   5.134 -0.3418 -0.4238  0.0180
12425W        W28899   9.770   5.288  12.564  0.0088 -0.0407 -0.0593
12426W        W28900  11.979  12.771  14.939 -0.1559 -0.1731  0.1743
12427W        W28901   6.130  16.096   3.854 -0.2311  0.1394 -0.0776
12428W        W28902  12.663  11.581  13.453 -0.1920 -0.0800 -0.0178
12429W        W28903  11.135   1.901  12.459  0.1838  0.0377 -0.3818
12430W        W28904  15.667   4.739   5.058 -0.1100 -0.2302  0.0452
12431W        W28905   1.677   3.221  12.280 -0.0154 -0.2022 -0.0710
12432W        W28906   5.652   5.822  11.751  0.0490 -0.1749  0.2093
12433W        W28907   2.907   0.905   5.994  0.2324 -0.4225  0.0547
12434W        W28908   6.027  12.527   4.740 -0.1639  0.1910 -0.1113
12435W        W28909   1.716   4.898   1.970 -0.4776  0.0039 -0.0133
12436W        W28910   5.419   5.334  14.481 -0.0308  0.3481  0.0991
12437W        W28911  16.274   8.465   3.100  0.1182 -0.0840  0.1699
12438W        W28912   0.803  16.724   3.481  0.2558 -0.1768 -0.0149
12439W        W28913   9.268   6.988  12.396  0.1181 -0.0061  0.1423
12440W        W28914   8.560  14.286   1.084 -0.2471 -0.0088 -0.0980
12441W        W28915   8.689   3.018  13.334 -0.1691 -0.2388  0.1192
12442W        W28916  11.530  13.229   4.256  0.0220 -0.0914  0.0536
12443W        W28917  11.294   5.512  14.045  0.1500 -0.1069  0.0738
12444W        W28918   4.561  10.187   1.544 -0.4370 -0.0074 -0.3241
12445W        W28919  10.231   5.138   3.862 -0.1339  0.2922  0.0265
12446W        W28920   5.145   0.751  16.147  0.2987  0.0655 -0.0082
12447W        W28921  10.656  10.553  14.175 -0.0815 -0.1128 -0.0030
12448W        W28922   9.768  10.864  15.096  0.3852 -0.0577  0.0779
12449W        W28923   5.647   1.502  16.323 -0.0523  0.2218  0.1952
12450W        W28924  16.813  11.870  16.529 -0.0380 -0.0969  0.0259
12451W        W28925  13.911   9.926  12.150  0.2839  0.1387 -0.0891
12452W        W28926   8.949  11.983   3.405 -0.0678  0.0298  0.0725
12453W        W28927  15.886   8.491   1.804  0.0329  0.2898  0.1970
12454W        W28928  12.997  15.431  13.731 -0.1545 -0.4630 -0.0526
12455W        W28929  12.710   6.752   3.234 -0.1635 -0.0614  0.2822
12456W        W28930  13.085  11.327   1.507 -0.0030  0.0563  0.0521
12457W        W28931  13.669   9.246  15.897  0.0237 -0.1815 -0.1608
12458W        W28932  11.060   8.049  13.057 -0.3413  0.3738  0.1671
12459W        W28933   5.606  11.662   1.180  0.1020 -0.1751 -0.0387
12460W        W28934   7.539   5.077   2.972  0.1904  0.0705 -0.0621
12461W        W28935   3.925  13.493   0.211  0.0157 -0.1893  0.3879
12462W        W28936   8.581   0.462   3.557  0.2038  0.2438  0.1630
12463W        W28937  14.669  16.654   1.065 -0.5994  0.0222 -0.0726
12464W        W28938  10.674   2.335   5.232 -0.0263  0.3190  0.1883
12465W        W28939   8.524   0.928  14.455 -0.0319 -0.0359  0.3025
12466W        W28940  17.489  14.373   2.012  0.0635  0.1616  0.1000
12467W        W28941  13.387   8.477  13.923  0.1239  0.2095 -0.3149
12468W        W28942  15.245   1.125   3.196 -0.1029 -0.2009  0.1593
12469W        W28943   9.724  11.621   5.790 -0.0078 -0.2798 -0.2201
12470W        W28944  13.065  12.579   3.593  0.0132  0.0222 -0.0701
12471W        W28945   1.976   7.173  15.007  0.0950  0.2312 -0.1789
12472W        W28946   8.972  13.586  15.047  0.3128  0.3837 -0.0308
12473W        W28947  13.154   8.886   4.987 -0.2315  0.0856  0.3013
12474W        W28948  10.318   8.237  11.983 -0.2211  0.2699 -0.0501
12475W        W28949  14.580   0.437   6.439 -0.0506  0.1461  0.0276
12476W        W28950   3.347   3.068   5.510 -0.1111 -0.2430 -0.2535
12477W        W28951   3.568  17.068   0.251  0.2015 -0.1270  0.1181
12478W        W28952   2.104   1.048  12.112 -0.1075 -0.1355  0.0398
12479W        W28953   9.924   0.983  16.743  0.1563  0.2675 -0.0960
12480W        W28954   2.894  11.645  13.613 -0.1809 -0.0688 -0.0799
12481W        W28955   4.930   9.886  14.851 -0.3054 -0.1179 -0.0579
12482W        W28956   8.870  12.297  13.641 -0.4020 -0.0535  0.0315
12483W        W28957  14.504  14.101   0.885 -0.2092 -0.0079  0.1280
12484W        W28958  14.061   9.602   4.667 -0.1594 -0.1217 -0.4670
12485W        W28959   6.637  13.752  12.924 -0.0989  0.1317  0.2785
12486W        W28960   0.090   0.406  16.094  0.1046 -0.1895 -0.0239
12487W        W28961   6.040   9.374   1.411  0.1303 -0.0743  0.0721
12488W        W28962   9.264   2.700  14.991  0.2830 -0.0117 -0.0731
12489W        W28963   4.756  17.662   1.257 -0.1426  0.3065 -0.0191
12490W        W28964  13.554   5.184  16.481  0.0316  0.0951 -0.1287
12491W        W28965   0.303  15.826  15.282 -0.4922 -0.3330 -0.0897
12492W        W28966  13.176   5.399  16.891 -0.4318  0.1579 -0.0656
12493W        W28967  11.774   5.217  15.868  0.0258 -0.0065  0.5264
12494W        W28968   6.314   1.842  12.508  0.0831  0.0164 -0.0702
12495W        W28969  14.220   7.556   5.729 -0.0074 -0.1344  0.1231
12496W        W28970  12.626   0.127   5.130  0.1091 -0.1141 -0.1463
12497W        W28971   4.108  15.468   2.920 -0.2734 -0.1500  0.0408
12498W        W28972   8.756  14.339   1.604  0.0890  0.0266  0.2579
12499W        W28973  16.235   8.720   4.540  0.0685  0.1489  0.1521
12500W        W28974  14.093   6.988  16.373 -0.2219  0.0131  0.1235
12501W        W28975   3.538  10.373  14.946  0.1900  0.0166 -0.1610
12502W        W28976  17.218   7.939  16.649 -0.0793 -0.0834  0.1627
12503W        W28977  15.295   5.808  12.621 -0.2650 -0.1110 -0.3873
12504W        W28978  15.672  14.992   3.537  0.1652 -0.2880 -0.0709
12505W        W28979  11.100   7.421   4.994 -0.0199 -0.1054 -0.1863
12506W        W28980   5.673   7.216   1.675 -0.2225 -0.0057  0.4740
12507W        W28981  16.663  14.943   5.155 -0.2809  0.0430  0.2608
12508W        W28982   6.901  13.193  15.352  0.0222 -0.1468  0.1201
12509W        W28983  17.543   2.422   1.179  0.0004 -0.2198 -0.0222
12510W        W28984   6.591  13.203  13.031  0.2043  0.1136  0.0936
12511W        W28985   4.677   6.392  14.549  0.4007  0.1823  0.1312
12512W        W28986  11.473   6.675   5.782  0.0360  0.0046  0.1273
12513W        W28987   9.351  10.083   1.141 -0.2457 -0.1796 -0.1009
12514W        W28988   5.559   5.661   1.697 -0.2903 -0.2529 -0.1172
12515W        W28989   1.162   0.200   4.949 -0.0451  0.1642  0.0506
12516W        W28990   2.929  11.547  11.561  0.0550  0.3590  0.2487
12517W        W28991  14.794   3.753   3.232  0.0643 -0.0938  0.0624
12518W        W28992   9.786  16.208  16.443 -0.0878  0.1897  0.0637
12519W        W28993   0.473   5.129  15.801  0.2766 -0.0127  0.0701
12520W        W28994  16.780   1.022   1.604  0.2524  0.3080  0.2203
12521W        W28995   8.959   4.423   3.337 -0.0337  0.1420 -0.0047
12522W        W28996  17.303  12.780  14.249 -0.2469  0.3386  0.0070
12523W        W28997   8.717  10.268  11.960  0.0989 -0.1956 -0.3189
12524W        W28998   6.842   4.646  16.483 -0.0850 -0.1711 -0.2110
12525W        W28999   4.352   7.186   0.486 -0.0522  0.0258 -0.0696
12526W        W29000   2.547   8.513  12.487  0.1460  0.2389  0.3092
12527W        W29001  14.849   8.933   2.055  0.2373  0.0204  0.0022
12528W        W29002   6.208  10.622   0.950 -0.1793  0.0174 -0.1241
12529W        W29003   0.043  11.510   3.818 -0.2366 -0.0957 -0.1773
12530W        W29004  10.798   4.594   4.339 -0.0987 -0.0505 -0.2654
12531W        W29005  15.552  15.735   0.873  0.1767  0.1293 -0.0945
12532W        W29006  14.245  13.402   6.309  0.2457 -0.3802 -0.2474
12533W        W29007   7.099   0.891  11.860 -0.1053  0.0559  0.1574
12534W        W29008  10.134  17.627   3.914 -0.0909 -0.0808 -0.0884
12535W        W29009  10.179   3.122   5.821  0.3818 -0.2542 -0.1032
12536W        W29010   7.997   0.844   1.285  0.0670  0.2656  0.0712
12537W        W29011   1.181   1.435  12.690 -0.2373 -0.0025  0.2943
12538W        W29012   2.388   1.002   1.483 -0.1144 -0.3166  0.0176
12539W        W29013   5.346  10.507   4.055  0.0414 -0.1728 -0.1414
12540W        W29014  11.042  15.642   1.292  0.0659  0.0322  0.3584
12541W        W29015   5.991  12.504   1.648 -0.2017 -0.2168  0.1410
12542W        W29016  12.851  14.509  13.188 -0.1554 -0.3616  0.0623
12543W        W29017   1.244  13.668  13.868  0.1675 -0.2360 -0.0405
12544W        W29018   3.598   0.663  14.439  0.1453 -0.3248 -0.1217
12545W        W29019   7.403   9.015  15.963  0.1279  0.1257 -0.2514
12546W        W29020   3.093  12.683  14.721 -0.3057 -0.1981  0.0727
12547W        W29021   9.438   1.200  16.845  0.2261 -0.0564  0.1707
12548W        W29022   9.078  10.149   1.575 -0.3729  0.2340  0.2059
12549W        W29023   4.389  16.481   3.786  0.0390 -0.2147 -0.0446
12550W        W29024  11.827  15.802  14.504  0.0569 -0.1179 -0.1064
12551W        W29025  11.339  13.526  13.101 -0.3101  0.0621  0.0446
12552W        W29026  12.242   8.292  15.437 -0.0788  0.1567 -0.1064
12553W        W29027   6.428   6.269   4.581 -0.0329  0.0273  0.0671
12554W        W29028  10.991   5.789   1.757 -0.0980 -0.0196 -0.2055
12555W        W29029  10.474   2.670  13.351  0.1643 -0.2559  0.0861
12556W        W29030   2.664   3.929  14.178  0.2565  0.0379 -0.4089
12557W        W29031  14.380   0.098   1.531  0.0239  0.4548 -0.0922
12558W        W29032   3.011   4.567   2.648  0.0233 -0.1508 -0.0859
12559W        W29033   6.949   1.068  15.643 -0.1690 -0.2322 -0.3059
12560W        W29034   4.772   5.249  15.199 -0.2677  0.2455  0.3318
12561W        W29035   3.956   2.739   6.283  0.0079 -0.0455 -0.1003
12562W        W29036  10.618  12.477  15.956 -0.1184  0.2892 -0.1273
12563W        W29037  17.785   9.190   3.082 -0.0832 -0.2120  0.1715
12564W        W29038   0.719  17.154   3.755 -0.0863 -0.3130  0.0008
12565W        W29039  14.693   7.137  16.548  0.2910  0.0935 -0.3792
12566W        W29040   3.641  10.543  16.621  0.2341 -0.3570 -0.2137
12567W        W29041   3.488   4.267   2.812 -0.4218 -0.1897  0.0669
12568W        W29042  17.724  15.175  11.424 -0.0631 -0.1602  0.0703
12569W        W29043   3.911   1.107  11.961  0.1372  0.2294 -0.0700
12570W        W29044   2.265  11.051  14.736 -0.0636  0.2790 -0.3336
12571W        W29045  11.315   2.665  15.474 -0.0410 -0.0250  0.2073
12572W        W29046  13.998  12.783   2.966  0.1113 -0.0206 -0.3347
12573W        W29047   8.157  13.483   3.708  0.3594  0.0327  0.1290
12574W        W29048   5.901   9.492   0.433 -0.2004  0.0850 -0.3604
12575W        W29049  14.486  15.571   2.342 -0.4802  0.0670 -0.0395
12576W        W29050   6.656   4.106   5.670 -0.1882 -0.1033 -0.0265
12577W        W29051   5.039   4.861  12.517 -0.0651 -0.0420  0.1103
12578W        W29052  13.472   9.991   1.127 -0.2408  0.2217 -0.3774
12579W        W29053   8.258   4.566  12.553 -0.1460  0.1320  0.2639
12580W        W29054  13.816   4.350  14.600  0.0597 -0.0007 -0.1292
12581W        W29055  11.887   7.112  12.206  0.1118 -0.1480 -0.0196
12582W        W29056   3.072   8.433   5.319  0.4422  0.1171  0.3804
12583W        W29057   9.297  16.201   1.850  0.1481 -0.0553 -0.1858
12584W        W29058   3.151   3.346   2.468 -0.1637 -0.0700  0.0501
12585W        W29059   5.120  16.995   2.793 -0.3171  0.1933 -0.0436
12586W        W29060   4.139   0.234   2.750  0.1316 -0.0680  0.0139
12587W        W29061  17.600  10.672  12.339 -0.2014  0.1886  0.0882
12588W        W29062   2.780  15.013   1.919 -0.0067 -0.2621 -0.3397
12589W        W29063   3.019  11.926  11.891 -0.0651  0.3209 -0.2078
12590W        W29064   0.990   0.049  15.235  0.0966  0.4074  0.1329
12591W        W29065   3.472   8.201   3.002 -0.2109 -0.1761 -0.0711
12592W        W29066   7.031  11.341   5.661 -0.0390 -0.3348 -0.1319
12593W        W29067  12.873   3.029   3.488 -0.1981  0.4118  0.1221
12594W        W29068   6.463   5.686  15.928  0.0396  0.1505 -0.0339
12595W        W29069  15.738   3.771   5.671  0.1742  0.1008  0.0323
12596W        W29070   2.051  14.275  14.095  0.2294  0.0562 -0.0726
12597W        W29071   2.167   5.690   0.780 -0.2587  0.1156 -0.1314
12598W        W29072   6.591   9.091  12.289  0.1723  0.0954  0.0885
12599W        W29073   1.045   0.372  15.648  0.1018  0.1677  0.0261
12600W        W29074   9.023  12.318   2.232  0.1517 -0.3188  0.0922
12601W        W29075   9.370   2.842   3.303  0.2628 -0.1312  0.2908
12602W        W29076   2.094   7.281   2.391 -0.0369 -0.1708 -0.2683
12603W        W29077  14.734   9.673  15.616 -0.1281 -0.3267 -0.2713
12604W        W29078   4.989  11.932  16.424  0.1312 -0.2915  0.0331
12605W        W29079  15.984   2.358  13.085 -0.1559 -0.1857 -0.0355
12606W        W29080   3.447   8.743   3.906 -0.0010  0.2186 -0.0058
12607W        W29081  15.278   1.616   5.711 -0.2687 -0.2666 -0.2746
12608W        W29082  12.812   4.921   1.641 -0.0107  0.0486 -0.1837
12609W        W29083   9.159   5.642   4.130 -0.1614 -0.2380  0.1764
12610W        W29084   5.037  11.647   0.967  0.2119 -0.1973 -0.1864
12611W        W29085  17.242  11.091   2.778  0.0868  0.0205  0.1299
12612W        W29086  12.056   6.234   3.896  0.1319  0.3577 -0.2644
12613W        W29087   4.653  10.461   5.508 -0.0315 -0.0892 -0.1366
12614W        W29088  13.510  17.428   1.519  0.1525 -0.1110  0.1008
12615W        W29089   5.195   8.399  14.615 -0.1242 -0.0144 -0.1401
12616W        W29090   8.941  11.989   0.490 -0.0229  0.0766  0.3079
12617W        W29091   6.771   5.783   4.118  0.0705 -0.0237 -0.0016
12618W        W29092   2.164  12.577   0.615  0.0845  0.1538  0.1036
12619W        W29093   9.836   1.756  13.872  0.0076 -0.0976  0.3507
12620W        W29094   3.814   5.855   0.851  0.0208 -0.0312 -0.0775
12621W        W29095  11.723   1.094  14.491 -0.0225 -0.1330 -0.2172
12622W        W29096  13.645  15.823  15.082 -0.3112 -0.0058 -0.2523
12623W        W29097   2.289  12.741  11.070  0.0741 -0.0539 -0.0850
12624W        W29098   0.661   3.298  16.153  0.2703  0.0819 -0.1768
12625W        W29099   4.621  15.013   2.112 -0.1916 -0.0532 -0.2904
12626W        W29100   6.619   9.902  11.676  0.0902  0.0229  0.0062
12627W        W29101   9.895  17.096   2.596  0.1361 -0.2151  0.0369
12628W        W29102   6.960  17.101  13.023 -0.2157  0.0554 -0.0279
12629W        W29103  16.752  13.562   4.564 -0.1915  0.2226  0.1752
12630W        W29104  11.419  15.275  10.915  0.0075  0.2844  0.0525
12631W        W29105   0.214  11.168   2.042 -0.1102  0.3005 -0.2252
12632W        W29106   0.361  14.742   2.447  0.0367 -0.1525 -0.1097
12633W        W29107   9.233  13.277   4.625 -0.0423 -0.0776  0.0089
12634W        W29108  13.520  16.923  12.301  0.1873  0.1879  0.3483
12635W        W29109  16.728  15.082  15.951  0.1236  0.0899 -0.1625
12636W        W29110  14.367   1.964  13.640 -0.1840  0.0155 -0.2271
12637W        W29111  15.898  13.458   3.948  0.0417 -0.0295 -0.2662
12638W        W29112   6.795   0.496  13.982 -0.2072 -0.4675  0.1580
12639W        W29113  12.611  14.882   5.558 -0.0008  0.0320 -0.0164
12640W        W29114  11.075  14.905  12.764 -0.1344  0.0555 -0.1900
12641W        W29115   5.299  12.554   5.286 -0.1249  0.1553 -0.1450
12642W        W29116   0.507   0.709  14.788  0.0561  0.1260 -0.0892
12643W        W29117  11.120  13.744   3.492  0.4334 -0.1071 -0.0374
12644W        W29118   1.962  12.881  12.953  0.2720  0.1634 -0.2049
12645W        W29119  16.564  14.814  14.749 -0.1619 -0.0064  0.0499
12646W        W29120   0.416  16.323   1.999 -0.1323 -0.1992 -0.2551
12647W        W29121  10.437   4.956  15.663  0.0914 -0.1460  0.1114
12648W        W29122   3.576   3.171  15.488  0.0556  0.2678  0.1802
12649W        W29123   8.639   6.083   0.896 -0.1656  0.0415  0.2457
12650W        W29124   7.450   4.682   1.863 -0.1701 -0.1779  0.0277
12651W        W29125  17.747  16.853  11.842  0.5633  0.1083 -0.0799
12652W        W29126  12.808  13.175  16.019  0.0432 -0.1308 -0.0852
12653W        W29127  14.764  10.976  15.128  0.0149  0.2050  0.1915
12654W        W29128   6.388   9.330  12.854  0.2807  0.2654 -0.3900
12655W        W29129  11.522   1.860  11.835 -0.0946  0.1765  0.2038
12656W        W29130  11.605   8.229  15.824 -0.1462  0.1836  0.1938
12657W        W29131   2.986  15.266  11.660 -0.0115 -0.0504 -0.1156
12658W        W29132   2.502   8.638   3.721 -0.1659 -0.0250 -0.0104
12659W        W29133   3.413  11.215   2.496 -0.0654  0.0965  0.1081
12660W        W29134   2.326  10.286  11.601  0.0758  0.2402  0.4297
12661W        W29135  11.051   4.353   1.352  0.0892 -0.1649 -0.0225
12662W        W29136   5.231   6.219  11.596 -0.0382  0.0474  0.1066
12663W        W29137   9.565   6.624   2.255  0.0267  0.2024  0.1739
12664W        W29138   7.036  17.095  11.591  0.0208 -0.0043 -0.1377
12665W        W29139  13.215  16.798  14.874  0.0098 -0.0736 -0.2462
12666W        W29140   9.616  12.568  14.432 -0.0890 -0.2100  0.0131
12667W        W29141  13.929  16.698  15.051 -0.1562  0.0062 -0.1508
12668W        W29142  17.435  16.446  11.774 -0.3542 -0.0259 -0.0326
12669W        W29143  16.532  16.020  13.855  0.0832  0.3394 -0.1736
12670W        W29144  14.475   3.562   0.538  0.3986  0.0559 -0.0864
12671W        W29145   3.764  11.436   1.001 -0.3805  0.0117 -0.1403
12672W        W29146  13.753  13.231   2.494  0.2089  0.0810  0.1599
12673W        W29147  15.908  10.353  14.722 -0.1644 -0.0551 -0.1521
12674W        W29148  17.371   5.177   0.371  0.0600 -0.0018  0.1509
12675W        W29149  10.646  14.369  13.730  0.1429 -0.3637 -0.1886
12676W        W29150   4.282   8.905  13.303 -0.0620 -0.3399 -0.0978
12677W        W29151  16.744  12.178   4.924  0.0875 -0.1883  0.0451
12678W        W29152   7.826  13.097  15.758  0.1403 -0.1369 -0.0693
12679W        W29153   5.686   1.320  14.211 -0.0301  0.1135  0.1286
12680W        W29154  10.949   6.808  12.826 -0.1224 -0.0943 -0.1686
12681W        W29155   7.207   5.954  13.254 -0.0894 -0.2942 -0.1918
12682W        W29156  15.008   2.345   2.057  0.0049 -0.3698 -0.4136
12683W        W29157   7.902   4.956   2.079  0.0295 -0.1040  0.6058
12684W        W29158   8.340  12.830  15.694 -0.2774 -0.2561 -0.2653
12685W        W29159  11.683   7.050   2.968  0.1097 -0.1056 -0.1362
12686W        W29160   1.671  12.598  15.103  0.0221  0.1452 -0.0859
12687W        W29161  17.496  13.473  15.448  0.0753 -0.4420 -0.1005
12688W        W29162  12.658  11.947   4.950  0.2572  0.3205  0.0683
12689W        W29163  13.192  14.712  11.839 -0.1882  0.0287  0.0883
12690W        W29164   8.950   0.277   3.904 -0.0819  0.3279  0.3734
12691W        W29165  12.268   1.728   0.336 -0.1459 -0.0378 -0.2230
12692W        W29166   1.883   2.814  12.559  0.2369  0.1993  0.0508
12693W        W29167  15.305   9.204  14.991 -0.1268  0.1370  0.0042
12694W        W29168  17.790   4.092   5.571  0.2082  0.2403 -0.0419
12695W        W29169   4.872   4.921   3.597 -0.3523  0.2306  0.2508
12696W        W29170  11.107  15.389  11.327  0.2112 -0.1009  0.1349
12697W        W29171   7.759   4.600   0.996 -0.0008 -0.2340 -0.0080
12698W        W29172  11.312   2.860   1.312  0.1899  0.1878 -0.1312
12699W        W29173   8.292   1.669   6.506  0.3160 -0.1483  0.2274
12700W        W29174   5.455   1.327   1.714  0.2191 -0.0882 -0.1979
12701W        W29175   5.665  17.485   0.720  0.2270  0.1979 -0.0098
12702W        W29176  12.388  12.083  14.357 -0.0308  0.1075 -0.4276
12703W        W29177  16.275   9.934  11.763 -0.2367  0.1672  0.0583
12704W        W29178   6.972   1.279   1.851 -0.4481  0.0213 -0.3054
12705W        W29179   5.559  13.031   1.342 -0.3984 -0.1366 -0.0521
12706W        W29180  10.788   8.226  16.314 -0.3184 -0.1858  0.0510
12707W        W29181   1.153   8.828  15.865  0.1197 -0.0494 -0.1067
12708W        W29182   1.856   0.019  15.230  0.2870 -0.0650 -0.0848
12709W        W29183  10.764  14.849  15.576 -0.2064 -0.2507  0.1610
12710W        W29184   7.747  10.465   4.482 -0.2814 -0.0858  0.0969
12711W        W29185   3.710  12.278   3.735 -0.1904  0.2905  0.1519
12712W        W29186   1.669   6.849   2.433  0.1372  0.0913 -0.2319
12713W        W29187  11.452   1.638   0.816  0.0407 -0.1917 -0.1721
12714W        W29188   8.935   4.031  16.104 -0.2379  0.1365  0.0506
12715W        W29189  16.344   6.453   2.661  0.2972  0.1941  0.1737
12716W        W29190   5.749   9.326  16.871  0.2466  0.4119 -0.2291
12717W        W29191   8.817   9.404   4.361 -0.2947 -0.1557  0.0514
12718W        W29192   8.408   7.373  13.972 -0.0044  0.2791 -0.2425
12719W        W29193  13.112   3.077  16.874  0.1008  0.0975  0.1937
12720W        W29194  17.505   7.058   0.749  0.0021 -0.2518 -0.0640
12721W        W29195   1.593  16.617  16.115 -0.1912 -0.3132  0.1290
12722W        W29196  12.693  10.913   4.345 -0.0235  0.2733  0.2156
12723W        W29197  14.558  17.387  13.330  0.0014  0.2968 -0.1718
12724W        W29198   2.710  16.487  16.741 -0.1927  0.1162  0.0743
12725W        W29199   8.390   0.882  12.362  0.0189  0.3699  0.1427
12726W        W29200  12.889   8.012  12.570  0.2183 -0.0026  0.1761
12727W        W29201   9.383  13.775   4.563 -0.2030 -0.0752  0.0666
12728W        W29202  10.858   2.373  14.773 -0.3028 -0.0297  0.0004
12729W        W29203   5.603   3.957   4.002  0.1536  0.0784 -0.0474
12730W        W29204  17.137  15.384   4.479  0.1731  0.3278 -0.1751
12731W        W29205  14.249  14.523   2.089  0.0730 -0.1400 -0.0346
12732W        W29206   4.258   8.315  14.555 -0.3653  0.2925  0.1258
12733W        W29207  16.402  10.945   0.027 -0.0763 -0.0006 -0.3103
12734W        W29208  16.780   5.599  13.525  0.0469 -0.1460  0.1990
12735W        W29209   2.318  12.064   3.018 -0.0739 -0.0292 -0.1574
12736W        W29210   9.727   7.020   4.649 -0.1547 -0.3762 -0.0506
12737W        W29211  10.432   9.483  16.682 -0.4734 -0.0257  0.0858
12738W        W29212  11.922  17.399   5.581  0.1482  0.2138  0.0385
12739W        W29213   9.373  15.168   6.230  0.2103  0.1441  0.2283
12740W        W29214   1.105   5.495   1.278  0.0176 -0.0933  0.1750
12741W        W29215   0.765   5.248   3.393 -0.0692 -0.2868  0.2375
12742W        W29216   1.820  11.514  10.710 -0.0466  0.2465  0.2785
12743W        W29217  17.793  11.413   3.210 -0.0566  0.0566 -0.3842
12744W        W29218  12.882  13.207   2.853 -0.2233 -0.0233  0.2017
12745W        W29219   4.281   9.557  12.567  0.1995  0.3217  0.1020
12746W        W29220   1.227   2.941   4.696 -0.1307 -0.0624  0.0235
12747W        W29221   6.937  16.294   4.593 -0.3112  0.0789  0.1557
12748W        W29222   0.700   5.412  12.639 -0.2236  0.0795 -0.0348
12749W        W29223   7.219   2.194   5.294  0.2050  0.3768 -0.3065
12750W        W29224   7.542  11.144   4.807 -0.2812 -0.2222  0.0161
12751W        W29225   2.932  16.148  16.368  0.1031 -0.1113  0.1615
12752W        W29226  12.936  17.492   2.968 -0.3089 -0.1470  0.1073
12753W        W29227   2.463   2.203   4.006  0.0180 -0.3823  0.1639
12754W        W29228   5.223  17.151  12.608 -0.0591 -0.1607  0.1275
12755W        W29229  10.485  13.939  14.471 -0.1496 -0.0480 -0.0545
12756W        W29230   6.525  16.035  16.531 -0.2385 -0.1850 -0.0591
12757W        W29231  11.400  10.430  16.254 -0.0818  0.2198 -0.0863
12758W        W29232  10.983  10.203  15.432 -0.3122 -0.0771  0.0814
12759W        W29233  10.280  16.173   1.736  0.2810  0.0270 -0.0135
12760W        W29234   0.724   7.502  12.577  0.1589  0.1290  0.1984
12761W        W29235  13.080  14.568   6.410 -0.1500  0.1084 -0.1200
12762W        W29236  12.552  15.345  12.360 -0.2508  0.1693 -0.0078
12763W        W29237  12.576   8.779  12.119  0.1140  0.1545 -0.2248
12764W        W29238   4.847   8.992  15.734  0.0269 -0.2675 -0.0468
12765W        W29239   1.345   8.125  13.755 -0.0224  0.1273 -0.1310
12766W        W29240  14.940   2.302   5.121  0.1100 -0.0838  0.2424
12767W        W29241  12.633   6.191  15.104 -0.0855 -0.1196  0.0720
12768W        W29242   6.935   6.927   5.397  0.1076 -0.1184 -0.0007
12769W        W29243   3.631  10.855  13.416  0.0609 -0.1451  0.0698
12770W        W29244  10.252  12.466   3.996  0.2257  0.2659 -0.0613
12771W        W29245   7.791   0.752  14.706  0.2992 -0.0343 -0.0630
12772W        W29246   0.818  17.361  13.037  0.1917 -0.0338  0.0249
12773W        W29247  14.637   5.489  14.337  0.0102  0.1107  0.1835
12774W        W29248  12.843   2.731   0.176 -0.0493  0.0094 -0.1211
12775W        W29249   4.038   8.035   3.746 -0.1956  0.1005 -0.0265
12776W        W29250  10.222  13.819   4.368 -0.0476  0.0165  0.3151
12777W        W29251  13.173   9.467  15.229 -0.1917  0.0520 -0.0840
12778W        W29252   0.564   1.939   0.431 -0.0081 -0.1105  0.0740
12779W        W29253   8.985  15.801   0.095  0.1580  0.0042 -0.0064
12780W        W29254   4.268  12.289   3.999 -0.0060  0.0210 -0.0267
12781W        W29255  13.289   7.831   6.627 -0.2607  0.2466  0.0113
12782W        W29256   9.492  16.669   1.762 -0.1612  0.0596 -0.0411
12783W        W29257  13.982   5.921   2.864 -0.0885 -0.1452 -0.1762
12784W        W29258   9.200   8.106   0.207 -0.0978  0.0511 -0.2399
12785W        W29259   5.279   8.013   2.031  0.1285 -0.1994  0.0928
12786W        W29260  14.177  17.302   4.896  0.2087  0.2730 -0.0849
12787W        W29261   1.037  10.337   1.531  0.0250 -0.0107  0.1780
12788W        W29262   9.915   5.105   1.292 -0.0345  0.1137 -0.0324
12789W        W29263  16.638   1.312  12.058 -0.1284  0.1179 -0.2540
12790W        W29264   4.537   5.749  16.308  0.2462 -0.0400  0.0751
12791W        W29265   7.797   0.250   4.622 -0.0879  0.1151  0.0908
12792W        W29266  11.475  15.194   5.646  0.1157  0.0834  0.0203
12793W        W29267  14.929  10.575   1.098  0.0952  0.4178 -0.0320
12794W        W29268  12.114   1.268  13.396  0.1748  0.0863  0.0292
12795W        W29269  17.367  14.454   3.022 -0.0955  0.2437 -0.0193
12796W        W29270   2.646   2.250   1.749  0.2831 -0.0816 -0.1767
12797W        W29271  12.920  11.066   2.832  0.0950  0.0547 -0.0231
12798W        W29272  14.260   0.371  16.397  0.2241 -0.1133 -0.3314
12799W        W29273   9.833  14.652  14.367  0.0040  0.1470 -0.2502
12800W        W29274  14.955   5.574   2.939  0.1144  0.1728 -0.1261
12801W        W29275   7.508   5.667  13.602 -0.0810 -0.1652 -0.1928
12802W        W29276  13.091  16.509  14.390 -0.2406  0.2779  0.2398
12803W        W29277   9.576   9.974  13.741 -0.0131  0.1172 -0.0312
12804W        W29278  11.832  13.812   2.889 -0.0357  0.2298 -0.1121
12805W        W29279  17.083  12.841  14.735 -0.0511  0.0235  0.1887
12806W        W29280   9.376   3.449   4.240 -0.0102  0.1131 -0.0569
12807W        W29281  13.568  11.815   3.947 -0.0632  0.0760 -0.0228
12808W        W29282   9.822  11.040  11.030 -0.2883  0.0576 -0.1465
12809W        W29283  10.323   2.185   1.872  0.1940  0.3945  0.0432
12810W        W29284  11.461   1.243   5.697 -0.2525 -0.0774 -0.0245
12811W        W29285   7.191  12.182   6.154  0.1796  0.1578 -0.2028
12812W        W29286   8.112  10.527  14.291 -0.3090 -0.0542 -0.2787
12813W        W29287   9.519  12.562   5.508  0.1393  0.0549 -0.0930
12814W        W29288  15.316   4.289  13.847  0.2120 -0.1025  0.0507
12815W        W29289  15.664  15.035   3.038  0.1963 -0.0989  0.2180
12816W        W29290   7.787   6.792  15.467  0.0762 -0.1423  0.4081
12817W        W29291   3.945  11.825  11.345  0.0488 -0.1268  0.2756
12818W        W29292  10.297  17.337  11.395 -0.0280 -0.1445 -0.1770
12819W        W29293  17.402   4.377  13.845  0.0399 -0.1367 -0.1892
12820W        W29294  15.714   8.263   5.474 -0.1425 -0.3048 -0.0449
12821W        W29295  16.125   9.161   4.963 -0.0051 -0.0972  0.4569
12822W        W29296  11.445  10.886   0.159 -0.0800 -0.2793  0.1245
12823W        W29297   4.405   6.733   0.850  0.2379  0.0108  0.0667
12824W        W29298   4.745   0.627   1.894 -0.0266 -0.0028  0.1139
12825W        W29299   0.538  12.142   3.699 -0.0473  0.0915 -0.1775
12826W        W29300   9.166   6.826   6.010  0.2435  0.2134 -0.0437
12827W        W29301   9.996   5.753   0.076 -0.0279  0.3192 -0.2201
12828W        W29302   7.818   8.033   0.637  0.2138  0.0292  0.0078
12829W        W29303  15.885  10.527   3.457  0.0822 -0.0821 -0.0145
12830W        W29304  13.377   7.989  12.364  0.0262  0.0048 -0.2871
12831W        W29305   7.775  16.333  11.340 -0.2865  0.0713 -0.3361
12832W        W29306   6.181  14.736  16.204  0.1141  0.1314  0.0097
12833W        W29307   6.591  15.169  16.856 -0.1518 -0.2081  0.0728
12834W        W29308  12.391   4.007   5.426  0.1742  0.0874 -0.2165
12835W        W29309   6.860  12.414  14.891  0.1957 -0.1693  0.2436
12836W        W29310   9.822  13.306   2.622  0.3766 -0.1292  0.2473
12837W        W29311   8.305   5.525   2.749  0.0048 -0.2001  0.0407
12838W        W29312   0.534   1.880  14.429 -0.0947 -0.2846  0.6721
12839W        W29313   5.752   4.380  12.436 -0.2506  0.0116 -0.1420
12840W        W29314  17.619  10.010   4.548 -0.1300  0.1208  0.3366
12841W        W29315   5.081   1.250  15.337  0.0463 -0.0579 -0.0953
12842W        W29316   6.478  14.591  15.767  0.0985 -0.0758  0.1232
12843W        W29317  10.890   7.821   1.141  0.0502  0.0343 -0.0326
12844W        W29318   3.654   8.958   0.626  0.0732 -0.0909  0.2380
12845W        W29319   6.365   8.850   3.689  0.0110 -0.2026  0.1274
12846W        W29320   5.366   1.677   2.546 -0.4205 -0.1130  0.2847
12847W        W29321   8.761  12.104   4.377 -0.0428 -0.0551 -0.0951
12848W        W29322   4.682  11.186  10.321  0.3274  0.2052 -0.0156
12849W        W29323   6.193  10.872   1.355  0.0481 -0.4969 -0.0239
12850W        W29324   2.939  11.816  14.120 -0.4142 -0.0453 -0.2446
12851W        W29325   3.411   7.530  16.143 -0.0687 -0.0309  0.1609
12852W        W29326  14.142  10.924  14.164 -0.1693  0.0314 -0.1999
12853W        W29327  16.570   6.894   2.690  0.2224 -0.2695  0.0702
12854W        W29328   8.738   0.723  12.010  0.1101 -0.2854  0.2072
12855W        W29329   4.877   3.581   1.592 -0.3717  0.1610  0.0081
12856W        W29330  11.930   8.803   4.918  0.1732  0.2208  0.4201
12857W        W29331  15.270   0.672   3.528 -0.1260  0.4865  0.0548
12858W        W29332  14.479   0.862   5.169 -0.1089  0.1105  0.0311
12859W        W29333   1.712   0.307  16.154 -0.1562 -0.0098  0.2250
12860W        W29334   9.581   9.510   2.687 -0.0511 -0.1043  0.3364
12861W        W29335   5.499   5.967   2.749 -0.0931  0.0303  0.0788
12862W        W29336  16.724  12.847   4.282  0.1498 -0.1674 -0.0629
12863W        W29337   4.367   8.405   2.993 -0.0099 -0.0581 -0.0498
12864W        W29338   8.301  14.252   6.338  0.0491  0.0661  0.1680
12865W        W29339   9.897   3.493   4.428  0.0816  0.0245  0.0681
12866W        W29340  15.508   4.203   1.260 -0.1865  0.1500 -0.1578
12867W        W29341   4.534  14.914  14.194  0.1973  0.2354 -0.0460
12868W        W29342  13.724  10.903  13.818  0.2416  0.0901 -0.2322
12869W        W29343  15.098  13.009   1.346 -0.2866  0.0384  0.2435
12870W        W29344  12.114   2.552   1.221  0.1943 -0.1634 -0.1370
12871W        W29345   8.750   4.241  15.067  0.0797  0.1548  0.1547
12872W        W29346  13.099   3.100  13.709  0.2050  0.0277 -0.0498
12873W        W29347   0.519  14.283  13.885 -0.2185 -0.0564  0.1728
12874W        W29348   5.416  15.125   2.188  0.0965  0.1882 -0.2345
12875W        W29349  12.660   7.915   3.127 -0.4169 -0.0799  0.1185
12876W        W29350  13.181   9.386   5.336  0.2929  0.0927 -0.1529
12877W        W29351  16.298   8.312   4.225  0.0508 -0.2697  0.2376
12878W        W29352   3.970   0.430   4.216 -0.0479 -0.1587 -0.0235
12879W        W29353   4.920  16.662   1.794  0.1725  0.3690 -0.1147
12880W        W29354   3.736   1.316   3.186  0.2869 -0.1050 -0.1100
12881W        W29355   0.000  10.569  13.191 -0.0058  0.1995  0.0544
12882W        W29356   6.975   8.574  15.799  0.4507 -0.0339  0.1365
12883W        W29357   4.109   4.859  11.542 -0.0618  0.2233  0.3338
12884W        W29358   4.643  11.013   2.611  0.2232  0.1254  0.1304
12885W        W29359   3.550   8.182   3.803  0.2664  0.0988  0.2939
12886W        W29360  14.283  11.833  14.681 -0.0855 -0.1871 -0.3026
12887W        W29361   0.554  17.791  13.017  0.0055 -0.1904  0.0586
12888W        W29362   0.542   0.392   0.586 -0.1292 -0.3422  0.0672
12889W        W29363  13.748  16.006  13.825 -0.1780  0.0791 -0.2619
12890W        W29364   6.184   3.714   1.292 -0.0668  0.1715  0.0168
12891W        W29365   0.705   0.573  12.723 -0.0213 -0.0996  0.0843
12892W        W29366   3.466   4.483   0.663 -0.0714 -0.3245  0.2596
12893W        W29367  10.982   3.995  12.973 -0.1191  0.0643 -0.1343
12894W        W29368  17.156  14.682   3.516  0.1353  0.3539 -0.2278
12895W        W29369  15.564   1.970  12.219  0.1287 -0.0491 -0.3025
12896W        W29370  14.869  14.241  13.971  0.0460 -0.2433 -0.1074
12897W        W29371   6.045   7.656  11.723 -0.1285  0.3484 -0.1839
12898W        W29372   5.880  10.168   1.767 -0.1421  0.2561  0.1244
12899W        W29373  11.175  11.105   1.844 -0.1678 -0.1200  0.1251
12900W        W29374   3.048  10.136  14.306 -0.0509 -0.2456  0.3285
12901W        W29375  15.963   1.247  13.634 -0.1012  0.0956  0.1788
12902W        W29376   0.476  17.156   1.692  0.0461  0.1802  0.0168
12903W        W29377   3.161  10.790   0.286  0.0683 -0.1852 -0.1582
12904W        W29378   3.473   0.253   4.098 -0.1935  0.1868  0.0864
12905W        W29379   3.834  17.771   2.446 -0.1896  0.2734 -0.0998
12906W        W29380   4.597  14.371   4.147  0.1810 -0.0100 -0.0095
12907W        W29381   1.258   7.288  16.245 -0.1146  0.0510 -0.0634
12908W        W29382  13.218   1.715  14.842 -0.1198  0.5724 -0.0504
12909W        W29383   3.808   6.621  15.090 -0.0677 -0.0143 -0.2693
12910W        W29384  10.264   9.893  15.049 -0.2895 -0.3971  0.2917
12911W        W29385   7.300   1.905  12.051  0.0022  0.1497  0.0379
12912W        W29386   8.086   5.035  14.093  0.0926  0.1320 -0.1738
12913W        W29387  14.628   2.740  12.646  0.0420  0.0588 -0.1626
12914W        W29388  17.543   5.926  15.597 -0.0898 -0.1694 -0.2151
12915W        W29389  12.144   3.706  13.418  0.1063  0.1659  0.0064
12916W        W29390   1.467   4.536   2.274  0.0909  0.0555 -0.0183
12917W        W29391  10.324   5.323  15.237 -0.2968 -0.0717  0.3369
12918W        W29392   3.259   1.129  16.035 -0.0196 -0.1443  0.3962
12919W        W29393   0.819  13.732  12.761 -0.1918 -0.2168  0.0986
12920W        W29394  14.262  12.137   2.072  0.1589 -0.2395  0.0797
12921W        W29395  12.101   8.947   1.248  0.0787 -0.2975 -0.0700
12922W        W29396   1.822   4.428   4.610 -0.0164  0.1137  0.1413
12923W        W29397  12.384   4.119  11.891  0.1452  0.0497  0.2814
12924W        W29398   4.713   5.394  10.767  0.2428  0.1807  0.0427
12925W        W29399  16.651   6.403   2.234  0.0566  0.0398  0.2856
12926W        W29400   7.879   5.202  15.822 -0.0085 -0.1925 -0.2511
12927W        W29401   1.584  16.970   3.702  0.0900  0.1411 -0.4664
12928W        W29402   8.125   9.799   2.236 -0.1243  0.0466  0.0988
12929W        W29403  12.228  12.524  12.745 -0.1203  0.1140 -0.2646
12930W        W29404   7.697  13.630  15.699 -0.0879  0.2022  0.0244
12931W        W29405  16.524  11.378  15.508  0.1915 -0.1339 -0.0509
12932W        W29406  10.626  11.607  11.867 -0.1090  0.4056 -0.0415
12933W        W29407   6.948   0.941  14.276 -0.1165 -0.0648 -0.0382
12934W        W29408   3.852  14.158  16.747  0.0536  0.2410  0.2472
12935W        W29409   2.634  11.160   3.194 -0.2170  0.0695 -0.0965
12936W        W29410   5.040  14.502   2.916 -0.1806  0.2121  0.1528
12937W        W29411  10.081  13.377   4.245  0.0569 -0.2081  0.0454
12938W        W29412  10.507  16.620  13.996 -0.1370  0.0559  0.2102
12939W        W29413   9.282  11.766  14.205  0.2750  0.1636  0.0207
12940W        W29414   6.023  11.160  15.272  0.2618  0.1138  0.3232
12941W        W29415  12.649  13.900   5.215  0.0997 -0.0016  0.0407
12942W        W29416  12.578   3.393  13.537  0.1990  0.3182  0.0596
12943W        W29417  11.908   0.881   2.231 -0.0161 -0.2066  0.1116
12944W        W29418  16.655  14.872  15.366 -0.0116  0.1438  0.0026
12945W        W29419   1.961   6.126   4.590 -0.0627 -0.3037 -0.4644
12946W        W29420  10.167   3.118  15.192  0.0045  0.0578  0.1716
12947W        W29421  16.955  12.860  13.005  0.1652  0.0910  0.1509
12948W        W29422  14.780  12.440  16.899  0.4188 -0.1711 -0.0273
12949W        W29423   6.460  14.511   3.921 -0.1669 -0.1078 -0.3719
12950W        W29424   1.026   8.990   4.404 -0.0817 -0.1482  0.0353
12951W        W29425   1.181   2.561  16.194  0.1814  0.0895  0.0260
12952W        W29426   0.110  17.493  13.668  0.2099  0.0924  0.0048
12953W        W29427   7.445   0.429   4.339 -0.2302 -0.0400  0.3236
12954W        W29428   6.447   3.467   4.023 -0.1447  0.0385 -0.0385
12955W        W29429   2.806  12.276   5.380  0.3102  0.2726 -0.0232
12956W        W29430   2.659   4.509   4.701  0.2175 -0.0348  0.1249
12957W        W29431   6.917   4.865   0.416  0.1901 -0.1380 -0.1093
12958W        W29432  11.164  12.982   0.937 -0.2552 -0.1372 -0.0026
12959W        W29433  15.699  16.998  16.158 -0.0993 -0.0055 -0.2248
12960W        W29434  10.135   0.669   6.507  0.0455  0.1547  0.0052
12961W        W29435   2.639   2.832  13.891  0.1243 -0.2127  0.0998
12962W        W29436   4.909   3.613   5.998 -0.5020 -0.0041  0.1401
12963W        W29437  11.853   0.456  11.935  0.1726  0.1164  0.1473
12964W        W29438   2.378   0.950  15.828  0.0936 -0.0699 -0.2004
12965W        W29439   2.530   7.682   4.056 -0.0009  0.1001  0.3389
12966W        W29440  11.328   8.995   4.256 -0.0981  0.3216  0.1230
12967W        W29441  10.696   2.815   2.423  0.0339  0.2262  0.0939
12968W        W29442  12.883   7.359   5.107 -0.3363 -0.0527 -0.2775
12969W        W29443   5.615   6.774   5.722 -0.1725  0.0508 -0.0362
12970W        W29444  10.745   8.645   5.051  0.1467 -0.0280 -0.0358
12971W        W29445  11.156   1.434   4.768  0.1049 -0.3699  0.1535
12972W        W29446  14.193   2.626  14.716 -0.0890  0.0678 -0.1077
12973W        W29447  16.047   6.347   4.672  0.0099  0.0590  0.1810
12974W        W29448   8.637  14.849   3.233 -0.2042  0.4173 -0.1747
12975W        W29449  14.509  10.682   5.864 -0.0499  0.0273 -0.0660
12976W        W29450  12.833   9.996  12.005 -0.1298 -0.0089 -0.0231
12977W        W29451   5.874   2.489   4.652 -0.2262 -0.0718  0.1067
12978W        W29452   2.053   2.937  15.931 -0.1543 -0.2842  0.1302
12979W        W29453  11.363   8.248   3.748  0.1904 -0.0558 -0.0211
12980W        W29454  16.939   6.869  11.821 -0.1042 -0.4844  0.0579
12981W        W29455  13.371   1.862  16.483  0.1774 -0.0836 -0.0871
12982W        W29456   0.908   2.858  13.152 -0.1760 -0.0953 -0.4740
12983W        W29457   2.317   6.048  15.194 -0.3150  0.0698 -0.1008
12984W        W29458  14.249   2.785   1.476  0.1440 -0.1684 -0.0222
12985W        W29459  11.695  16.450  11.665 -0.2991 -0.3232 -0.0207
12986W        W29460  10.365  14.506   2.324 -0.1820 -0.0565  0.0838
12987W        W29461  14.243   3.615  15.860  0.2413  0.1759 -0.2435
12988W        W29462  17.744  11.953   1.939 -0.2679 -0.0361 -0.0042
12989W        W29463   1.663   9.458  14.745  0.2966  0.0263  0.0083
12990W        W29464  11.124   6.016   4.170 -0.0904 -0.1784 -0.0205
12991W        W29465   2.814  12.239   4.874 -0.1151 -0.2821 -0.1399
12992W        W29466   2.496   9.567  12.385 -0.1369 -0.2975 -0.0510
12993W        W29467  10.488  12.014   5.758 -0.0788 -0.0347  0.1734
12994W        W29468   3.240  17.496  13.475  0.0457 -0.2264  0.0119
12995W        W29469   6.967  11.643  11.885 -0.2053  0.2311 -0.1229
12996W        W29470  17.263   0.208  12.524  0.0239  0.1747  0.0668
12997W        W29471   3.492   1.326   2.055  0.0325 -0.1690 -0.0170
12998W        W29472  16.919   8.937  12.257 -0.0641  0.2914  0.1371
12999W        W29473  16.200  15.906   2.908  0.1402  0.0108 -0.1308
13000W        W29474  15.638  13.136   1.585 -0.0677 -0.2747 -0.1234
13001W        W29475   8.936   9.166  15.685 -0.0114 -0.0721 -0.0608
13002W        W29476  10.073   9.993   4.802  0.0280 -0.3351  0.1129
13003W        W29477  11.100   5.284   2.590  0.1040 -0.2550  0.1340
13004W        W29478  15.790   3.644  13.542 -0.0498 -0.0170  0.1488
13005W        W29479   6.662  10.554   5.265 -0.3117  0.1429 -0.0270
13006W        W29480   0.122  12.956   0.213  0.0150  0.0976 -0.3540
13007W        W29481   3.207  10.619   1.164  0.0234  0.0590  0.1485
13008W        W29482  10.176  12.512   1.604  0.1299  0.0322 -0.2653
13009W        W29483  11.914   9.062  12.666  0.1332  0.0215 -0.0383
13010W        W29484  13.734  15.749  12.014  0.0185 -0.0437 -0.2839
13011W        W29485  12.977  10.916   0.684  0.0050 -0.0895  0.2061
13012W        W29486  14.836   4.498  13.979  0.0489 -0.0158  0.0375
13013W        W29487   1.278  14.283  15.295 -0.0105  0.0283  0.2035
13014W        W29488   5.053   9.833   0.539  0.1036 -0.1442  0.1035
13015W        W29489   6.610   2.434  15.854  0.2478  0.0522  0.4440
13016W        W29490   5.258  17.443   2.997  0.1736  0.0137 -0.1419
13017W        W29491   5.246  15.883   2.065  0.0269  0.0630 -0.3623
13018W        W29492   2.486  14.871  12.075  0.4473 -0.1575  0.0118
13019W        W29493  15.613   2.951  12.342 -0.1882  0.1911  0.0757
13020W        W29494   8.411  15.905  14.338 -0.0733  0.0724  0.2503
13021W        W29495   0.157  15.651  16.598 -0.2115  0.0487  0.0919
13022W        W29496  14.061  15.111   0.662  0.1844 -0.0084  0.0361
13023W        W29497  14.134   3.995   2.555 -0.0185 -0.1931  0.0308
13024W        W29498  14.438   7.364   3.716  0.1903  0.1031  0.1216
13025W        W29499   3.155  13.815  15.605  0.1477  0.1569 -0.2743
13026W        W29500   3.724  11.336  13.132  0.2013 -0.1273 -0.1523
13027W        W29501   1.423   5.236  15.894 -0.2215  0.1136  0.1899
13028W        W29502  10.424   4.465  14.068  0.0105 -0.3757  0.1190
13029W        W29503   4.456   6.610   1.862 -0.2447 -0.0137 -0.2914
13030W        W29504   9.168   5.297   4.889 -0.1951 -0.2409  0.2286
13031W        W29505  15.448  11.203   0.618 -0.2915  0.1675 -0.4080
13032W        W29506  16.706   7.718  14.565 -0.1212  0.1497 -0.0904
13033W        W29507   9.747  14.096  12.511 -0.2006 -0.2152 -0.0393
13034W        W29508  15.320   6.546   5.611  0.1191 -0.1341  0.0682
13035W        W29509  13.200   7.338  13.566 -0.1027  0.5962 -0.3187
13036W        W29510  13.391  15.258   4.702  0.0172 -0.0596  0.0541
13037W        W29511  14.776   4.396  15.937  0.0323 -0.0200  0.0910
13038W        W29512  11.034  11.553  13.417  0.0200 -0.3280  0.0029
13039W        W29513   7.854   4.279   0.085  0.0165 -0.0175 -0.3485
13040W        W29514  14.277  14.847   1.584  0.0429 -0.3101 -0.2718
13041W        W29515   4.696   8.400   0.010  0.0198 -0.1597  0.3422
13042W        W29516   1.239   5.360  13.142 -0.3572  0.1304 -0.2997
13043W        W29517  14.284  12.778   1.515  0.3152 -0.0317  0.1022
13044W        W29518  13.612   9.604  12.391 -0.0749 -0.0195 -0.6343
13045W        W29519   0.728  15.434   4.001  0.1614 -0.0669  0.2992
13046W        W29520   8.297  15.956  13.342 -0.0226 -0.3113 -0.0240
13047W        W29521   3.190  15.207   4.393  0.0864 -0.1030  0.1280
13048W        W29522  15.937  16.661   4.693 -0.1060  0.0206  0.0954
13049W        W29523   1.421  17.719  15.055 -0.1215  0.1148 -0.1493
13050W        W29524   3.906  17.431   4.446 -0.3014  0.1656 -0.3438
13051W        W29525   6.510   0.385  16.361  0.1142 -0.1575  0.4310
13052W        W29526   5.504   1.421  16.816  0.1176  0.3701 -0.2470
13053W        W29527   2.039   2.571  12.046  0.0999 -0.1580 -0.0836
13054W        W29528   9.933  10.949   3.772  0.0321  0.0420 -0.0711
13055W        W29529   9.364   3.125  16.329 -0.1013  0.0556  0.1295
13056W        W29530   9.933  11.865  14.942  0.1909  0.3418 -0.0430
13057W        W29531  12.918   6.301   0.643 -0.2273 -0.1116 -0.1052
13058W        W29532   1.081  15.283   3.698 -0.1646 -0.0918  0.0964
13059W        W29533   7.634   3.041  14.010 -0.0356  0.4404  0.3139
13060W        W29534   3.490   0.501   3.090 -0.0190  0.2281 -0.2191
13061W        W29535   2.235  14.192  11.551 -0.0543 -0.3977  0.0500
13062W        W29536   5.135   2.363  16.118  0.2066 -0.0392  0.2596
13063W        W29537   0.910  15.557  13.675 -0.4039 -0.1243 -0.1176
13064W        W29538  12.146   9.205  12.190  0.4009 -0.2512 -0.0564
13065W        W29539  15.180   3.221   5.054 -0.1551  0.0837  0.1895
13066W        W29540   4.339  16.938  13.719  0.0534  0.0434  0.1161
13067W        W29541   1.435   8.424  14.729 -0.0306 -0.2462  0.0662
13068W        W29542   9.262   4.315   5.405 -0.0301 -0.0694 -0.2844
13069W        W29543   5.176   4.190   0.873 -0.0975  0.0456  0.2742
13070W        W29544  15.261   6.652  11.958  0.0257 -0.4473 -0.1911
13071W        W29545  14.432  12.659   0.759 -0.1672 -0.1528 -0.1972
13072W        W29546   4.335  14.731  13.620 -0.0010  0.1033  0.2392
13073W        W29547   8.043   5.825   0.989  0.2494 -0.0822  0.1898
13074W        W29548  10.877  17.076  14.010  0.2301 -0.1995 -0.0811
13075W        W29549  14.612  15.706   5.082 -0.0345 -0.0094 -0.0698
13076W        W29550  17.225   1.840  15.278  0.2335 -0.0719 -0.2299
13077W        W29551  15.327   8.935   4.469 -0.1897 -0.0831  0.1536
13078W        W29552   5.023   2.490   0.556 -0.4453  0.0102 -0.0818
13079W        W29553  12.160  14.855  12.372 -0.1133  0.0339 -0.0210
13080W        W29554   7.484   2.555  14.003  0.0799  0.3309  0.1974
13081W        W29555   9.365  13.545   5.020 -0.0901 -0.0957  0.0658
13082W        W29556   1.238   3.260  11.935 -0.0208  0.0197  0.1354
13083W        W29557  16.342  16.264  15.378  0.1158  0.2499  0.4072
13084W        W29558  11.028  14.609   4.465 -0.0419  0.1424 -0.1481
13085W        W29559  10.731   1.090   2.608  0.2634 -0.3294 -0.2329
13086W        W29560  10.981   8.720   0.762 -0.2156 -0.2934  0.0052
13087W        W29561  17.280   0.119  12.028 -0.0606 -0.2082 -0.4143
13088W        W29562   6.163  11.433   4.089 -0.0004  0.1557 -0.1253
13089W        W29563  16.166  14.167   0.877  0.0522 -0.4129 -0.1577
13090W        W29564   3.253   7.918  12.946 -0.0640 -0.1498 -0.2803
13091W        W29565  16.832   2.253   5.120 -0.2223 -0.1567 -0.4392
13092W        W29566   7.692  17.128  12.479  0.0100  0.2529 -0.2169
13093W        W29567   7.116  11.942   3.592  0.0797  0.0512  0.2103
13094W        W29568   8.003   7.251   5.488 -0.0524 -0.2873 -0.0915
13095W        W29569  14.223   6.264   2.059  0.1792  0.1650  0.1269
13096W        W29570   9.033  17.363   0.613 -0.0229 -0.1493 -0.0787
13097W        W29571  15.371  15.164   5.240  0.0689 -0.2774 -0.2467
13098W        W29572   0.582  17.040   2.625 -0.0103  0.0335  0.1880
13099W        W29573  15.395  14.083  11.583  0.1018  0.0059  0.1467
13100W        W29574  12.227   6.672   5.308  0.1555 -0.2702  0.0256
13101W        W29575   0.751   2.761  15.399  0.0162  0.0790  0.2250
13102W        W29576  11.322  11.450   5.943 -0.1270  0.0053 -0.0165
13103W        W29577   2.092   1.111  13.455 -0.0812  0.0030 -0.0076
13104W        W29578   0.335   2.484  15.606 -0.2753 -0.1732  0.0153
13105W        W29579  15.810  11.979  11.580 -0.1651 -0.3061  0.0181
13106W        W29580  12.996  11.614   4.654  0.1996 -0.0074  0.0267
13107W        W29581  10.412   8.079  15.991  0.0725 -0.0476 -0.0564
13108W        W29582   5.505   9.635  11.795 -0.1301  0.1646  0.1928
13109W        W29583   3.419  17.762   1.666 -0.2458 -0.1087  0.1070
13110W        W29584  11.588   4.907   5.470 -0.1384  0.0888  0.1734
13111W        W29585  15.519   4.965  15.164 -0.2333 -0.0000 -0.0126
13112W        W29586   4.560   2.221  12.491  0.2268  0.1605 -0.1015
13113W        W29587   4.499  12.941   0.896 -0.2997  0.2687  0.0136
13114W        W29588  13.731   9.891   4.149  0.2999  0.1692 -0.0935
13115W        W29589   4.633   8.941   3.484  0.0472  0.2928  0.0838
13116W        W29590   6.942  11.804   2.130 -0.1082 -0.2032  0.2613
13117W        W29591  13.177  12.484  14.246  0.0179 -0.0770 -0.0699
13118W        W29592  14.958   7.634   5.012 -0.4370 -0.2097  0.0724
13119W        W29593   5.302   7.616  13.940  0.0008  0.4379 -0.0001
13120W        W29594  17.126  10.369   3.876  0.0151 -0.0094  0.2002
13121W        W29595   5.739   1.511  13.639  0.2387  0.5387  0.0625
13122W        W29596  15.769   6.173   1.242 -0.1434 -0.1351 -0.2041
13123W        W29597   3.500  13.911  14.277  0.0992 -0.1007  0.2864
13124W        W29598   2.350   5.450  15.074 -0.0931  0.2503 -0.3406
13125W        W29599   1.024  17.740   3.277 -0.0388 -0.1347 -0.1217
13126W        W29600  14.603  14.155  13.579 -0.2954 -0.1228 -0.2563
13127W        W29601   2.531  11.623  15.990  0.1924  0.3314  0.2074
13128W        W29602   1.074   0.181  13.632  0.0612  0.0597  0.4922
13129W        W29603   6.455   1.511  14.799 -0.0293 -0.2505  0.4920
13130W        W29604   2.930  11.578  15.625  0.0728  0.2007  0.0160
13131W        W29605  16.220   7.711   4.648  0.1066  0.0299 -0.0265
13132W        W29606  13.700   1.428   1.231 -0.2238 -0.1130  0.0910
13133W        W29607  13.764   1.210  13.823 -0.1826 -0.1744  0.0647
13134W        W29608  13.090  10.520   6.250 -0.1601  0.1439 -0.2412
13135W        W29609  11.586   3.418  15.629  0.1520  0.3737  0.3058
13136W        W29610   4.760   5.354  16.658 -0.0394  0.0179 -0.2114
13137W        W29611   9.912   0.551  14.784  0.0057 -0.1384  0.1040
13138W        W29612   4.560  16.555  12.112 -0.0286  0.1192  0.1558
13139W        W29613   4.017   3.884   1.933 -0.3486 -0.1302 -0.0079
13140W        W29614   9.726   4.681  16.295  0.3756 -0.3214 -0.1253
13141W        W29615  14.819  10.008  16.903 -0.1529  0.1854 -0.3057
13142W        W29616   2.078   3.435   4.426  0.2691 -0.0237  0.1555
13143W        W29617   8.335  16.505  15.014 -0.2644  0.2762 -0.3489
13144W        W29618   9.354   7.633   5.302 -0.2731  0.1656  0.0791
13145W        W29619   1.823   3.341  11.832 -0.0475  0.2531 -0.1121
13146W        W29620   3.128  15.264  16.708 -0.0837  0.1682 -0.0556
13147W        W29621   9.891  10.955  11.582  0.2145  0.0623 -0.1640
13148W        W29622   9.982  10.084  15.573 -0.0258  0.0058  0.1242
13149W        W29623   1.813   2.879   0.555 -0.2387  0.0790 -0.3581
13150W        W29624   7.048  15.916  14.079  0.0436 -0.0561 -0.1304
13151W        W29625  15.697   4.516  16.923 -0.1313 -0.3958  0.0011
13152W        W29626  12.451   7.308   3.838  0.1151 -0.1131 -0.2281
13153W        W29627  11.859   8.911   2.472  0.1238  0.1109  0.2757
13154W        W29628  13.081   5.273   1.897 -0.0880  0.0590 -0.0285
13155W        W29629   9.146   8.903  14.162  0.0675 -0.0263  0.0926
13156W        W29630   1.486  17.300  15.445 -0.0104  0.3114 -0.0318
13157W        W29631   6.399  15.599  12.374  0.2188  0.2805  0.0456
13158W        W29632  12.373   5.861   3.060  0.0565  0.1028 -0.1631
13159W        W29633  11.487   9.030  12.329  0.1303 -0.2339 -0.0197
13160W        W29634   1.459  11.039   1.856  0.1083  0.3642  0.1226
13161W        W29635   8.017   8.034  13.516  0.1451 -0.1017 -0.0969
13162W        W29636   6.147   8.147   5.034  0.1517 -0.1978  0.0302
13163W        W29637  15.356   7.566  14.511 -0.3985 -0.1132 -0.0328
13164W        W29638  14.540   7.621  16.369  0.0643 -0.0661 -0.3402
13165W        W29639   3.990  16.130  13.614 -0.0391  0.4452 -0.0680
13166W        W29640   2.880  16.451  13.360  0.2500  0.3904  0.2999
13167W        W29641   5.052  16.393   2.752 -0.0902  0.0984 -0.0734
13168W        W29642  15.163   7.454   1.392 -0.3326 -0.1786  0.0488
13169W        W29643   3.222  14.480  16.258  0.3275 -0.0028  0.1029
13170W        W29644   6.335   4.657   5.828  0.1544 -0.0691  0.0513
13171W        W29645  12.437  15.687   5.013 -0.2747 -0.1835 -0.3126
13172W        W29646   1.829  14.483   2.875  0.0213 -0.0928 -0.1076
13173W        W29647   0.836   0.750   4.172 -0.2023 -0.0521  0.1729
13174W        W29648   5.857  16.569  14.515 -0.0503  0.0528 -0.3334
13175W        W29649   6.795   2.928   5.219  0.0842  0.0525  0.2819
13176W        W29650  17.216  12.225  11.846  0.2049 -0.1636  0.2940
13177W        W29651   0.552  13.401  11.382 -0.0225 -0.0706  0.3100
13178W        W29652  16.162  11.907  14.278  0.1685  0.1816 -0.0656
13179W        W29653  11.598   2.465  15.868 -0.2035  0.1953 -0.0985
13180W        W29654   8.523   4.975  14.412  0.0352 -0.0203  0.0009
13181W        W29655  16.868   1.171   2.465 -0.1622  0.1513 -0.1102
13182W        W29656  10.884   7.236  16.486 -0.2788  0.1496 -0.2912
13183W        W29657   6.849  17.556   2.968 -0.1230 -0.2418 -0.1752
13184W        W29658  11.842   0.415   5.105 -0.2664  0.0593 -0.1898
13185W        W29659  16.636  12.161   5.397 -0.0370  0.0650 -0.1626
13186W        W29660   1.609  10.202   4.026 -0.1661  0.1940  0.0052
13187W        W29661  17.221   1.897   3.926  0.0691 -0.1527 -0.0687
13188W        W29662   5.021  14.424  14.830  0.0845  0.0019  0.2181
13189W        W29663  16.781   6.144  16.912  0.1013  0.1091  0.0196
13190W        W29664   5.412   8.774  12.934  0.1920  0.0736  0.3407
13191W        W29665   9.205   3.859  12.564 -0.3591  0.3093 -0.5671
13192W        W29666  11.608   9.103   0.043  0.0658  0.1244  0.2022
13193W        W29667   3.469  15.705  13.884 -0.0833 -0.0951  0.0521
13194W        W29668  16.845   0.323   5.797 -0.2704  0.1632  0.1861
13195W        W29669  11.091  17.685  13.813  0.1276 -0.0593  0.0923
13196W        W29670   4.849   6.961   1.132 -0.0630 -0.0834 -0.0683
13197W        W29671  11.446  15.498  15.734  0.1042  0.0546  0.2091
13198W        W29672   0.017   0.046  13.016  0.1198  0.0889 -0.1316
13199W        W29673  17.213   2.337  14.415 -0.1123 -0.2319 -0.0634
13200W        W29674   2.294  15.218   1.478  0.2972  0.2174 -0.1450
13201W        W29675  13.529   7.940   0.229  0.2706  0.3514  0.1262
13202W        W29676   7.847   1.536   0.152  0.3310 -0.4222  0.1569
13203W        W29677   1.160  12.731  15.784 -0.3675  0.4271 -0.1998
13204W        W29678   6.678   0.263   3.508  0.2621 -0.1396  0.0508
13205W        W29679  16.896   6.492  14.653  0.0891 -0.1560 -0.1312
13206W        W29680   5.714   5.130   6.181 -0.2110  0.2156  0.1272
13207W        W29681   1.309  15.223   2.873 -0.3034 -0.2529  0.1557
13208W        W29682   9.206  17.825  13.141 -0.1669  0.0936  0.1493
13209W        W29683   3.163   2.808  13.052  0.1368  0.2115 -0.1818
13210W        W29684   4.652  11.147  14.717 -0.0009  0.0554  0.0554
13211W        W29685  11.682  11.454  14.606 -0.1145  0.1228 -0.2746
13212W        W29686   6.017   2.203   4.318 -0.0535  0.1644  0.0311
13213W        W29687   5.770  14.791   0.045  0.0084  0.0590 -0.3012
13214W        W29688  13.647   6.854  16.487  0.1607  0.1503 -0.0557
13215W        W29689   3.308  11.494  12.003  0.1015  0.0061 -0.0124
13216W        W29690   7.139   7.308   0.708 -0.0734 -0.1842  0.2697
13217W        W29691   1.273   3.326   1.294 -0.0329 -0.0204  0.0935
13218W        W29692   4.197   5.498   4.644  0.0116  0.1019  0.2526
13219W        W29693   3.880   2.755   4.681 -0.0687 -0.0706  0.2570
13220W        W29694   6.069   4.352  15.963 -0.1680 -0.0428  0.2857
13221W        W29695  17.407   9.326   2.766 -0.2845 -0.0996  0.0459
13222W        W29696  16.676   0.240   0.484  0.2109  0.1346  0.2337
13223W        W29697   9.639  10.139  16.570 -0.0601 -0.1572  0.0823
13224W        W29698  17.078   8.863   4.167  0.1700 -0.0501  0.1379
13225W        W29699  12.097   6.382  16.517  0.2799  0.0070 -0.0822
13226W        W29700   3.913  16.321   1.707 -0.2409 -0.2950  0.1562
13227W        W29701  15.736   8.482   2.288 -0.0405 -0.1698 -0.2953
13228W        W29702   8.708  10.165  13.281  0.1561  0.4187 -0.0683
13229W        W29703   2.689  17.504   4.460  0.1525  0.3071  0.0135
13230W        W29704  17.295   8.487   2.481  0.0600 -0.0558 -0.1435
13231W        W29705  15.828  12.871  15.159  0.3403  0.0644  0.2859
13232W        W29706  16.023   3.572   1.168 -0.0939  0.1707  0.1068
13233W        W29707  16.541   0.043   1.809 -0.0030 -0.1881 -0.2941
13234W        W29708  13.308   4.060  14.959 -0.0822 -0.1135 -0.0036
13235W        W29709   9.942   5.691  15.188  0.1842  0.1591  0.0464
13236W        W29710   0.887   4.068  14.556 -0.0040 -0.0372  0.0506
13237W        W29711   6.993  10.161   0.289  0.1948 -0.0207 -0.1018
13238W        W29712  13.126   8.746   1.564  0.3793 -0.2165 -0.3417
13239W        W29713   8.069  10.951   5.342  0.0658  0.0361 -0.0550
13240W        W29714   2.289  13.010   3.235  0.2212 -0.1364 -0.0122
13241W        W29715   3.524  12.320  16.346  0.0421  0.0086  0.2081
13242W        W29716  10.311  10.079  16.003 -0.1886  0.0442  0.0297
13243W        W29717   7.285   3.975  15.856  0.1010  0.1321  0.0248
13244W        W29718   5.357   0.176  16.865 -0.2790 -0.2989  0.1010
13245W        W29719  10.115   0.863  10.671  0.1087  0.0053  0.0169
13246W        W29720   7.160   7.758   2.229  0.0482  0.1812  0.1461
13247W        W29721   9.377  16.207  16.824 -0.3173 -0.1834 -0.3112
13248W        W29722  12.681  12.570  14.399 -0.1520  0.0564  0.1993
13249W        W29723   7.676  14.282  12.917 -0.2455 -0.0637 -0.3205
13250W        W29724  13.821   7.671  12.451 -0.1147 -0.0423 -0.4081
13251W        W29725   3.306  11.446  13.432 -0.0667  0.1847  0.3248
13252W        W29726   3.737  11.704  12.867 -0.0637 -0.0016 -0.1529
13253W        W29727  13.902  10.779  15.114  0.3583 -0.0232  0.0407
13254W        W29728   0.317   6.538  13.611  0.2244  0.1289 -0.3919
13255W        W29729   2.807   2.795   6.337  0.2369 -0.0954 -0.0222
13256W        W29730   9.758   4.880   3.041 -0.1977 -0.0215  0.0344
13257W        W29731  13.295  16.965   1.144  0.2697 -0.2799  0.1811
13258W        W29732   7.934   7.262   0.956 -0.2803 -0.2131  0.1703
13259W        W29733  16.545  10.085   0.313 -0.2619  0.1238  0.3841
13260W        W29734   5.501  10.006   3.181 -0.0359  0.1715 -0.2180
13261W        W29735  16.667   0.989   3.156 -0.0845 -0.1136 -0.1405
13262W        W29736   1.291  16.114   3.192 -0.1988  0.2755 -0.1024
13263W        W29737   5.738   9.960   2.268  0.3605 -0.0510 -0.3696
13264W        W29738   1.099   2.835   1.217  0.1992 -0.0322  0.1841
13265W        W29739  17.623   2.300   0.693  0.1481  0.1737  0.0507
13266W        W29740  10.080   0.170   0.193 -0.0595  0.1873  0.0074
13267W        W29741   9.642  15.302   3.125  0.0550 -0.2550  0.1268
13268W        W29742  13.085  13.836   1.054  0.0186 -0.3052 -0.2708
13269W        W29743   4.175  16.793  14.425 -0.1912  0.3186  0.2550
13270W        W29744   4.179   1.625   2.730  0.0099 -0.4650 -0.0561
13271W        W29745   9.331   3.927  15.613 -0.1717  0.1106  0.0573
13272W        W29746  12.412  14.296   4.351  0.0153 -0.1652 -0.0482
13273W        W29747   4.766   8.360  11.805 -0.0400 -0.0472 -0.2834
13274W        W29748  16.538   6.069   2.979  0.1423 -0.0014  0.0995
13275W        W29749   2.207  11.665  12.282  0.3196 -0.1131 -0.2513
13276W        W29750  10.723   5.065   4.044 -0.1762  0.0400 -0.2437
13277W        W29751   0.511   1.019   3.942 -0.0335  0.2717  0.2158
13278W        W29752  14.071   6.841   4.737  0.2676  0.0372  0.2356
13279W        W29753  11.020   1.025  13.494 -0.1194  0.0028 -0.3628
13280W        W29754  11.024   3.439   5.779 -0.0798 -0.0183 -0.1503
13281W        W29755   8.391   1.331   4.908 -0.0351  0.0982 -0.1204
13282W        W29756   2.478  13.276  12.385  0.0565  0.0390  0.1603
13283W        W29757  17.653   0.434  12.629 -0.0862 -0.0099  0.1642
13284W        W29758   4.346  17.185  12.289  0.0614  0.1701  0.1012
13285W        W29759   9.941   1.474   6.010 -0.2222 -0.1785  0.1377
13286W        W29760   5.337   4.667  13.985  0.2010 -0.1258 -0.0894
13287W        W29761   6.885   4.129   3.844  0.0109  0.0671 -0.1913
13288W        W29762   8.037   3.483  15.354 -0.1430 -0.0348 -0.1052
13289W        W29763   5.209   0.886  15.672  0.0958 -0.3295 -0.1527
13290W        W29764   0.109  15.481  12.519  0.0243 -0.2263 -0.3015
13291W        W29765   6.233   7.215   4.644 -0.1822  0.0566 -0.0859
13292W        W29766  16.986   3.801   3.224  0.1038  0.0300 -0.3068
13293W        W29767  14.445   8.918   1.370  0.1543  0.1228 -0.3279
13294W        W29768  10.411   6.466   5.640  0.0937 -0.0126  0.0121
13295W        W29769  12.409   9.766   3.607 -0.2508  0.1798 -0.1084
13296W        W29770   8.630  13.334   0.530  0.4358 -0.2408  0.0318
13297W        W29771  15.483   7.688  13.491 -0.3114 -0.2704  0.1144
13298W        W29772  10.728   5.221  13.033 -0.1652  0.3222 -0.3695
13299W        W29773  11.680  13.664  16.071  0.0862  0.2096  0.0169
13300W        W29774   3.088   5.469  16.663  0.0264 -0.2463 -0.0283
13301W        W29775  16.046   6.855  14.349  0.0948  0.3149 -0.2866
13302W        W29776  17.234  17.661   2.193  0.1582  0.2648  0.2173
13303W        W29777  15.905   5.489  16.067 -0.2336 -0.0328  0.0359
13304W        W29778  13.893  14.073  11.242  0.0938 -0.0906  0.1661
13305W        W29779   7.381   7.011   2.459 -0.2945  0.2101  0.0452
13306W        W29780   3.905  10.543   3.053  0.0497 -0.0901 -0.1152
13307W        W29781   4.422   7.440   1.900 -0.0060  0.1806  0.1305
13308W        W29782   8.455  13.784   0.780  0.0069  0.1603  0.0896
13309W        W29783   8.621   7.689   5.206 -0.1687  0.1156 -0.3207
13310W        W29784  11.496  13.675  12.238  0.2410  0.2873 -0.1723
13311W        W29785   1.312  14.846   4.638  0.1035 -0.1415 -0.2047
13312W        W29786  10.689  16.756   4.493  0.1071 -0.1378  0.1260
13313W        W29787  16.631  12.837  13.453 -0.1548  0.1447  0.0371
13314W        W29788  17.583  11.884   0.169 -0.1004 -0.1598  0.1440
13315W        W29789   4.075  16.923  15.290  0.2655  0.0200  0.1305
13316W        W29790   7.926   0.729   4.801  0.1378  0.0875  0.3065
13317W        W29791  13.129  13.611  13.592  0.0733  0.1838  0.0306
13318W        W29792   4.482  12.764  12.300  0.1002  0.1597  0.1352
13319W        W29793   4.598   6.322   4.951 -0.3529  0.3460 -0.2489
13320W        W29794  13.423  14.760  15.311 -0.0235 -0.0776  0.1569
13321W        W29795  16.860   4.232   5.938  0.2069  0.1865  0.0693
13322W        W29796  13.652  15.323  11.606 -0.0315 -0.0527 -0.3045
13323W        W29797  15.213  15.824   3.304  0.1011  0.1125  0.2732
13324W        W29798  16.348   6.016  15.996  0.1195 -0.1257  0.2846
13325W        W29799  14.610   5.264  13.521  0.0824 -0.2332  0.0639
13326W        W29800  15.138   5.807   2.126 -0.3601 -0.0346 -0.0398
13327W        W29801  13.923  15.864   4.038 -0.1152 -0.0151  0.0391
13328W        W29802   7.026  17.745   1.600  0.1526 -0.0968 -0.1793
13329W        W29803   1.920   3.404   5.805  0.2289  0.1501 -0.0085
13330W        W29804  11.912  16.519  13.184  0.0076  0.0649  0.0147
13331W        W29805   9.616   6.500  14.890  0.0785  0.0057  0.0745
13332W        W29806  10.455  14.170   3.966  0.2071 -0.1820 -0.0996
13333W        W29807  14.245  14.969   3.563 -0.0072 -0.2815  0.1597
13334W        W29808  16.935   3.195  16.885  0.0622  0.1122  0.0992
13335W        W29809  17.228   5.832  16.872 -0.2476  0.1552  0.2878
13336W        W29810   4.686  14.015  13.185  0.2522 -0.0234  0.0838
13337W        W29811   5.786   4.887  13.342 -0.0007  0.1192  0.1385
13338W        W29812   3.165   0.625  15.380 -0.0330  0.0004 -0.0198
13339W        W29813  17.647  11.044  14.620 -0.0132  0.2427  0.1783
13340W        W29814  11.399   3.414   2.006  0.0551  0.0023  0.1138
13341W        W29815  16.709   8.597   0.114 -0.1751  0.0556 -0.0722
13342W        W29816   1.403  15.279  13.976 -0.1229 -0.1761 -0.0940
13343W        W29817   8.279   6.305  16.205  0.1677 -0.1220 -0.1945
13344W        W29818   2.392  15.886  12.136 -0.0465  0.1999  0.2212
13345W        W29819   8.143  17.693  15.148  0.2957  0.0315 -0.2032
13346W        W29820   9.079   9.390   5.578  0.0428 -0.0061  0.1687
13347W        W29821   4.494  10.299  13.341  0.2331 -0.0744 -0.0463
13348W        W29822   8.890  12.156   1.762  0.4101  0.1265 -0.3353
13349W        W29823   7.231  15.011  15.214 -0.0051 -0.1012  0.0023
13350W        W29824   2.673  13.882   4.093 -0.0372  0.2542 -0.0013
13351W        W29825   2.168  10.624   0.546 -0.1125  0.0534  0.1146
13352W        W29826  17.684   7.185  16.332  0.0496 -0.0291 -0.0507
13353W        W29827   1.342   9.516  11.644 -0.2244  0.0482  0.0910
13354W        W29828   2.220  11.244  11.524 -0.2304  0.1393  0.0404
13355W        W29829   3.897   7.930  13.929 -0.3805 -0.0707  0.0355
13356W        W29830  15.809   6.223   3.815  0.1778  0.1774  0.1276
13357W        W29831  16.342   7.051  16.102  0.1240 -0.1262  0.0639
13358W        W29832   3.870   5.217   5.365  0.1116  0.0565 -0.0199
13359W        W29833   0.884  16.931  14.737 -0.2406 -0.1509  0.0823
13360W        W29834   7.441  16.288  11.899  0.1954 -0.1095 -0.0278
13361W        W29835  12.355   0.765   0.300 -0.1716  0.0040 -0.1918
13362W        W29836  16.225  14.481   1.273  0.1519  0.0872  0.0710
13363W        W29837   9.117   6.318  14.566 -0.3533  0.1954 -0.0313
13364W        W29838  17.437  12.239   4.108 -0.1432 -0.1461  0.1075
13365W        W29839  11.180   2.726  16.671  0.0929 -0.0652 -0.1968
13366W        W29840   1.197   5.580  16.887  0.0190 -0.1647  0.0266
13367W        W29841  13.326   2.394  12.222  0.1227  0.0900  0.1755
13368W        W29842   8.570   5.657  15.070  0.2377 -0.2239 -0.1861
13369W        W29843  13.329   2.020  14.027  0.0826  0.1469  0.1590
13370W        W29844   0.295  16.695   2.863  0.0340 -0.2434 -0.0131
13371W        W29845  15.130   9.206  11.578  0.0979  0.3022  0.0654
13372W        W29846   3.615   4.709  13.757 -0.0319  0.0574 -0.3134
13373W        W29847   0.816  14.770   2.829  0.2528 -0.2512 -0.2151
13374W        W29848   7.900   6.757   0.149 -0.1231  0.2238  0.1238
13375W        W29849   2.895   9.594  11.841  0.0379  0.1958 -0.0420
13376W        W29850   8.980   6.333  13.382 -0.1438 -0.0679  0.1825
13377W        W29851  16.551   7.047   1.495 -0.1759  0.2380 -0.0478
13378W        W29852  12.815   8.954   1.903  0.3508  0.3975 -0.4936
13379W        W29853   8.435  11.909   3.372  0.2505 -0.1290 -0.1259
13380W        W29854   8.271   0.845   6.145 -0.1163  0.1209 -0.0980
13381W        W29855  15.118   7.986  13.620 -0.3363  0.0244 -0.0235
13382W        W29856   1.239   8.692   2.626 -0.0411  0.0441  0.1971
13383W        W29857   3.145  10.470  14.683  0.0035  0.2160  0.0199
13384W        W29858  15.091  14.638   2.597  0.4701 -0.3320 -0.3946
13385W        W29859  12.005   8.821  15.653  0.0770  0.0512  0.0427
13386W        W29860   8.387  15.273   3.460  0.0197 -0.2692  0.1809
13387W        W29861   2.300  14.318   1.300  0.2489  0.1130 -0.0516
13388W        W29862   3.577   2.361  13.369 -0.1050 -0.2570 -0.0733
13389W        W29863   6.254  16.621  11.394  0.0084  0.1973 -0.0702
13390W        W29864   7.407   2.065   0.287 -0.3248  0.1261 -0.3742
13391W        W29865   4.711  11.485   0.639  0.1371 -0.0171  0.1688
13392W        W29866  16.267  13.585  14.863 -0.0615 -0.2370 -0.1107
13393W        W29867   2.144  13.248   3.685  0.0747  0.2052  0.0957
13394W        W29868   1.780   4.922  14.773 -0.0696 -0.0923 -0.0380
13395W        W29869   4.001   2.573  12.125 -0.0758 -0.1027  0.0958
13396W        W29870  13.949  16.195   3.134  0.2894 -0.4690 -0.1720
13397W        W29871   1.430   5.226   4.638  0.1201  0.0390 -0.0011
13398W        W29872   5.283   5.572   5.414  0.3227 -0.0979 -0.0474
13399W        W29873   9.030   3.250  15.912  0.0026 -0.0582  0.0657
13400W        W29874  16.576  15.441  11.577 -0.0398  0.1342 -0.0521
13401W        W29875   0.188   6.554   3.761  0.1098 -0.3932  0.0295
13402W        W29876  14.062  12.770  12.848  0.1778  0.2969  0.2821
13403W        W29877  16.222   4.634   0.858 -0.1136  0.0246 -0.2302
13404W        W29878   5.820   1.412  15.678 -0.1630  0.1448  0.1540
13405W        W29879   1.311   6.715  14.521 -0.1368  0.0592  0.0360
13406W        W29880  10.710  14.012   4.355 -0.1311  0.0849  0.3238
13407W        W29881  16.552  10.066  15.965 -0.0100 -0.0555 -0.0068
13408W        W29882  16.394   2.772  12.746  0.2435 -0.3299  0.0133
13409W        W29883   7.061  12.591  14.326 -0.2417  0.2767 -0.1691
13410W        W29884   1.982   9.232  16.053  0.2391 -0.1142  0.0170
13411W        W29885   8.363   6.788  15.487 -0.1978  0.1423  0.5118
13412W        W29886  14.615   1.217   5.999  0.1496  0.0932 -0.0217
13413W        W29887   9.884  15.750  16.355  0.0716  0.1775 -0.0388
13414W        W29888  10.306  11.405  15.986 -0.0491  0.1755 -0.2208
13415W        W29889  14.931   1.526   3.164 -0.0280  0.0833  0.0841
13416W        W29890   2.753  10.352  12.357 -0.1544 -0.3255 -0.3599
13417W        W29891   4.043  14.116   3.508  0.1480  0.1222  0.1069
13418W        W29892  10.459  16.927   3.965  0.0317  0.1390 -0.2203
13419W        W29893   9.749  13.190  10.541 -0.2475  0.1241 -0.2389
13420W        W29894  16.798   0.197  15.569  0.3851  0.0264  0.3128
13421W        W29895  16.178  11.251   2.367  0.1385 -0.1123 -0.2000
13422W        W29896   2.439   7.585   3.097  0.0404  0.2905 -0.1323
13423W        W29897  11.054   3.195   3.699  0.0592  0.1967 -0.1397
13424W        W29898   7.647  11.772  14.451  0.1233 -0.1861 -0.0089
13425W        W29899   9.541  12.862   2.910 -0.1195  0.1209  0.0724
13426W        W29900   2.001  14.288  12.879  0.0312  0.0754 -0.0907
13427W        W29901  15.141   1.178  14.996 -0.1466 -0.0032 -0.0545
13428W        W29902   7.099  14.190   4.960  0.0791 -0.0432  0.3162
13429W        W29903   7.877  16.443   5.374  0.1856 -0.0187 -0.4720
13430W        W29904  14.353   3.326  11.988  0.0504  0.2682 -0.1576
13431W        W29905  14.099  16.367   5.663  0.0875  0.0022  0.1999
13432W        W29906  13.787  14.280  15.203 -0.2121 -0.1041 -0.0511
13433W        W29907   6.011  10.745   0.482  0.2500 -0.1019  0.3458
13434W        W29908  10.511   0.425  13.104  0.3837 -0.0624 -0.2633
13435W        W29909   7.201   0.082   3.889  0.1590 -0.1230  0.2300
13436W        W29910   9.854   8.535   2.656  0.1362 -0.0878 -0.3099
13437W        W29911   6.934   3.998   0.243 -0.0046  0.0150 -0.0942
13438W        W29912  13.908  16.588  15.534  0.1870 -0.3007 -0.2145
13439W        W29913  16.919  16.805  12.770 -0.0640 -0.2064 -0.2095
13440W        W29914  10.030  16.678   2.856 -0.1630 -0.2319 -0.1898
13441W        W29915   9.459   0.244  14.704 -0.0103  0.4821 -0.0752
13442W        W29916  11.924  15.344   1.067  0.1335  0.1073  0.3136
13443W        W29917   1.034   3.541  16.319  0.1750 -0.1053 -0.2306
13444W        W29918   5.860   2.247  16.766  0.0098 -0.2170 -0.2013
13445W        W29919  15.537   8.273  12.842  0.0386  0.2128 -0.2809
13446W        W29920   4.666   5.811   2.418  0.2070 -0.2005 -0.3568
13447W        W29921  17.783   8.036   0.535 -0.0156 -0.3228  0.1093
13448W        W29922  16.577   8.741   4.037 -0.0987 -0.2796  0.2807
13449W        W29923   9.703   1.538   1.515  0.3411  0.0661  0.0919
13450W        W29924   5.488   0.161   3.150  0.0596 -0.3075  0.3723
13451W        W29925   7.161   8.088  13.829  0.2820 -0.1028  0.1443
13452W        W29926  15.598   7.161   2.691  0.3242 -0.3148 -0.1569
13453W        W29927   8.545  16.836  12.908 -0.0403 -0.3251  0.0421
13454W        W29928  15.981  17.502  16.021  0.3594  0.1187 -0.0978
13455W        W29929   0.254   0.703  15.283 -0.0427  0.0846 -0.2298
13456W        W29930   0.268   2.360  14.615 -0.0827 -0.1430 -0.1145
13457W        W29931  16.739  16.599   3.425 -0.1550 -0.0817  0.0498
13458W        W29932  17.196  16.894   1.052 -0.0485 -0.0847 -0.1778
13459W        W29933   1.473   8.601   5.645  0.2479 -0.0648 -0.0707
13460W        W29934  10.242  15.649  13.186  0.1109 -0.0143  0.0797
13461W        W29935   7.864   9.300  14.089 -0.1750  0.3180 -0.3143
13462W        W29936  13.722  12.717  11.993 -0.1603  0.1546  0.0025
13463W        W29937   4.565   9.831  11.372  0.1593 -0.2372 -0.1018
13464W        W29938   4.804   6.877   0.120 -0.1275  0.0159  0.0398
13465W        W29939  10.430  15.915   3.472  0.1240  0.2268 -0.1266
13466W        W29940  11.711  16.852  16.384 -0.0568 -0.0703 -0.1975
13467W        W29941   2.289   3.742  15.750 -0.3478  0.2279  0.1381
13468W        W29942   4.206   5.471  12.207  0.2484  0.1292 -0.2684
13469W        W29943   7.922  12.956  16.255 -0.0349  0.1554  0.1576
13470W        W29944   5.252   9.205   1.520 -0.2801  0.1516  0.0451
13471W        W29945  12.086  12.694   4.868 -0.0509  0.0270  0.2442
13472W        W29946  14.145   9.525   5.219  0.1160 -0.1021  0.0097
13473W        W29947  13.074   2.359   6.473 -0.0231  0.1531  0.1279
13474W        W29948  13.220  17.068  11.867 -0.2179  0.1129 -0.1607
13475W        W29949   0.298  12.698   4.861  0.0037 -0.0547  0.1078
13476W        W29950  16.236  15.119  16.770 -0.0589 -0.0606 -0.0358
13477W        W29951  16.345   6.107  12.513 -0.0502 -0.0726 -0.1492
13478W        W29952   5.954  12.637   4.155  0.0862  0.3736  0.0517
13479W        W29953  16.881   9.271  13.560  0.2795  0.1650 -0.1861
13480W        W29954  13.319   5.237  14.636 -0.5162 -0.1943  0.0161
13481W        W29955   0.921  12.070  15.145  0.1676  0.3317  0.1312
13482W        W29956  12.212   7.646  13.808  0.1328 -0.1800  0.1653
13483W        W29957   5.973   0.884  12.463  0.0680  0.1916  0.0734
13484W        W29958  12.252   1.789  15.678  0.1337 -0.1171 -0.0535
13485W        W29959  14.044   4.541   1.158  0.1195  0.1311  0.1020
13486W        W29960   4.604   4.170  13.718 -0.1681 -0.0550  0.2504
13487W        W29961  10.638   5.765   5.280  0.0514 -0.2860 -0.0868
13488W        W29962  12.850   0.720  10.775 -0.2378  0.2157 -0.2517
13489W        W29963  14.569  16.179  13.048 -0.1979 -0.0332  0.0677
13490W        W29964   0.870  11.606  16.371  0.0967  0.0850 -0.1441
13491W        W29965   8.329   3.447  13.265 -0.0512  0.0274  0.3661
13492W        W29966  17.375   3.465   6.343  0.1068  0.0327  0.0679
13493W        W29967   0.416  14.480  16.823 -0.0805  0.0659  0.0894
13494W        W29968   2.290  13.390   4.494 -0.2322 -0.2234 -0.0487
13495W        W29969   6.942   8.188  11.797  0.3011 -0.2753  0.0219
13496W        W29970  12.720  14.732   1.830 -0.4046 -0.0619  0.1134
13497W        W29971   3.995  17.411  16.472  0.1156  0.3076  0.0258
13498W        W29972  14.754   0.312   0.810  0.0223  0.3178 -0.1480
13499W        W29973   7.169   0.190  13.867 -0.1127  0.0378  0.2603
13500W        W29974  11.465  17.758  14.739  0.0533  0.2566 -0.1278
13501W        W29975  14.372  13.737  13.708 -0.0151 -0.0627  0.1135
13502W        W29976  12.159   2.299  13.165  0.1228 -0.2808  0.5241
13503W        W29977   5.885   3.601   2.931 -0.1730  0.2309  0.1648
13504W        W29978  12.758  10.490  14.031 -0.3594 -0.0953  0.1787
13505W        W29979   8.540  16.198  12.910  0.2561 -0.0819 -0.0460
13506W        W29980   6.696   2.329   4.699  0.3298  0.1860 -0.2182
13507W        W29981   1.327  13.265  16.668 -0.0470  0.2891 -0.2106
13508W        W29982   1.659  12.348   1.951 -0.0229  0.2450 -0.0775
13509W        W29983   3.000   8.187  14.221 -0.1264  0.3113 -0.2911
13510W        W29984   3.140  14.487  13.408 -0.2115 -0.2857  0.4987
13511W        W29985   7.887   2.076  11.464  0.1833  0.0267 -0.0669
13512W        W29986  12.376   7.015   5.795 -0.2549  0.1223  0.2356
13513W        W29987  16.607   1.579   0.332  0.0471 -0.0384  0.1241
13514W        W29988  13.723  10.818   3.631 -0.1516 -0.1519  0.1487
13515W        W29989   5.908  14.500   3.181 -0.1433  0.0289  0.1726
13516W        W29990   3.000   9.188  12.823 -0.2937  0.0430  0.1486
13517W        W29991  17.309   5.550  16.462  0.1080  0.0031 -0.2529
13518W        W29992   4.032   4.281   1.662 -0.0740 -0.0284  0.1826
13519W        W29993   0.761   5.355  13.957 -0.1882  0.1226 -0.1641
13520W        W29994   9.051   9.170   1.220 -0.0996 -0.0837  0.1584
13521W        W29995   9.978   9.242  14.553 -0.3157 -0.1399  0.1556
13522W        W29996   2.697  17.773  15.832 -0.2556 -0.1764  0.0671
13523W        W29997  12.331   3.173   5.002 -0.1663 -0.1586  0.0717
13524W        W29998   0.133  12.542  15.396  0.4379  0.0445 -0.0237
13525W        W29999  13.784  12.595  15.972  0.2204 -0.1572  0.2776
13526W        W30000  15.936   8.345   5.003  0.1591  0.0659  0.1159
13527W        W30001   6.439  11.972   1.963 -0.0962 -0.1288 -0.4880
13528W        W30002  16.091   8.035  15.004  0.2978 -0.1285 -0.0315
13529W        W30003   9.558   5.463  13.153  0.1020  0.2920 -0.0907
13530W        W30004  15.278   4.791  12.325  0.0690  0.1611  0.1121
13531W        W30005  13.048  15.137  12.154 -0.0814  0.0677  0.2758
13532W        W30006   6.516   6.518   5.862 -0.2864  0.0172 -0.3047
13533W        W30007   9.836  11.655   4.347 -0.2422  0.1563 -0.1642
13534W        W30008   9.864   0.045  12.487  0.1615 -0.4181  0.2176
13535W        W30009  16.595  15.426  14.048  0.1661 -0.2337 -0.2531
13536W        W30010   7.656   8.164   4.949  0.1700  0.0568 -0.1467
13537W        W30011   9.834  14.494   5.034 -0.1764  0.1735 -0.0406
13538W        W30012  12.966   1.244   3.632 -0.0281  0.1108  0.0272
13539W        W30013   2.990  10.428   3.452  0.1957 -0.0865 -0.3764
13540W        W30014  16.058   2.632   1.217 -0.0104 -0.1032 -0.2699
13541W        W30015  12.599   5.969  12.039  0.0654 -0.1820  0.1771
13542W        W30016  12.636   8.536  14.998  0.0603  0.0774 -0.1136
13543W        W30017   8.889   0.076  15.828  0.0851  0.1008  0.1532
13544W        W30018   6.944  17.147   2.688 -0.3027  0.0386 -0.2391
13545W        W30019   8.190   2.119   4.543 -0.3357 -0.2186 -0.1550
13546W        W30020   4.716  13.357  15.787 -0.0779  0.1588  0.2696
13547W        W30021  15.191   5.465   4.214  0.0647  0.0407 -0.1900
13548W        W30022   5.164   7.902  15.857 -0.3378 -0.3442 -0.1514
13549W        W30023  10.225   5.685  14.778  0.0009 -0.0700 -0.0218
13550W        W30024  14.895   8.518   3.321 -0.1400 -0.3114  0.4647
13551W        W30025   1.853   5.820  12.021 -0.0929  0.1995 -0.0739
13552W        W30026   4.571  15.310   4.595  0.1054 -0.4222 -0.2028
13553W        W30027   0.818  12.834   0.855 -0.2084 -0.1361  0.0066
13554W        W30028  14.343   5.523  14.713 -0.0488 -0.0623  0.0451
13555W        W30029  11.131  12.884   3.615 -0.0821 -0.1257 -0.0683
13556W        W30030   7.136   7.126  13.220  0.1533 -0.2292  0.2274
13557W        W30031  11.648   9.624  16.929 -0.0130  0.0506  0.3298
13558W        W30032  12.163   6.524  14.185  0.0734  0.0044 -0.0051
13559W        W30033   3.530  12.152  11.613  0.0782  0.0240  0.1729
13560W        W30034   3.787   6.658  14.590  0.1011  0.0296 -0.1292
13561W        W30035  10.662   5.388  14.741 -0.2783  0.1050 -0.0828
13562W        W30036  12.485   6.473   0.447 -0.1839 -0.0411  0.1201
13563W        W30037   9.200  10.461  14.452 -0.1499 -0.0750  0.1373
13564W        W30038   6.699   2.533   4.050  0.2701  0.1963  0.3408
13565W        W30039  11.290   9.092   0.746  0.4768  0.0714 -0.2094
13566W        W30040   4.063   8.446  13.163  0.3714  0.2549  0.1435
13567W        W30041  17.550   3.848  13.026 -0.2772  0.1829 -0.1895
13568W        W30042   3.146  14.010   4.525  0.3786 -0.2914  0.3747
13569W        W30043   2.440   4.789  13.602 -0.1314  0.0150  0.0982
13570W        W30044  11.849  10.576   0.090  0.0220  0.0145 -0.0780
13571W        W30045   4.220  16.689   4.693 -0.0101  0.5932 -0.1947
13572W        W30046   1.453  17.306   0.424 -0.3728 -0.1000  0.0326
13573W        W30047  15.350   0.170   3.008 -0.1417  0.2004  0.0197
13574W        W30048   0.573  11.886  11.920 -0.0112  0.2583  0.2898
13575W        W30049   5.233  12.204  14.350 -0.0585 -0.0343 -0.3491
13576W        W30050  12.986   3.403  12.766 -0.0420 -0.2474  0.2975
13577W        W30051   3.332   8.391  11.531  0.2895  0.1851  0.2791
13578W        W30052   3.681   3.118   5.019  0.0192  0.1765  0.0358
13579W        W30053  10.730  15.023  16.157 -0.3085 -0.0743  0.4412
13580W        W30054  16.936   4.072  16.642  0.0867 -0.0398  0.1660
13581W        W30055   1.428  12.318  13.737  0.1184 -0.0267  0.0422
13582W        W30056  14.304   6.838   1.174 -0.0135 -0.1312  0.0844
13583W        W30057   5.258  14.629   4.882  0.1140 -0.0711  0.0038
13584W        W30058   2.212  13.989   3.763 -0.0722  0.0982 -0.2211
13585W        W30059   2.314  10.790  11.260  0.2448  0.0758 -0.1663
13586W        W30060   7.096  12.200  12.859  0.0629 -0.0195  0.1908
13587W        W30061   6.202  14.673  14.087  0.0724  0.1296 -0.1219
13588W        W30062   1.055   1.995  15.122 -0.0305  0.0837 -0.0684
13589W        W30063  10.614   1.488  13.227  0.0001  0.3498 -0.0678
13590W        W30064  16.398   9.397  15.592  0.1929 -0.0913  0.1715
13591W        W30065   7.229   5.632   4.101  0.3837  0.0677 -0.0077
13592W        W30066   7.899   5.516  14.214  0.1667 -0.0120  0.1696
13593W        W30067   5.768   3.520  15.183  0.1131 -0.2040  0.0314
13594W        W30068  11.131   9.482  16.502  0.1595  0.0802 -0.1668
13595W        W30069   5.717   8.133   2.664 -0.0095  0.1939 -0.0605
13596W        W30070   2.732   1.368   1.633 -0.2800  0.3050 -0.3198
13597W        W30071  12.637   2.363  16.710  0.0699  0.0343  0.1241
13598W        W30072   9.732  11.449  13.326 -0.0370 -0.2048  0.0467
13599W        W30073  14.159   6.140  11.877 -0.0224  0.1337  0.1356
13600W        W30074   2.502  15.647   1.320 -0.0398  0.0001 -0.1438
13601W        W30075  17.521  12.631  15.961  0.1104  0.2022  0.1010
13602W        W30076  16.721   9.184   3.775 -0.0986  0.0418 -0.1616
13603W        W30077  12.683   2.923  12.644  0.1795 -0.0633  0.0136
13604W        W30078   5.116  16.708   4.419 -0.2086  0.3334  0.4697
13605W        W30079  12.578   9.714  16.203 -0.2335  0.2460  0.0261
13606W        W30080   4.381   1.330  11.911  0.0293  0.0307  0.3028
13607W        W30081  14.497   5.570   4.706 -0.1593  0.5451 -0.0577
13608W        W30082   4.015  12.749  15.704 -0.1435 -0.1880 -0.2503
13609W        W30083   3.171   6.571   4.723 -0.1195 -0.2030  0.1661
13610W        W30084   5.824   1.881  12.312  0.0180 -0.1099 -0.2547
13611W        W30085   4.536   4.648   3.295 -0.1011  0.1730  0.1319
13612W        W30086   0.082   5.419  15.718 -0.0460  0.0518 -0.0430
13613W        W30087  12.176   9.432   0.966 -0.1515  0.1133  0.2356
13614W        W30088   2.224  17.012  14.155 -0.1505  0.4556  0.0948
13615W        W30089   8.599   0.310   2.686 -0.0553 -0.1168  0.3922
13616W        W30090   2.892   7.673  12.024  0.0655  0.0407  0.2062
13617W        W30091  16.019   1.470   3.586  0.2429 -0.1015  0.1389
13618W        W30092  17.727   0.393  16.669  0.1962 -0.1507  0.0213
13619W        W30093  15.247   3.554  11.536  0.1101 -0.1711 -0.0609
13620W        W30094   5.591   5.450  16.219 -0.0766 -0.0713  0.3535
13621W        W30095   0.025  12.179  13.603 -0.0010  0.0760 -0.2289
13622W        W30096   9.018   6.690   5.064 -0.0294  0.1974 -0.0352
13623W        W30097   7.133  16.909   4.003  0.2195  0.2693  0.0992
13624W        W30098   2.612  14.070   0.412 -0.1482 -0.0535  0.1023
13625W        W30099  11.022   1.190  16.008  0.2091  0.1658  0.0640
13626W        W30100   4.979  13.409  15.266  0.0894  0.0456  0.1381
13627W        W30101   3.414   3.165  12.231 -0.0987  0.2235  0.2301
13628W        W30102   5.583   3.909  14.101 -0.1625 -0.2400 -0.1485
13629W        W30103  10.282   2.485   2.832 -0.0040 -0.0651 -0.0503
13630W        W30104  15.432   9.606   2.050  0.1125 -0.0120  0.0494
13631W        W30105   3.024  12.285  10.923  0.0896 -0.1141 -0.0008
13632W        W30106   6.097   3.615  15.528 -0.3535  0.3380 -0.1435
13633W        W30107  14.999  10.677   5.166 -0.0770 -0.0457 -0.0095
13634W        W30108  15.642   3.150  14.630  0.3837  0.0155  0.2122
13635W        W30109  15.869  17.465   2.189 -0.0014  0.0575 -0.0855
13636W        W30110  12.246  12.130  10.822  0.0132  0.1106  0.1901
13637W        W30111  17.574   8.675   2.894 -0.1051  0.0638  0.1565
13638W        W30112  11.932  12.174   4.879 -0.0201 -0.1852  0.0210
13639W        W30113  10.817   4.605  12.427  0.0249  0.1875  0.0686
13640W        W30114  11.916   3.786   2.266 -0.0966 -0.0329 -0.1363
13641W        W30115   3.197   5.709   5.946  0.0189  0.1876 -0.1833
13642W        W30116  10.949   2.691   1.647 -0.2750 -0.1043  0.2060
13643W        W30117  16.770  17.515   2.027  0.2361  0.1900 -0.0895
13644W        W30118   9.046  13.970   1.819  0.2563  0.0038 -0.1879
13645W        W30119  17.033   0.635   1.338 -0.1089 -0.2802 -0.0064
13646W        W30120   3.158   7.466  15.719  0.0813  0.1978  0.3120
13647W        W30121  12.989   2.815   5.666  0.0589  0.1144  0.2862
13648W        W30122   3.782  15.790   4.995 -0.1740 -0.2601  0.1471
13649W        W30123   5.961   3.317   3.989 -0.1210  0.0904  0.3298
13650W        W30124   6.805  14.891   4.005  0.4474  0.0614 -0.2766
13651W        W30125   3.507   9.481   1.546  0.1469 -0.3631  0.1256
13652W        W30126  11.082   1.791   4.461  0.0216  0.2210  0.0932
13653W        W30127   8.073   9.583  13.742 -0.1013  0.0671 -0.1101
13654W        W30128  12.586   3.605   0.971 -0.0702  0.0013 -0.3068
13655W        W30129   3.728   3.401  13.796 -0.0133 -0.0736 -0.1185
13656W        W30130  14.751   7.205  13.841 -0.1385  0.0676  0.0334
13657W        W30131  10.850  12.434   4.093 -0.1095 -0.1785 -0.1549
13658W        W30132  17.232   6.200   3.357  0.4030 -0.2009  0.0591
13659W        W30133   4.374   0.630   0.262 -0.1013  0.1125 -0.3027
13660W        W30134   2.441   0.880   5.802  0.0336 -0.0380  0.2119
13661W        W30135   8.453  16.484  16.529  0.0883 -0.1156 -0.0384
13662W        W30136  13.268  11.996  14.158  0.2980 -0.1077  0.3653
13663W        W30137   6.903  14.625  15.379  0.0265 -0.0176  0.2794
13664W        W30138  10.628  10.915   2.068  0.1616  0.3233 -0.5298
13665W        W30139  13.227   4.221  12.216 -0.2361  0.2675  0.0886
13666W        W30140   0.035   8.107  16.131 -0.1201  0.2312 -0.1228
13667W        W30141  17.583  13.047  13.752  0.1451 -0.3737  0.3214
13668W        W30142   8.462  12.110  14.388  0.0930 -0.1766 -0.1463
13669W        W30143  10.944   7.574   3.306 -0.0318  0.0766 -0.1517
13670W        W30144   4.577  11.579   0.177  0.0269 -0.0431 -0.0559
13671W        W30145   1.127   3.523  15.002  0.0061 -0.0917  0.2309
13672W        W30146  11.773  14.577  15.216  0.1066  0.0353 -0.2751
13673W        W30147   1.487  12.536   0.976  0.3310  0.2780 -0.0703
13674W        W30148  10.579  16.564   1.666  0.1455 -0.4607  0.1774
13675W        W30149  10.167   8.123   2.684 -0.2326  0.0955  0.1383
13676W        W30150   0.860   9.306  15.999 -0.1356  0.3190 -0.2151
13677W        W30151   6.609   8.161   4.838 -0.1425  0.2705 -0.0665
13678W        W30152  10.470  12.702   0.343  0.3612  0.1588 -0.0475
13679W        W30153  12.694  12.420  12.476  0.0468  0.2510 -0.0271
13680W        W30154  16.347  16.600   4.408  0.2648  0.3110 -0.1165
13681W        W30155  14.450  15.784   1.883 -0.0114 -0.2863  0.1513
13682W        W30156   2.531  14.904   4.072  0.1253 -0.1101 -0.0547
13683W        W30157  15.022   0.248   5.581  0.4350 -0.0188 -0.2378
13684W        W30158   4.103   4.348  12.152  0.1184 -0.0713  0.2863
13685W        W30159   7.441  16.037   1.744 -0.0406 -0.2691  0.1302
13686W        W30160   4.140  13.518   5.640  0.1963 -0.4019  0.0875
13687W        W30161   8.872   4.222  12.670  0.0631  0.0216  0.0126
13688W        W30162   9.737  12.318  14.859 -0.3281 -0.0613  0.1163
13689W        W30163   4.980   5.892  12.573 -0.0240  0.2474 -0.1102
13690W        W30164   5.974   4.467   4.238 -0.1190 -0.2307 -0.1171
13691W        W30165   3.742   1.470  13.466  0.0847  0.2545  0.0903
13692W        W30166  15.964   8.500   0.901  0.1523 -0.3449  0.0402
13693W        W30167   0.572   6.303   1.530  0.2107  0.0810 -0.3835
13694W        W30168  12.849  11.041  16.092  0.1029  0.1456  0.0947
13695W        W30169   7.224   3.560   4.668 -0.3344  0.0828 -0.0034
13696W        W30170  15.758   2.205   0.378  0.0803 -0.0036  0.2046
13697W        W30171  10.482  13.789   5.372  0.3898  0.0198 -0.1147
13698W        W30172  12.676  17.415  13.982 -0.4152 -0.2114 -0.2804
13699W        W30173   4.370  13.483   2.678 -0.1222 -0.1232 -0.1001
13700W        W30174   6.451   0.141   0.653 -0.1470  0.2314 -0.0357
13701W        W30175   4.601  16.972  14.675  0.2729 -0.1566  0.1962
13702W        W30176  11.247  14.102   5.187  0.0895  0.0429 -0.0643
13703W        W30177  13.288   9.510  16.251  0.2759 -0.1876 -0.1258
13704W        W30178   7.241  14.931  14.205  0.1994  0.1177  0.0819
13705W        W30179   3.202   1.921   1.068  0.3429  0.1623  0.0577
13706W        W30180   4.272   6.668  13.771  0.0690 -0.1917  0.3228
13707W        W30181   0.517   1.106  15.950 -0.0899 -0.0030  0.0198
13708W        W30182   8.468  13.639  15.262  0.1434 -0.0635  0.1043
13709W        W30183  14.075  10.329   0.235 -0.0672 -0.0204  0.0849
13710W        W30184   5.994   4.197   5.133 -0.2494 -0.4013  0.0587
13711W        W30185   3.230   8.038   0.074  0.0384  0.0526 -0.2320
13712W        W30186  14.981   9.208   4.791  0.0609  0.1114 -0.0777
13713W        W30187  11.428   2.998   0.039  0.0750 -0.0646  0.1841
13714W        W30188  16.664  14.761   1.492  0.0973  0.2756  0.1210
13715W        W30189  11.061  16.945  14.799 -0.1335 -0.1100  0.0959
13716W        W30190   6.719   5.468   3.392 -0.0768 -0.1566  0.1668
13717W        W30191   2.160  14.832  16.137 -0.1024  0.3503 -0.0354
13718W        W30192   0.791   1.567   5.415  0.1435  0.0049  0.2357
13719W        W30193   1.476   1.006  13.820 -0.0022 -0.2283  0.2043
13720W        W30194   8.631  13.247   3.750 -0.1100 -0.2969  0.2279
13721W        W30195  17.590  14.993   3.251  0.1380  0.1133  0.0013
13722W        W30196  15.209   4.472  13.319 -0.1046 -0.0506 -0.1780
13723W        W30197   0.667   1.228  11.708  0.1986  0.1390  0.1367
13724W        W30198   6.616   2.804  15.424 -0.4638 -0.1754  0.1159
13725W        W30199  11.388  11.288  13.648 -0.1556 -0.1507 -0.2192
13726W        W30200  11.451  12.645  13.608 -0.1595  0.3454  0.2509
13727W        W30201  17.345   5.943  14.278 -0.1512  0.0774  0.0799
13728W        W30202   4.344   1.034  16.507  0.0616  0.2209 -0.0267
13729W        W30203  12.073   5.918  11.370  0.1979 -0.0878 -0.1190
13730W        W30204  12.007   0.986   0.017 -0.0275  0.0349 -0.0322
13731W        W30205  11.351  10.626   0.743 -0.2405  0.1697  0.0020
13732W        W30206   0.426   9.153  16.316 -0.1208  0.2553  0.1142
13733W        W30207  11.965  12.246  13.849 -0.0348  0.1755 -0.0341
13734W        W30208  17.491  10.506   4.637  0.0743 -0.2509  0.0283
13735W        W30209  10.530   6.644   1.186  0.1540  0.2778  0.1059
13736W        W30210  10.957   3.631   1.983 -0.2319 -0.0789  0.0051
13737W        W30211   3.176   8.489   4.515  0.1323  0.1541  0.1154
13738W        W30212  16.523   1.599   3.024 -0.2209 -0.0924  0.2031
13739W        W30213   0.035  15.645  14.114  0.2277  0.0707  0.0968
13740W        W30214   5.511   5.977   4.698  0.2135  0.0706  0.2425
13741W        W30215   0.582   0.297  12.160 -0.0280  0.1667 -0.1421
13742W        W30216  12.921  17.788  14.262 -0.0761 -0.0627 -0.0310
13743W        W30217  11.755   4.699   1.256 -0.0467  0.0873 -0.1929
13744W        W30218  14.946   9.203   4.276 -0.1809  0.3226  0.0785
13745W        W30219   3.432  15.468  16.170 -0.2208  0.0787 -0.1439
13746W        W30220   5.255   5.214   2.329  0.0412 -0.0637 -0.0190
13747W        W30221  14.174   8.604  14.476 -0.2157 -0.1125  0.1423
13748W        W30222   5.882  11.631   4.446 -0.1321 -0.0238 -0.0094
13749W        W30223   1.452   8.062  12.197  0.2905 -0.1569  0.1642
13750W        W30224   1.670   8.683  10.332  0.0735 -0.0166  0.1072
13751W        W30225  10.383   3.170  13.055  0.0266 -0.2061  0.0198
13752W        W30226   1.420  15.853   1.354  0.0646 -0.0612  0.1378
13753W        W30227   6.300   7.231  12.528 -0.0459  0.2459 -0.1760
13754W        W30228  12.820  14.300   2.094  0.0555 -0.1315  0.3260
13755W        W30229  15.823   4.871  13.300  0.0067 -0.1765 -0.0214
13756W        W30230   5.778  12.973   3.333  0.0731 -0.1926  0.0152
13757W        W30231   0.101   6.124   1.724  0.0079  0.1137 -0.2029
13758W        W30232  12.610   3.904  13.640 -0.2267 -0.2000  0.1600
13759W        W30233  14.028  12.649   4.081 -0.0541 -0.1296 -0.0006
13760W        W30234  11.741   1.205  15.503 -0.1571  0.1835  0.1273
13761W        W30235   0.680  12.504  15.732  0.0309 -0.2131  0.1951
13762W        W30236   8.576   0.935   3.580 -0.0012 -0.1608  0.0520
13763W        W30237  13.135  15.053   0.077 -0.0598 -0.1404  0.0972
13764W        W30238   5.689   3.868  16.828 -0.2758  0.3718 -0.0583
13765W        W30239  17.129  13.163  12.053  0.1552  0.0746  0.0512
13766W        W30240  10.254  15.796   0.805 -0.0091  0.2211  0.1543
13767W        W30241   5.523  12.524  12.094 -0.1729 -0.1230 -0.0704
13768W        W30242  15.455  10.330  11.461  0.0763  0.0988  0.0866
13769W        W30243   9.012  16.263  12.455 -0.0264 -0.1594 -0.0532
13770W        W30244  13.622   6.304   3.718 -0.1516 -0.2289  0.1656
13771W        W30245  11.440  15.813   0.998  0.2883 -0.1244 -0.2567
13772W        W30246   5.553  15.294   2.861  0.1086 -0.0839 -0.2344
13773W        W30247   3.978   8.843   4.123  0.0161  0.0725 -0.2611
13774W        W30248  14.477  12.874  14.865  0.1511  0.0187  0.0962
13775W        W30249   5.616   9.941  16.001 -0.0995  0.1488 -0.4057
13776W        W30250   7.155   3.299   3.824 -0.0549 -0.0194 -0.2343
13777W        W30251  17.478   1.428  13.750  0.0193 -0.1820  0.0775
13778W        W30252   5.545   9.972  12.642  0.0819 -0.1046  0.0114
13779W        W30253   9.434  17.013   2.228  0.1427 -0.0454 -0.2032
13780W        W30254   5.979   7.652  15.696 -0.1294 -0.0797  0.0823
13781W        W30255   2.389   1.678   0.582 -0.0858  0.0190  0.1978
13782W        W30256   4.684   2.762   3.091 -0.1496 -0.0972 -0.0927
13783W        W30257  13.092  11.246  16.777 -0.0341  0.1971  0.1928
13784W        W30258  10.541   6.346   0.096  0.0996  0.0613 -0.3093
13785W        W30259   9.395   6.607   4.426 -0.3433 -0.2919  0.4443
13786W        W30260   4.370  13.126  13.105  0.1724  0.0309  0.1450
13787W        W30261   0.403   4.444  11.877  0.0066  0.1132  0.1133
13788W        W30262  13.096  15.584   0.526 -0.0336 -0.0229 -0.1178
13789W        W30263  17.408   6.990   4.946 -0.0465  0.1533  0.0438
13790W        W30264  16.173  17.795   5.314 -0.0098  0.0237  0.0274
13791W        W30265   9.548  11.282  15.428 -0.0981 -0.1800 -0.0522
13792W        W30266  16.713  12.891  11.970 -0.0010 -0.0727  0.3270
13793W        W30267   6.155   2.946   0.835  0.0493 -0.4877  0.3104
13794W        W30268  15.034   7.920   1.633 -0.1687 -0.1605  0.1753
13795W        W30269  10.881   8.919   5.898  0.0127 -0.2381 -0.0149
13796W        W30270   9.277  13.152  13.209 -0.1707  0.0261  0.1019
13797W        W30271   3.958   7.928  12.325  0.1379  0.2032 -0.1027
13798W        W30272   7.980  15.501   1.133 -0.2584 -0.0428  0.0718
13799W        W30273  11.415   5.363   5.265  0.3189 -0.0713 -0.0229
13800W        W30274   6.207   5.150  16.808  0.0638  0.0566 -0.1144
13801W        W30275  10.697   6.846   4.531 -0.1644 -0.1569 -0.0791
13802W        W30276  16.085  15.399   2.230  0.0861  0.1873  0.2087
13803W        W30277   3.145   4.629  12.771  0.3517  0.0169 -0.2099
13804W        W30278  17.357  14.632   2.485  0.0643  0.1965  0.0887
13805W        W30279  11.999   9.038   3.492  0.1131 -0.0599 -0.1406
13806W        W30280  12.521  15.864   6.166 -0.2942  0.2485 -0.0568
13807W        W30281  10.190  10.286  16.445  0.0377  0.1470 -0.1811
13808W        W30282   8.285  12.076   2.498  0.0338 -0.2954 -0.0304
13809W        W30283   4.591   6.060   4.460  0.3989 -0.0734 -0.0633
13810W        W30284  15.973  13.015  14.614 -0.2314  0.1103  0.1039
13811W        W30285   6.573   7.570  15.006 -0.1351 -0.1764  0.2243
13812W        W30286   7.285   6.109   0.615 -0.1383  0.2290  0.0443
13813W        W30287  12.766  11.370  13.864  0.1640  0.1226  0.0119
13814W        W30288   7.013  16.685  15.891  0.0405  0.2447 -0.1100
13815W        W30289  16.580   8.054  15.226  0.2697 -0.0379 -0.0198
13816W        W30290  11.925  17.619   4.602 -0.0669 -0.2864  0.2144
13817W        W30291  17.250   7.153  12.855 -0.4132 -0.2554 -0.0717
13818W        W30292  13.164   2.211  13.186 -0.1631 -0.0929  0.4615
13819W        W30293   8.676   1.767  16.654 -0.0054 -0.1977 -0.0448
13820W        W30294   8.849  17.050  12.580 -0.1184 -0.0125  0.1232
13821W        W30295   8.503  17.042  12.203  0.2712 -0.3152  0.0300
13822W        W30296  14.158   9.363  11.630  0.0667 -0.0246  0.2309
13823W        W30297   6.765  15.693   0.000  0.1493 -0.2160 -0.1084
13824W        W30298   0.403  10.445   1.570 -0.0986  0.2005  0.1024
13825W        W30299   6.515   6.509   2.614 -0.0978  0.2829  0.1079
13826W        W30300   4.841   3.059   2.226 -0.2238  0.0992  0.3819
13827W        W30301  16.641  12.272   0.529 -0.0755 -0.1587  0.2909
13828W        W30302   3.436  15.374   4.898  0.0721  0.2633 -0.0031
13829W        W30303   5.612  13.056  16.060 -0.3892 -0.0106 -0.1551
13830W        W30304   7.762  10.390   0.536 -0.1998 -0.1821  0.1309
13831W        W30305   2.060  10.434   1.515  0.1321  0.1568  0.1503
13832W        W30306  12.037  16.882  14.482 -0.1923 -0.1236  0.0259
13833W        W30307   7.832   9.102  15.054 -0.3858 -0.1164  0.1305
13834W        W30308   9.343  14.644  14.683 -0.2574 -0.2328  0.0328
13835W        W30309  14.639  17.286   5.760 -0.1086  0.1246  0.4211
13836W        W30310   4.157  12.531   3.550  0.2821 -0.0347  0.0769
13837W        W30311   1.308   5.954   1.218  0.0498 -0.3252  0.3076
13838W        W30312  12.238   1.735   1.906 -0.1229 -0.3496  0.1791
13839W        W30313   2.654   6.808  12.465 -0.4653 -0.0667 -0.0594
13840W        W30314  17.415   9.636  11.700  0.2267  0.1096  0.2043
13841W        W30315   0.983   8.643   1.181  0.0758  0.0666  0.1025
13842W        W30316   5.423   1.573   3.013 -0.0030  0.0341 -0.2166
13843W        W30317  17.698   9.303   1.897  0.2431  0.2648  0.2237
13844W        W30318   4.949  12.872   0.640  0.0752  0.1546 -0.1530
13845W        W30319  10.690   7.268  12.388 -0.4427  0.3118  0.1120
13846W        W30320  11.656  10.466  15.646  0.1135 -0.4567 -0.0538
13847W        W30321  17.234   4.801   2.835 -0.0309  0.2202 -0.0113
13848W        W30322  11.217   4.861  15.200  0.2190  0.0106  0.0134
13849W        W30323   6.778   5.630   5.474  0.2680  0.0219 -0.1136
13850W        W30324   1.236   9.559  13.925  0.0493 -0.2052 -0.2969
13851W        W30325   5.650  10.948  12.092 -0.0149 -0.2911  0.0332
13852W        W30326   8.175  12.695   4.491 -0.2049  0.1970 -0.2470
13853W        W30327   6.625  13.035   5.109  0.1235 -0.1381 -0.0147
13854W        W30328  10.312   8.806   6.219 -0.0595 -0.1629  0.1800
13855W        W30329  16.230   9.204   0.679 -0.0976  0.0503  0.0495
13856W        W30330   9.590   4.614   2.093  0.2327  0.0768 -0.2094
13857W        W30331  15.094  17.810   0.991 -0.1604  0.0866  0.1959
13858W        W30332   0.638   3.702  14.204 -0.0761  0.1157  0.0078
13859W        W30333  16.594   5.202   4.360 -0.1410 -0.2033  0.3943
13860W        W30334   5.018  10.618   0.294  0.2543 -0.0061 -0.0836
13861W        W30335  14.863   9.197   0.433 -0.0167  0.0729 -0.2585
13862W        W30336   6.894   8.101   3.932  0.0441  0.2209  0.0453
13863W        W30337   0.089   7.688  13.848  0.0208  0.1836 -0.1066
13864W        W30338  16.379  11.398   1.801  0.0453  0.0101 -0.3336
13865W        W30339  13.030   3.998  11.439  0.2598  0.0530 -0.0503
13866W        W30340  15.749  13.300   2.582  0.2370 -0.1105  0.1156
13867W        W30341   8.593  17.164   3.788  0.0190 -0.2531  0.0553
13868W        W30342  15.628   7.599   0.896 -0.1630 -0.1437 -0.0180
13869W        W30343   9.799   1.930  16.466 -0.2356 -0.1183  0.1806
13870W        W30344   2.546  14.484   5.167  0.0094 -0.0485  0.4175
13871W        W30345   9.372   3.449  15.556 -0.1520  0.1134  0.2107
13872W        W30346   9.319  11.079   4.358 -0.1777  0.1802  0.0040
13873W        W30347  17.258  12.394   4.876  0.0288  0.1745 -0.2195
13874W        W30348   2.457   1.290   6.129  0.0185 -0.0634 -0.2043
13875W        W30349   3.953   1.549   2.287  0.1192  0.4471  0.2031
13876W        W30350   1.898  11.587   2.292 -0.1832 -0.0861  0.1377
13877W        W30351   5.684   8.654  15.477 -0.0716 -0.3791  0.0196
13878W        W30352   1.196   7.520  12.851  0.1538 -0.0007 -0.1300
13879W        W30353  16.697   3.117  14.934  0.1018 -0.3041 -0.0559
13880W        W30354   4.300   1.114   0.179  0.1969  0.0704  0.1123
13881W        W30355  14.077   4.067  14.176 -0.2853  0.2059  0.0668
13882W        W30356   8.434   5.059   3.661  0.4007  0.3553 -0.0720
13883W        W30357   9.557   2.997   1.709  0.0445  0.1133  0.0657
13884W        W30358   2.937   3.851   0.065 -0.0456 -0.2117 -0.0191
13885W        W30359   2.952   5.093   3.779 -0.0043  0.0298  0.0183
13886W        W30360   0.361  14.992   2.919 -0.0025 -0.0793  0.3144
13887W        W30361  10.451  10.657   0.343 -0.3274 -0.0880  0.1110
13888W        W30362  12.602  11.491  16.009  0.0039 -0.1418  0.1536
13889W        W30363   2.773   9.197  11.362  0.0084  0.2792 -0.1474
13890W        W30364   8.169   2.981  13.153 -0.0971 -0.1276  0.1161
13891W        W30365   1.679   1.710  15.544 -0.2029 -0.0068  0.1665
13892W        W30366  16.494   3.742  16.386 -0.1863  0.0625  0.1433
13893W        W30367  10.410  17.412   1.005 -0.1426 -0.0547  0.0237
13894W        W30368   4.571   9.786  13.197  0.1903 -0.1782 -0.2262
13895W        W30369   8.623   7.585  12.324 -0.0540 -0.0110 -0.2472
13896W        W30370   7.599   6.476   2.396  0.2188 -0.0782 -0.1615
13897W        W30371  17.244   1.493   5.784  0.3902 -0.0338  0.2207
13898W        W30372   3.279   9.325  11.606  0.1586  0.0190  0.0102
13899W        W30373   5.812  12.837  11.537  0.0929  0.1223  0.2991
13900W        W30374   1.627  11.639  14.304  0.0365 -0.1430 -0.0942
13901W        W30375  17.009  13.092   4.641 -0.0654 -0.1238  0.1779
13902W        W30376  15.097   8.212  16.899 -0.1496 -0.4059 -0.2213
13903W        W30377  11.997  13.878   2.187  0.2986  0.2332  0.0830
13904W        W30378   6.801  15.745  15.094  0.1630  0.1115 -0.6968
13905W        W30379   4.924   8.301   6.337  0.0269 -0.0141  0.1087
13906W        W30380  17.756   3.992  16.286 -0.1703  0.1896  0.1739
13907W        W30381  10.946  15.490   4.379  0.0564  0.3229  0.0433
13908W        W30382  16.060   7.088   0.081 -0.0036  0.2178  0.1113
13909W        W30383  16.542  16.668   0.101  0.0235 -0.1409 -0.1248
13910W        W30384   5.269   6.973  16.822 -0.3074  0.2178  0.0260
13911W        W30385  12.962   6.157  13.426 -0.0085 -0.1153  0.3512
13912W        W30386   2.277  11.170  15.940  0.0299  0.0457 -0.0264
13913W        W30387   6.507   9.795  15.184  0.0346  0.1486 -0.4005
13914W        W30388   2.695   1.851   5.296  0.1417 -0.0524  0.1170
13915W        W30389  16.216   6.300   3.476  0.1297 -0.0725  0.1327
13916W        W30390   7.935   5.453  13.735  0.0730  0.1613  0.0674
13917W        W30391   7.071  15.706   1.120 -0.0103 -0.0046  0.0279
13918W        W30392   1.540   0.374  15.700  0.0907  0.1692  0.1342
13919W        W30393   6.903  14.308   1.638 -0.1036 -0.3741  0.0974
13920W        W30394   3.419   4.820  13.298 -0.2100 -0.0024 -0.0777
13921W        W30395   6.299   5.586   0.576  0.4142  0.1132  0.0214
13922W        W30396   2.350   6.075   6.303  0.2104 -0.1887  0.3455
13923W        W30397   4.860   1.547  11.825  0.0708 -0.0280 -0.2643
13924W        W30398   5.640   5.388  12.198 -0.1147  0.0471  0.0803
13925W        W30399   2.871   7.589   1.843  0.2276  0.3553 -0.0102
13926W        W30400   0.137   8.974   0.522 -0.2422  0.1028  0.0718
13927W        W30401  13.911  12.128   5.424 -0.0346  0.0441 -0.0721
13928W        W30402  14.560  15.244   4.321  0.1296 -0.1957  0.1447
13929W        W30403  15.221  11.557  14.536 -0.3124  0.0439  0.0483
13930W        W30404   7.877  16.028   4.998  0.0452 -0.0974 -0.1890
13931W        W30405   9.206   7.868  15.055 -0.0086 -0.1927  0.1064
13932W        W30406   7.473   0.440  11.684 -0.1157  0.1250 -0.1332
13933W        W30407  11.417   8.739  13.477 -0.0824  0.1492  0.1243
13934W        W30408  12.800   7.070   4.513  0.1451  0.0219 -0.1144
13935W        W30409   6.137   5.307   3.266  0.0899  0.3845 -0.0431
13936W        W30410   9.936   4.276  13.894 -0.0942  0.2065  0.1647
13937W        W30411   4.952   4.331   3.501 -0.0927 -0.1565 -0.0424
13938W        W30412   2.828   7.204  13.243  0.4905 -0.0328 -0.0041
13939W        W30413  12.826   6.770   5.951 -0.0959  0.1886  0.0024
13940W        W30414  16.705  16.519  13.598 -0.0176  0.0424  0.2037
13941W        W30415   8.602   7.201  15.370  0.0827  0.3723  0.1353
13942W        W30416  16.520   0.984   3.689 -0.0073 -0.0301  0.0632
13943W        W30417   6.212   7.478  12.927 -0.2173 -0.0151  0.1085
13944W        W30418  10.304  10.880  15.063 -0.1317 -0.0737 -0.2926
13945W        W30419  16.599   4.311   2.243  0.2183  0.0252 -0.1411
13946W        W30420   4.073   2.033   3.908 -0.0415  0.0488  0.2721
13947W        W30421  11.698   4.633   4.360 -0.3007  0.0978 -0.1330
13948W        W30422   7.749   3.848   5.883 -0.1899  0.1812 -0.0957
13949W        W30423   3.311  10.372  11.663  0.0716 -0.3297 -0.0376
13950W        W30424   5.289   5.663   3.031  0.3571 -0.2971 -0.1838
13951W        W30425   5.871  11.470  16.295  0.3499 -0.1005  0.0055
13952W        W30426  15.247   8.517   5.542 -0.4170 -0.0368  0.0280
13953W        W30427  10.840  10.319  11.688 -0.1019 -0.0098 -0.2862
13954W        W30428  13.111   6.400   0.061  0.2791  0.0260 -0.1610
13955W        W30429   6.643   1.458   1.047 -0.0984  0.0576  0.3231
13956W        W30430   5.396  14.610  15.637 -0.1894  0.1775  0.0492
13957W        W30431  11.339  16.215  11.265 -0.2732  0.0931  0.2007
13958W        W30432   9.311  16.123  15.280  0.1744  0.1088 -0.0053
13959W        W30433  14.424  12.052  16.107  0.0774 -0.0645  0.2541
13960W        W30434  11.791   8.061   2.267 -0.0040 -0.1770  0.1460
13961W        W30435  14.345   9.662  12.077  0.0475 -0.2646  0.1024
13962W        W30436  15.755   6.011  10.822  0.0807 -0.3900 -0.2256
13963W        W30437  12.498   0.543   4.356  0.0133  0.1632 -0.0279
13964W        W30438   1.078  15.712  15.892 -0.3852 -0.1469  0.2538
13965W        W30439  11.224   7.997  16.049  0.1045  0.1211 -0.0881
13966W        W30440   7.822   0.881  13.183 -0.0430 -0.4366 -0.0949
13967W        W30441  15.088   2.834  14.629  0.2026  0.1832 -0.2024
13968W        W30442   3.568   1.867   6.250  0.1367 -0.2604 -0.1540
13969W        W30443  12.168  17.267  15.339  0.0987 -0.1151 -0.0132
13970W        W30444  13.402   0.349   0.743 -0.2499  0.1131 -0.0924
13971W        W30445  16.730  13.980  14.279  0.0345 -0.1002 -0.1107
13972W        W30446   8.967   1.905   0.870 -0.2625 -0.0730  0.1859
13973W        W30447  17.179  10.220   1.189 -0.3080 -0.2268 -0.3072
13974W        W30448   8.735   5.245   1.983 -0.0213  0.3711 -0.0878
13975W        W30449   7.693   9.252  12.974  0.1577 -0.0765 -0.1427
13976W        W30450   5.694  14.906  16.498  0.2252 -0.0064  0.4069
13977W        W30451   2.585   3.449  14.089  0.1661  0.1338 -0.1973
13978W        W30452   2.484   0.213   2.118  0.0013  0.3354  0.1828
13979W        W30453   2.613   2.932   2.973 -0.2160  0.0993 -0.1832
13980W        W30454   1.947  10.815  12.824  0.1615  0.1983  0.1788
13981W        W30455  11.863  11.736  13.793 -0.0639  0.2433  0.0807
13982W        W30456   0.832   7.907  14.503 -0.2025  0.1011  0.1433
13983W        W30457   3.253   6.687  15.435  0.0518 -0.1938 -0.3226
13984W        W30458   5.321  12.684  14.362 -0.2254 -0.0903  0.0915
13985W        W30459   7.033  17.141   4.550  0.1591  0.2090  0.0465
13986W        W30460   1.166   7.339   4.509  0.1696 -0.0562  0.1307
13987W        W30461  17.454   3.435  16.800  0.0436 -0.0505  0.0098
13988W        W30462  16.820  17.390  14.862  0.2417 -0.0238  0.0291
13989W        W30463   4.787  17.638  13.304 -0.1219  0.0631 -0.2682
13990W        W30464   0.765   6.069   0.704  0.0009  0.0656  0.1923
13991W        W30465   8.036   6.075   5.614 -0.1606 -0.0163 -0.1554
13992W        W30466   6.679  13.086  13.491  0.3006  0.0084 -0.0838
13993W        W30467  16.963  11.521  13.022 -0.0328 -0.1130 -0.0061
13994W        W30468  10.697  10.633  16.749 -0.1020  0.1024  0.1635
13995W        W30469   1.013   6.346   1.292 -0.2801 -0.4107  0.1884
13996W        W30470  17.599   3.659   0.314 -0.0181 -0.2209  0.1777
13997W        W30471  14.302  11.765   3.057 -0.0913  0.1111  0.0977
13998W        W30472   1.374   6.885   4.386  0.0985  0.0845 -0.0940
13999W        W30473   5.944  16.170   3.065 -0.1299  0.2029 -0.1774
14000W        W30474   5.156   5.593  14.859 -0.1042  0.1515  0.0828
14001W        W30475   5.656   0.247  13.977 -0.1488 -0.1829 -0.3037
14002W        W30476  16.240  16.646  13.316 -0.0592 -0.1365  0.1025
14003W        W30477  15.041  17.182  15.648  0.1234 -0.0087  0.0802
14004W        W30478   3.153  14.127  15.214  0.0188 -0.0120 -0.2469
14005W        W30479  11.251   4.261   2.375  0.1253 -0.0572 -0.1786
14006W        W30480   8.871   0.458   4.325 -0.0492 -0.0738  0.1280
14007W        W30481  11.810  11.571   1.058 -0.0308 -0.0208 -0.0302
14008W        W30482   6.122  11.795   1.183  0.2140 -0.3040 -0.3791
14009W        W30483   2.146   1.214   0.591 -0.0166 -0.1851 -0.1985
14010W        W30484   7.691  11.706  16.861 -0.1483  0.0736  0.0306
14011W        W30485   4.951   2.711  16.546  0.1859 -0.4074  0.3613
14012W        W30486   3.321   8.164  13.735  0.3602 -0.0959 -0.0360
14013W        W30487  14.126   5.310   0.469  0.0906 -0.1323 -0.0575
14014W        W30488  14.240   6.073  13.548  0.1553 -0.1557  0.0498
14015W        W30489   3.180   2.749  15.920 -0.1517  0.0324  0.1464
14016W        W30490   4.774  14.168   1.999 -0.0566 -0.1523  0.2240
14017W        W30491  15.334   5.462   1.554  0.2007 -0.1319  0.3139
14018W        W30492  15.640   5.168   2.523  0.0219 -0.0488 -0.1042
14019W        W30493   8.998  11.586   0.822 -0.1858 -0.1355  0.1651
14020W        W30494   0.769   5.321   4.914 -0.2557 -0.0738 -0.1002
14021W        W30495  17.303   9.235   3.276  0.0699  0.0211 -0.4832
14022W        W30496  10.219   9.935  13.506 -0.1751  0.1700 -0.2326
14023W        W30497   9.096  15.876   2.161  0.1329 -0.0445 -0.0550
14024W        W30498   6.909  10.403  16.365  0.2443 -0.2380  0.0571
14025W        W30499  15.840  10.075  11.637 -0.0055  0.1888 -0.3419
14026W        W30500  10.043   9.263   1.199 -0.2138  0.2302 -0.2815
14027W        W30501  10.713   0.040   0.951  0.0262  0.4214 -0.2530
14028W        W30502  17.733  17.753  12.524  0.3796  0.2221 -0.3969
14029W        W30503   8.819  11.181  14.204  0.0028 -0.0249 -0.3130
14030W        W30504   4.746  14.951   0.963 -0.2994  0.2260  0.2215
14031W        W30505  14.457   5.842   1.337  0.2580  0.1053 -0.0118
14032W        W30506   5.444  10.271  11.803  0.1384 -0.0920 -0.1879
14033W        W30507   4.187   0.474   4.992 -0.2660 -0.0013 -0.1915
14034W        W30508   1.728  12.905   0.698 -0.2062  0.4059  0.0370
14035W        W30509   2.277   3.474  16.740  0.0373  0.0994 -0.0259
14036W        W30510   4.900  10.241  15.246 -0.1345  0.0527  0.0440
14037W        W30511   4.905  13.602  13.341 -0.0748  0.0791  0.2282
14038W        W30512  17.605   7.116   4.465  0.1008  0.0386 -0.0073
14039W        W30513   7.519   5.166   4.137 -0.0786  0.0701 -0.0255
14040W        W30514  15.437  11.503  15.379 -0.0540  0.0597 -0.2353
14041W        W30515   1.462  14.015  14.191 -0.0660 -0.1557  0.0458
14042W        W30516   1.923   3.711   0.688 -0.1593 -0.0275 -0.1704
14043W        W30517   2.164  13.499  16.164 -0.2916  0.3360 -0.1365
14044W        W30518  10.848  17.412  11.536 -0.2699  0.0809 -0.2041
14045W        W30519  14.657   7.311  14.626 -0.0582  0.1181  0.1185
14046W        W30520   7.565  14.469  13.690  0.0430 -0.1246  0.0287
14047W        W30521  14.563   5.358   1.570 -0.1361  0.0581  0.0766
14048W        W30522  14.996  13.944  11.831 -0.0099 -0.1590 -0.3947
14049W        W30523  10.312   8.525  14.970  0.2088 -0.0477 -0.3129
14050W        W30524   5.563  10.953   2.160 -0.2021 -0.1377  0.1665
14051W        W30525   3.905   4.396  12.794 -0.0700  0.2671 -0.1533
14052W        W30526  14.628   3.179   3.520 -0.2565 -0.0306 -0.0760
14053W        W30527  15.977   9.538   3.803 -0.2908  0.0577 -0.0827
14054W        W30528   0.907   1.424  13.079 -0.0097  0.3571 -0.1115
14055W        W30529  11.190  13.743   1.625 -0.2299  0.0881 -0.0881
14056W        W30530  10.244  17.378   3.141 -0.2013 -0.0541  0.0295
14057W        W30531  11.230   8.642  14.038  0.1756 -0.3184 -0.3077
14058W        W30532  10.202   7.181  11.398 -0.0094 -0.2710 -0.3051
14059W        W30533  10.868   0.238  12.171 -0.1975  0.0058 -0.1377
14060W        W30534  15.197  14.237   5.288 -0.0575  0.0022  0.0767
14061W        W30535  14.126   6.386   4.988 -0.0070 -0.3368  0.0163
14062W        W30536  13.306  15.119   0.534  0.0255  0.0629 -0.0990
14063W        W30537  11.741  10.806   2.689  0.1794  0.3290  0.1786
14064W        W30538  12.079   3.463   5.534  0.0410  0.1595  0.0753
14065W        W30539  12.031   3.213   2.391  0.0843 -0.1667 -0.1723
14066W        W30540   9.882  15.834  15.610 -0.0298 -0.0091  0.3371
14067W        W30541  17.633   0.785  13.070  0.0523 -0.0980  0.1708
14068W        W30542   6.966  10.671  13.606  0.0231  0.0523  0.0972
14069W        W30543   9.700  12.721   2.463 -0.0306  0.1743 -0.0393
14070W        W30544   9.380   1.845  13.196 -0.1468  0.0287  0.0150
14071W        W30545  14.731   0.738  13.256  0.2355  0.1810  0.0436
14072W        W30546   8.981   8.957   5.338  0.0931 -0.2758  0.2499
14073W        W30547   4.102   3.646  13.024  0.2021  0.2721 -0.2879
14074W        W30548  12.442  16.685   3.536  0.1316  0.0264 -0.2900
14075W        W30549  13.024   8.272   1.415  0.1575  0.6378  0.0715
14076W        W30550   9.401   2.539  12.621  0.0557 -0.0087 -0.0180
14077W        W30551   6.171   2.882   0.236 -0.0842 -0.3741  0.0884
14078W        W30552   4.140  16.522  13.991 -0.1637 -0.0512  0.1491
14079W        W30553   0.209  10.075  13.012 -0.0335  0.1990 -0.1270
14080W        W30554   5.791   1.800   0.859 -0.0168  0.0460 -0.0235
14081W        W30555  15.893   2.176  14.467 -0.0851 -0.4506 -0.3349
14082W        W30556  11.745  16.493  14.225 -0.2767  0.1466 -0.3798
14083W        W30557   5.254  10.202   3.566  0.0623  0.1831 -0.0154
14084W        W30558   9.857   8.356  14.222 -0.2336 -0.0384  0.2704
14085W        W30559   3.859   2.984   1.667  0.2834 -0.2325  0.1376
14086W        W30560   5.246   2.725   1.353  0.0407  0.1304 -0.0848
14087W        W30561   6.556   8.654   1.553 -0.0826 -0.0174  0.0377
14088W        W30562   7.855  15.687   4.565 -0.1499  0.1542  0.0209
14089W        W30563   4.994  13.874   1.589  0.2459 -0.0954 -0.3046
14090W        W30564  16.810   4.276  13.020  0.1177  0.1237 -0.0938
14091W        W30565   1.311  17.142   2.026 -0.1669  0.0240  0.1532
14092W        W30566  12.333   6.035  13.319  0.0505  0.0930 -0.3979
14093W        W30567   3.351  10.534  13.086 -0.1241 -0.2004 -0.0545
14094W        W30568   1.685   5.579  16.755 -0.0585  0.2266 -0.2213
14095W        W30569   3.529   5.291  15.255  0.2378 -0.0857  0.0485
14096W        W30570   7.157   2.116  12.478  0.2526 -0.2209  0.0944
14097W        W30571   6.384  11.934  15.671 -0.0953 -0.1655 -0.0151
14098W        W30572   0.685   0.731   1.977  0.0581 -0.1934  0.4292
14099W        W30573   8.395   0.323   3.997 -0.1610 -0.1753 -0.0578
14100W        W30574  14.834  12.039   6.444 -0.2493  0.0456 -0.0103
14101W        W30575   4.312  11.069  15.961  0.1708 -0.0733 -0.1474
14102W        W30576   8.377   6.783  13.791 -0.2363 -0.0489 -0.2645
14103W        W30577  12.649   9.618  11.335 -0.1372 -0.0817 -0.1701
14104W        W30578   0.619   3.756  16.559  0.1282 -0.0350 -0.0240
14105W        W30579   8.254   4.026   0.255  0.1370  0.2814  0.2110
14106W        W30580   1.873  14.819   3.296  0.3393  0.0835 -0.1766
14107W        W30581   4.766  12.915  12.746 -0.2740  0.1910 -0.0303
14108W        W30582   1.674  16.908   3.210 -0.5328 -0.1781  0.0519
14109W        W30583   0.603  15.238  12.749 -0.1034  0.1698  0.4420
14110W        W30584  14.935   1.825   6.149 -0.1742 -0.0746  0.1628
14111W        W30585   5.690   8.392   4.851  0.3389 -0.0540 -0.3170
14112W        W30586  17.531  16.502  12.224  0.0322 -0.0552 -0.0556
14113W        W30587  16.862  16.311   0.341 -0.1149  0.0170  0.0215
14114W        W30588   6.261  10.719  12.447  0.0675  0.2535 -0.1921
14115W        W30589  15.200   1.641   1.480 -0.2943 -0.2582 -0.0939
14116W        W30590   5.259   2.230  13.254 -0.3928 -0.3262  0.2984
14117W        W30591   3.171   0.154   3.311 -0.0481  0.2896 -0.1142
14118W        W30592  13.564   0.406  15.853 -0.0275 -0.4245 -0.2580
14119W        W30593   0.455   1.041  11.311 -0.1539  0.0259 -0.0641
14120W        W30594  15.981  13.270   4.451  0.0682 -0.0951 -0.1577
14121W        W30595   7.910   8.538   0.600 -0.2467 -0.4036 -0.0887
14122W        W30596  16.946  15.748  13.807 -0.1490 -0.3287 -0.1522
14123W        W30597   4.988  16.973  13.045  0.0314 -0.1017  0.0317
14124W        W30598   9.021  12.944   0.636 -0.2517  0.1594  0.2801
14125W        W30599   7.198   2.835  14.536 -0.1675  0.0290  0.1047
14126W        W30600  11.089   0.582   4.862  0.2349  0.0241  0.3947
14127W        W30601   8.914   6.794   0.314 -0.3511 -0.0429 -0.2312
14128W        W30602   0.337  13.965  12.190  0.0276  0.0546  0.2888
14129W        W30603   9.998  13.022   2.216 -0.2273 -0.1035  0.0585
14130W        W30604  17.074   6.940  14.463  0.0439  0.0563  0.0508
14131W        W30605   3.700   8.691   3.048 -0.0519  0.1122 -0.1242
14132W        W30606   9.965   3.388   1.434 -0.0795 -0.0446  0.3005
14133W        W30607   2.037   9.566  13.286  0.0751 -0.2187 -0.0146
14134W        W30608   0.104  17.475   1.886  0.1420 -0.0551  0.2351
14135W        W30609   9.535   2.676  12.077 -0.0001 -0.1026 -0.0274
14136W        W30610   7.074  15.524   5.254 -0.0105  0.0316 -0.1435
14137W        W30611   6.891   0.321   0.831  0.1067  0.1810  0.2068
14138W        W30612   4.053  14.665  12.577  0.0687 -0.2875  0.1846
14139W        W30613   0.614   6.033  15.228 -0.2371  0.1407  0.1716
14140W        W30614   9.181  13.006  12.723  0.3587 -0.2397  0.0672
14141W        W30615   2.902   7.902   6.161 -0.0765  0.0890  0.0412
14142W        W30616  14.139   6.862   2.976 -0.3712 -0.1336 -0.1072
14143W        W30617   3.590   9.645  13.281  0.0249  0.0527  0.0552
14144W        W30618  17.507   4.674   5.894 -0.0732  0.1941 -0.1206
14145W        W30619  16.185   2.732   5.534 -0.0651  0.0185 -0.0188
14146W        W30620   1.155  13.116   3.018 -0.3325  0.0927  0.0106
14147W        W30621  12.711   8.468   4.288  0.2363  0.0515  0.0742
14148W        W30622   8.055   9.948  16.721 -0.1697  0.1721  0.2043
14149W        W30623   8.711   0.945  13.255  0.2157  0.1338 -0.1484
14150W        W30624   5.945   8.408  15.814 -0.0196  0.0130  0.0100
14151W        W30625   5.540  16.040  12.939 -0.4837  0.1344 -0.3039
14152W        W30626   4.470   6.053  12.568 -0.1661  0.0768 -0.1276
14153W        W30627   4.574   4.981  11.605  0.0838 -0.0643  0.2069
14154W        W30628  17.245   0.848   4.998 -0.0017  0.3070  0.2060
14155W        W30629  15.847   1.772   2.173 -0.0331  0.0528  0.0084
14156W        W30630  12.660  15.910   3.443  0.0079 -0.0443 -0.3463
14157W        W30631  13.668   8.358   0.440 -0.0567 -0.0087 -0.1784
14158W        W30632   9.278  13.875  14.650  0.3348  0.0525 -0.0540
14159W        W30633   8.400   2.759  14.704  0.1190 -0.3072 -0.3334
14160W        W30634   9.332   5.035  11.778  0.3774  0.4670 -0.0612
14161W        W30635   0.870  14.303  16.902  0.2030  0.1719 -0.2054
14162W        W30636   2.182   0.382  16.335  0.0521 -0.2289  0.4958
14163W        W30637  10.337  15.066   5.325  0.1540 -0.2413  0.2700
14164W        W30638   6.740   7.038  15.170 -0.3218 -0.2223  0.0347
14165W        W30639  11.959  16.468   3.377 -0.0548 -0.1429 -0.2150
14166W        W30640  12.742  12.576  15.655 -0.2766  0.0130  0.0061
14167W        W30641   5.275   6.035   5.125  0.0796 -0.1202 -0.0873
14168W        W30642   4.267   3.509   4.157 -0.2754 -0.0377 -0.1281
14169W        W30643  12.935   1.243   4.502  0.3399  0.0971 -0.1376
14170W        W30644   8.396   1.181   2.488 -0.1776 -0.2712 -0.3222
14171W        W30645   1.912  13.229  13.747  0.1197  0.1325 -0.0994
14172W        W30646   7.545  10.183   4.099 -0.2257  0.0276  0.0284
14173W        W30647  14.932   2.207   3.895 -0.2736 -0.1231  0.2513
14174W        W30648  16.121  11.280   4.650  0.1281  0.0426 -0.1361
14175W        W30649   6.851  10.913  13.203  0.1340 -0.2526 -0.0878
14176W        W30650   1.303   9.005  14.055  0.0307 -0.0939 -0.0180
14177W        W30651  15.603  16.984   0.937 -0.0892  0.1742  0.1535
14178W        W30652   6.977   1.316  13.919 -0.0340  0.1565  0.0846
14179W        W30653  11.958   6.897  15.573  0.0502  0.0825 -0.1420
14180W        W30654  17.277  17.364   0.120 -0.1998  0.4325 -0.2201
14181W        W30655   8.067   0.443   0.259 -0.1813 -0.1212  0.3657
14182W        W30656   8.833  10.154  14.284 -0.0018 -0.0723 -0.1027
14183W        W30657   1.796  13.091   3.308  0.1722  0.0156  0.0090
14184W        W30658  16.826  11.134   6.304 -0.0343  0.0013 -0.2352
14185W        W30659   1.860  16.006   1.096  0.0471 -0.2666  0.0789
14186W        W30660   9.093  17.709  15.419  0.2094 -0.2315  0.2397
14187W        W30661   4.888   5.605   0.164 -0.2311 -0.0200 -0.0743
14188W        W30662   8.277   7.991  12.227  0.1601  0.1766  0.0328
14189W        W30663   3.063  15.073  14.014  0.0237  0.2454  0.0507
14190W        W30664   5.658   5.490   6.568  0.0676 -0.0038 -0.0413
14191W        W30665   6.626   0.625   4.966 -0.2337  0.3320  0.1830
14192W        W30666  13.344  12.317  13.752 -0.1192  0.2152 -0.0111
14193W        W30667   0.240   0.544   6.504  0.1646 -0.0452 -0.1735
14194W        W30668  13.307   8.857   1.973 -0.1912  0.1432 -0.2650
14195W        W30669  17.531   5.775   3.608 -0.0436  0.0936  0.1015
14196W        W30670   5.231   7.920  14.296 -0.1154  0.3649 -0.2773
14197W        W30671   2.882   2.278  11.667 -0.0184  0.0783 -0.1592
14198W        W30672   0.611   3.110  12.798 -0.1838 -0.4471 -0.1893
14199W        W30673  11.773   8.290   1.248 -0.1345 -0.1677  0.2282
14200W        W30674   0.656  10.300  14.004 -0.2106  0.1107 -0.0952
14201W        W30675   8.639   5.444   4.842  0.2858  0.2750 -0.3235
14202W        W30676  12.459   4.481   3.899 -0.0297 -0.2246 -0.0730
14203W        W30677   6.357   8.018   3.255  0.1875  0.0682  0.1990
14204W        W30678   4.070  15.162   0.068  0.2227  0.0709 -0.0486
14205W        W30679   8.691   9.341   1.669  0.1188  0.2787 -0.2092
14206W        W30680  11.958   1.431   0.825 -0.1627  0.0899  0.0049
14207W        W30681   5.074  15.798  13.081 -0.1093  0.0383 -0.0149
14208W        W30682  16.325   0.820  14.836  0.0713 -0.0968  0.0012
14209W        W30683   4.625   1.849  12.822 -0.0004  0.1407  0.0820
14210W        W30684   1.302   6.921   0.522  0.0537 -0.0549 -0.0020
14211W        W30685   2.057  15.594  15.312  0.1729 -0.3268 -0.1369
14212W        W30686  14.737   0.525   3.676 -0.2332 -0.0487  0.2242
14213W        W30687  10.820   5.563   4.419 -0.2505  0.1044 -0.1209
14214W        W30688   3.370   7.146  13.937 -0.1713 -0.1926  0.1389
14215W        W30689   7.266  10.178  10.816 -0.1046  0.3059 -0.2826
14216W        W30690   0.138   9.986   0.144 -0.0928  0.0726 -0.0220
14217W        W30691   8.679  11.520   5.864 -0.1255  0.1261 -0.2419
14218W        W30692   6.436   1.031  12.038  0.0848  0.2153  0.2167
14219W        W30693   8.018  14.969  14.071 -0.1079 -0.0974  0.0555
14220W        W30694  17.331   0.240   0.724 -0.1607  0.1102 -0.1099
14221W        W30695  10.418   4.784  15.188 -0.0347 -0.2913  0.0432
14222W        W30696  13.330  16.634   5.114  0.0628 -0.2970 -0.0199
14223W        W30697   5.968   6.227  14.285  0.0899 -0.0099 -0.0417
14224W        W30698   7.693   9.943   0.813  0.0293 -0.0985 -0.3792
14225W        W30699  14.610  11.767  13.852  0.1213 -0.4004  0.1608
14226W        W30700   1.643   5.369  14.540 -0.0576  0.2111  0.3296
14227W        W30701   1.467  15.533  16.229  0.1997  0.0755 -0.0309
14228W        W30702   4.402   8.763  16.743 -0.4401 -0.1290  0.3598
14229W        W30703  14.827   5.561  16.038  0.0647  0.1116  0.2240
14230W        W30704  15.728   5.519   4.152 -0.3895  0.1719 -0.1062
14231W        W30705  17.093   2.249  14.899 -0.1175  0.1066  0.1289
14232W        W30706  13.289   6.042   5.306  0.1338 -0.2680 -0.2574
14233W        W30707   5.755  16.105  13.564 -0.1204 -0.0939 -0.0705
14234W        W30708  10.219   2.580   5.173  0.0882 -0.0688  0.2710
14235W        W30709   9.215   9.672   0.912 -0.3541  0.0733  0.1722
14236W        W30710   1.388   3.133  14.377 -0.1889  0.2423 -0.0636
14237W        W30711  11.157  15.511   4.878  0.2682  0.0706 -0.0148
14238W        W30712   9.349  13.806   5.431  0.0971 -0.3155  0.2651
14239W        W30713   9.815  16.476   3.299  0.1310  0.0087 -0.0687
14240W        W30714  12.326   0.742  15.515 -0.1758 -0.0589  0.0138
14241W        W30715  13.494  12.390   1.488 -0.1530  0.1232  0.0479
14242W        W30716  17.168   6.529  16.143 -0.0981 -0.0248  0.1230
14243W        W30717  11.352   5.330   1.530 -0.0102  0.0988 -0.1178
14244W        W30718  10.143  13.980  14.881  0.0095  0.1405 -0.1248
14245W        W30719   2.923  16.605  11.966  0.0762 -0.0348 -0.0007
14246W        W30720  13.220  11.353   0.778 -0.0038 -0.1368  0.0662
14247W        W30721  14.294   3.519  12.465  0.0915  0.1794 -0.0450
14248W        W30722   0.878  11.404  11.227  0.0461 -0.2971  0.0842
14249W        W30723  12.171   5.404  16.011  0.0398 -0.2260  0.0973
14250W        W30724   8.873   8.500  16.425  0.3911 -0.0100 -0.0263
14251W        W30725   7.525  10.580   2.970  0.2208  0.0638  0.1588
14252W        W30726  16.749  12.364  12.033  0.1574  0.1939  0.0189
14253W        W30727   3.034   1.374  14.585  0.0983 -0.2958 -0.2490
14254W        W30728   9.124   0.423  14.280  0.1161  0.1086  0.1756
14255W        W30729   6.692  13.339  12.547 -0.2806 -0.0709 -0.1278
14256W        W30730   5.151   9.842   2.730  0.2817 -0.4090 -0.4915
14257W        W30731  12.508   5.311  13.778  0.0044 -0.1646  0.3944
14258W        W30732  13.338   0.715   2.232 -0.3100 -0.3364  0.0927
14259W        W30733   6.879  11.917  13.295 -0.1523 -0.1713 -0.1626
14260W        W30734  15.296  12.701  15.940 -0.3069 -0.1237 -0.1862
14261W        W30735  14.234   7.555  14.504 -0.1440  0.2172 -0.0475
14262W        W30736   0.966   6.230  14.100  0.2244 -0.0185  0.0133
14263W        W30737  13.936  11.282   5.611  0.1162 -0.0984  0.3517
14264W        W30738  14.140  15.809   4.955 -0.4705  0.1571  0.1082
14265W        W30739   0.770   6.979   6.279 -0.0265  0.0789  0.0040
14266W        W30740   0.404   0.535   3.951 -0.2058  0.0820  0.1103
14267W        W30741  16.149   4.028  13.777  0.3859  0.0052 -0.0124
14268W        W30742  17.650   3.430   6.795  0.4406  0.1299 -0.0476
14269W        W30743  11.228   7.054   1.014 -0.1804  0.1729  0.2260
14270W        W30744  17.320   9.176  11.950 -0.0498 -0.1994 -0.2466
14271W        W30745  15.248   4.967   2.247 -0.1618 -0.4530 -0.0470
14272W        W30746  11.330  11.407   0.116 -0.2120 -0.2318  0.5615
14273W        W30747   2.760   8.072   4.449 -0.0727 -0.0880  0.1493
14274W        W30748   9.984   0.130   4.867  0.1346  0.0024  0.0018
14275W        W30749  15.685  17.064   2.002 -0.2204  0.1610  0.0044
14276W        W30750   7.642   8.511  11.934 -0.1972  0.1104  0.0104
14277W        W30751   5.687  17.438  16.277 -0.0156 -0.1324 -0.0553
14278W        W30752  10.483   7.713   3.470 -0.1642  0.0497  0.1139
14279W        W30753   7.315  13.920  15.069  0.0993  0.0416  0.3393
14280W        W30754  14.145  13.578  12.908  0.0964  0.2382 -0.2813
14281W        W30755   6.177   3.995   2.699 -0.0067 -0.0101 -0.2184
14282W        W30756   9.258  12.154  12.765  0.1179  0.1391  0.1877
14283W        W30757  14.369   6.423  14.498  0.0492  0.0805  0.0772
14284W        W30758   7.281   0.093   5.507 -0.1625 -0.0886  0.1854
14285W        W30759   1.802   0.928   3.874 -0.0004 -0.0609 -0.0373
14286W        W30760   0.772   4.036  16.139 -0.1434 -0.0984  0.1024
14287W        W30761   8.203   3.013   4.742  0.1958  0.0448  0.1391
14288W        W30762  12.283   3.018   1.039 -0.0674 -0.1226 -0.0758
14289W        W30763   1.208  13.264  13.267 -0.1571  0.1046 -0.2866
14290W        W30764  13.815  15.241   6.154 -0.0378 -0.1609  0.3000
14291W        W30765  12.509   2.722   4.712 -0.0584  0.0693 -0.1106
14292W        W30766  14.764   3.884  14.663 -0.2209 -0.1559  0.3013
14293W        W30767  12.102  10.641  13.967 -0.1751 -0.2755 -0.0461
14294W        W30768   0.773   0.950  13.065  0.0044 -0.1979  0.2300
14295W        W30769  14.131   1.177   0.536  0.0966 -0.1304 -0.2982
14296W        W30770   1.204   3.880  15.937  0.2785 -0.0992 -0.1329
14297W        W30771  15.510  11.463   1.625 -0.2738  0.2688  0.1249
14298W        W30772   2.443   8.699  14.729  0.0147  0.0346 -0.2352
14299W        W30773  17.654  12.095  11.678  0.0893 -0.0031  0.2571
14300W        W30774  10.784  17.769   3.508 -0.0173 -0.1248 -0.1948
14301W        W30775  17.444   3.869   1.713  0.0031  0.0437  0.1604
14302W        W30776  15.845  14.614  15.450  0.0404  0.0486  0.0186
14303W        W30777   1.457   8.936  14.679  0.2489  0.2070 -0.0877
14304W        W30778   1.638   0.023   3.403 -0.2008  0.0230  0.2566
14305W        W30779   3.542   4.235   1.914  0.0441  0.4432  0.1954
14306W        W30780  15.090  10.645  12.163 -0.0793 -0.0752 -0.0513
14307W        W30781   9.661  12.842  12.583  0.3788 -0.2843  0.3381
14308W        W30782  12.963   1.183  16.081 -0.3238  0.0168  0.1996
14309W        W30783  12.424   7.565   4.961 -0.0081 -0.0633  0.3653
14310W        W30784  14.203  10.051  13.310 -0.0383  0.1664  0.0515
14311W        W30785   4.834  10.247  16.288 -0.0063 -0.1139 -0.0661
14312W        W30786   3.529  12.981  14.602 -0.0480  0.2150 -0.2945
14313W        W30787  14.515  15.215   1.826 -0.0010  0.0110 -0.1807
14314W        W30788   3.559   9.435   2.078  0.0248  0.1152  0.1083
14315W        W30789  10.318   9.449   5.439 -0.2565 -0.1651  0.1010
14316W        W30790   2.597   1.180  14.366 -0.4490 -0.0294 -0.1770
14317W        W30791  10.530   8.831   4.606  0.2409 -0.1540  0.0031
14318W        W30792  10.288  13.495   0.886  0.0459  0.1133 -0.0458
14319W        W30793   9.337  12.355   1.774 -0.4336 -0.3017  0.1125
14320W        W30794  12.533  13.693   6.310  0.0358  0.1720  0.5627
14321W        W30795  12.586   1.480  13.185  0.0548  0.5404  0.0099
14322W        W30796  12.696  15.525  14.439  0.0761  0.1049  0.0090
14323W        W30797   0.538   9.488  11.921  0.2198 -0.2216  0.1899
14324W        W30798  17.578   9.636   4.208  0.1712  0.1752 -0.0682
14325W        W30799  10.256   7.331   3.113  0.0585 -0.1804  0.2354
14326W        W30800   3.950   2.450  16.622  0.0208  0.1556  0.1410
14327W        W30801  16.951   5.002   4.707 -0.0104 -0.0245  0.1748
14328W        W30802   9.564  10.640  13.887 -0.0897  0.0306 -0.2505
14329W        W30803  17.692   7.428   5.590 -0.3692  0.0016 -0.1387
14330W        W30804  16.111   4.997   0.524 -0.0980 -0.0683 -0.2536
14331W        W30805   4.122  13.978   1.226  0.4822 -0.0133 -0.2822
14332W        W30806   0.806  11.886   2.979  0.1133 -0.2351  0.0123
14333W        W30807   2.148  17.505   0.171  0.2718 -0.1133 -0.2721
14334W        W30808  16.696  11.825   1.948 -0.0061 -0.1680  0.0462
14335W        W30809   1.370   7.567   0.682 -0.1452  0.1328  0.3432
14336W        W30810   7.100   6.283  12.042 -0.1223 -0.0143 -0.0022
14337W        W30811   9.069   0.088  11.367  0.0985  0.0990 -0.1531
14338W        W30812  17.471   6.430  14.817  0.1587  0.1429  0.0166
14339W        W30813   8.521   6.241  11.632  0.1738 -0.3395 -0.0863
14340W        W30814   1.116   4.149  12.460  0.1494  0.1057  0.0141
14341W        W30815  16.870   3.930  15.443 -0.0320 -0.0037 -0.1997
14342W        W30816   0.752   5.199   5.457  0.0843  0.1210  0.1370
14343W        W30817   4.580   2.675   0.681 -0.0462 -0.0176 -0.0779
14344W        W30818  16.806   6.935  12.990  0.1761 -0.0279 -0.0066
14345W        W30819   6.521   0.762  15.528  0.0889  0.0074  0.1429
14346W        W30820  15.086  17.580   2.099 -0.1751 -0.1701  0.0333
14347W        W30821   0.258   2.875  15.245  0.0087  0.0350  0.0003
14348W        W30822   6.876   4.179  15.168 -0.0944  0.2045 -0.3590
14349W        W30823   7.220   4.835  15.230 -0.3465 -0.0883  0.1648
14350W        W30824   8.376  13.039   4.072  0.0772 -0.2397 -0.1361
14351W        W30825  12.788  11.658   2.275 -0.1041 -0.2132  0.0780
14352W        W30826   4.912   8.243  15.529  0.2669 -0.0505  0.1164
14353W        W30827  12.106   9.125   6.154  0.3881  0.0536  0.3305
14354W        W30828  12.184   8.636   4.187 -0.0496  0.1156 -0.0524
14355W        W30829  11.351  10.750  12.551  0.4843 -0.1119 -0.4347
14356W        W30830  12.449   2.266  15.748 -0.0341  0.0662 -0.0914
14357W        W30831   3.570   9.997   1.297  0.0213 -0.4133  0.1061
14358W        W30832   6.514   3.130  10.595  0.2242  0.3612 -0.2149
14359W        W30833   9.986   6.049   4.292  0.0027  0.0426  0.1105
14360W        W30834   0.820  17.089   3.136  0.2292 -0.0194 -0.0265
14361W        W30835   0.667  10.673   0.587  0.1722  0.2006 -0.3546
14362W        W30836  12.524  13.974  15.565 -0.3152  0.0202  0.0471
14363W        W30837  17.490   7.749  14.935 -0.2568  0.1396 -0.0562
14364W        W30838  12.231   1.362  15.463 -0.2449 -0.0810 -0.0413
14365W        W30839   2.121  10.007  13.611 -0.0090  0.2202 -0.0016
14366W        W30840   3.861   0.259   5.209 -0.0612 -0.0956 -0.1037
14367W        W30841   4.378   2.601  13.460 -0.1563  0.3151 -0.0408
14368W        W30842   5.912  14.453  16.559  0.1553  0.1217  0.2632
14369W        W30843   1.353   4.641  12.179 -0.0461 -0.1333  0.0900
14370W        W30844   5.830   2.677  16.430 -0.0030 -0.1774 -0.1157
14371W        W30845  12.209  17.694  16.260  0.0267  0.0083 -0.0302
14372W        W30846  13.024   5.367   2.414  0.0477  0.0461 -0.1446
14373W        W30847   8.266   2.491  12.471  0.1801 -0.1866  0.0865
14374W        W30848  10.488   2.933   5.445 -0.0995  0.3044  0.0568
14375W        W30849   1.581   9.772  13.603 -0.0891 -0.0523  0.0739
14376W        W30850   6.742  12.118  16.021 -0.2421  0.2011 -0.0279
14377W        W30851  16.347  13.949  15.633  0.1142 -0.1848 -0.1916
14378W        W30852   2.996  13.671  12.230  0.1898  0.1140 -0.0672
14379W        W30853  15.299  16.692   3.835  0.0302  0.0435  0.0245
14380W        W30854   6.117  13.516  12.200  0.2645 -0.1825 -0.0419
14381W        W30855  14.322   4.553   5.564 -0.1072 -0.2948 -0.0262
14382W        W30856   7.558  14.666  12.288 -0.2876  0.0083  0.0579
14383W        W30857   9.185   6.747  14.242 -0.3071 -0.0192 -0.1398
14384W        W30858  14.773  12.561   1.854  0.2942  0.0641  0.1142
14385W        W30859  14.836   1.793  13.436 -0.0842 -0.0467 -0.0848
14386W        W30860   9.519   5.668  12.226  0.4779  0.0835  0.0876
14387W        W30861  10.712  11.634  15.687  0.1317  0.0426  0.1881
14388W        W30862   8.182   5.582   5.735  0.1787  0.2576  0.1628
14389W        W30863   5.326   9.739   6.280  0.0410  0.2625  0.2594
14390W        W30864  13.449   6.467  14.125  0.1343  0.1171  0.1562
14391W        W30865   6.171   0.733   5.352 -0.1626  0.1318  0.2595
14392W        W30866  11.477   0.231  16.059  0.1324 -0.0614 -0.1405
14393W        W30867   6.876  17.342  10.459  0.0232  0.3365 -0.0929
14394W        W30868   5.720   5.661  15.773 -0.1080 -0.2237  0.1274
14395W        W30869   2.230   9.074   5.266  0.1554  0.0712  0.2380
14396W        W30870   3.298   3.688  15.542  0.0366  0.0354  0.2154
14397W        W30871  10.639   2.067   2.787 -0.2056  0.1496  0.0896
14398W        W30872  14.211  16.160   0.439 -0.0610  0.0957  0.4263
14399W        W30873  14.717  11.267  16.149 -0.1296 -0.0168  0.3153
14400W        W30874   7.993  12.237  12.747 -0.1020  0.2162 -0.0846
14401W        W30875   7.594   6.926   5.259 -0.0014 -0.3852 -0.3373
14402W        W30876   7.297   4.368   3.929  0.0203 -0.0192  0.2089
14403W        W30877  11.804   7.869  14.022  0.2275 -0.1490 -0.2195
14404W        W30878   6.456  10.354  12.823  0.0383  0.0889  0.0207
14405W        W30879   8.893  15.426   1.976  0.0804  0.0546 -0.0713
14406W        W30880  17.607   2.443   0.204  0.1828  0.0666 -0.0535
14407W        W30881  13.347  14.241  13.049 -0.2698  0.1815 -0.0900
14408W        W30882   1.243   1.627   4.263  0.0823  0.0556  0.1969
14409W        W30883   4.379   8.428  11.418  0.0480 -0.0086  0.2611
14410W        W30884  16.737   1.064   0.512  0.1499  0.1529  0.0871
14411W        W30885   5.579  13.148   2.866  0.2718  0.4624  0.1758
14412W        W30886   2.955  17.455   0.990  0.2068 -0.0298 -0.2779
14413W        W30887   7.520  15.039   2.352  0.3098  0.2755  0.1044
14414W        W30888   1.477  16.046   5.670 -0.1373  0.0528  0.1168
14415W        W30889   5.508   7.598   1.996 -0.0921  0.1483 -0.2301
14416W        W30890  11.472   7.034  16.835 -0.0865 -0.1902 -0.0818
14417W        W30891   6.461  14.030  14.868 -0.0003  0.3020  0.2285
14418W        W30892   2.979   8.971   4.447  0.0464  0.0746  0.0372
14419W        W30893  14.912   5.376  13.940 -0.2191 -0.2132  0.3170
14420W        W30894   0.740   1.622  15.110 -0.0443 -0.1142 -0.0343
14421W        W30895  14.464   5.977  12.260  0.0676 -0.0281 -0.0197
14422W        W30896  13.967   7.713   2.156  0.0207  0.1131 -0.1252
14423W        W30897   7.595  14.127   4.944 -0.2031  0.0517 -0.1264
14424W        W30898  13.653  10.192   1.909 -0.1206  0.1779 -0.1040
14425W        W30899   6.887  10.666  12.705  0.0113 -0.1394 -0.0833
14426W        W30900   2.407  11.623  12.765  0.0190 -0.0367 -0.0095
14427W        W30901  15.152  12.609   2.743 -0.0709  0.1216 -0.2253
14428W        W30902   1.207   5.515   3.637  0.0713  0.0925 -0.1906
14429W        W30903   5.412   7.685   4.747  0.3022 -0.1743 -0.0798
14430W        W30904   3.100   0.458  14.606  0.1784 -0.0841 -0.0262
14431W        W30905   0.910  10.369  12.347 -0.4312 -0.1224  0.0952
14432W        W30906  10.824   7.704  16.181 -0.1957 -0.0952 -0.2870
14433W        W30907  16.698   0.412  12.693  0.1476 -0.0604 -0.0339
14434W        W30908   8.256   9.036  12.904 -0.0537 -0.0594  0.3378
14435W        W30909   3.925   7.345  12.360  0.0380 -0.1397  0.1948
14436W        W30910   1.507  10.998   5.387  0.0337  0.0631 -0.0273
14437W        W30911  17.815  11.268  15.571 -0.2227 -0.2209 -0.2374
14438W        W30912   3.767   8.087   0.154  0.0142 -0.2733  0.0522
14439W        W30913  11.268   3.847   4.221 -0.0750  0.2975  0.1628
14440W        W30914   0.856   1.902   2.255 -0.3178  0.1398 -0.4298
14441W        W30915  13.076  12.492   1.243  0.2535 -0.0891  0.6199
14442W        W30916   2.080  12.431   3.261  0.0521  0.0075  0.1989
14443W        W30917  17.433   4.078  14.875 -0.1256 -0.2595 -0.1152
14444W        W30918   5.711   6.910  13.056  0.0158  0.2173 -0.1647
14445W        W30919   0.509   0.430  13.927 -0.2569  0.2121  0.1608
14446W        W30920  15.301   4.563   5.992  0.1352  0.0089 -0.1503
14447W        W30921  16.982   6.664   3.174  0.1077 -0.0247  0.1809
14448W        W30922  17.386  11.376   3.649  0.1648  0.4301 -0.0031
14449W        W30923  15.482  14.566  13.906 -0.1935 -0.0369 -0.4025
14450W        W30924   8.059   5.123   1.201  0.1023  0.1110 -0.2189
14451W        W30925   0.657  15.017   2.124  0.1641 -0.3154  0.0111
14452W        W30926   2.678   7.293   3.466  0.0409  0.0098 -0.1218
14453W        W30927  12.334   7.176  13.669 -0.2332 -0.1525  0.1744
14454W        W30928   4.573   8.143  15.977 -0.1488  0.0403  0.1336
14455W        W30929   2.162   7.006  13.354  0.0317  0.1920 -0.3348
14456W        W30930   1.708   4.918  15.375  0.1017  0.1982 -0.1617
14457W        W30931   3.832  10.773   2.056  0.2603  0.0325 -0.1290
14458W        W30932   8.357   1.005  11.849 -0.0790  0.3521 -0.0160
14459W        W30933   6.377   9.885  16.653  0.0288  0.2636 -0.1155
14460W        W30934  12.945   6.794   0.263 -0.3844  0.2472 -0.1545
14461W        W30935   0.057   0.364   0.796  0.0561 -0.0321 -0.0924
14462W        W30936   2.992  11.238   2.876  0.1038  0.0144  0.3254
14463W        W30937   3.397  12.854   0.719  0.0424 -0.2121  0.0559
14464W        W30938   1.384  13.425   0.200 -0.1458  0.0767 -0.1033
14465W        W30939  14.062   3.303   0.729 -0.0608 -0.3363  0.0873
14466W        W30940   9.993   4.835  16.834  0.0686  0.0677 -0.0499
14467W        W30941  14.363  13.897  14.912 -0.0442 -0.1055 -0.1429
14468W        W30942   7.284   6.554   0.905  0.0532 -0.1805  0.0090
14469W        W30943  11.897   9.369  13.075  0.2193 -0.0480  0.0101
14470W        W30944  11.426   2.261  12.160  0.0697  0.2229  0.0408
14471W        W30945   3.680   5.830  13.273  0.1062  0.1011  0.1391
14472W        W30946   6.764  14.943   4.509 -0.1225  0.3353  0.2623
14473W        W30947   5.653  17.214   2.311  0.0996 -0.3387 -0.0820
14474W        W30948   7.238  10.036  16.193  0.0444 -0.3449  0.0926
14475W        W30949   3.233  12.402  11.994 -0.0435 -0.0710 -0.0047
14476W        W30950  12.135   7.023   1.041 -0.1185 -0.0670  0.0838
14477W        W30951  10.260   8.066  14.136  0.2106  0.0788 -0.1646
14478W        W30952   5.164  11.291  13.867  0.2408  0.1888 -0.0859
14479W        W30953  12.466   7.080   5.018 -0.3717 -0.1326 -0.0493
14480W        W30954   3.855  11.785  14.069 -0.0421 -0.2571  0.3018
14481W        W30955   2.801  11.690   3.089 -0.0970 -0.0281 -0.0986
14482W        W30956   9.586  12.759   0.887 -0.0730  0.0828 -0.0715
14483W        W30957  16.418   1.287   5.372 -0.0881 -0.1304  0.0100
14484W        W30958  12.040  16.200  11.951  0.0053  0.1690  0.4237
14485W        W30959   9.390   3.215   2.207 -0.0733  0.1606 -0.0275
14486W        W30960   8.766  15.888   1.696  0.2320  0.0657 -0.2041
14487W        W30961   0.443   2.829  11.698  0.2964  0.4044  0.0652
14488W        W30962   2.494   3.380   3.232  0.0203 -0.1445  0.1262
14489W        W30963   0.948   0.613   4.668 -0.2822  0.1408 -0.1408
14490W        W30964   7.163   8.677  11.847 -0.0046  0.1814 -0.0079
14491W        W30965   7.086   3.403   0.894 -0.1383 -0.0291 -0.1801
14492W        W30966   8.334   0.897  15.916 -0.1227 -0.4333 -0.1043
14493W        W30967  17.159  11.073  12.796  0.0692  0.0673  0.0015
14494W        W30968  15.742   1.002  15.786 -0.1211  0.0199  0.0290
14495W        W30969   8.699   1.083   2.889 -0.2854 -0.1883 -0.1446
14496W        W30970  17.242   8.052  12.877 -0.3472  0.3197 -0.0681
14497W        W30971  14.140   9.205  16.763 -0.2080 -0.0565  0.1355
14498W        W30972  10.131   3.924   4.295 -0.2672 -0.2781 -0.0865
14499W        W30973  11.244   5.254  12.719 -0.1783  0.1651  0.0838
14500W        W30974   1.733  13.779  12.704  0.0177  0.0097 -0.1084
14501W        W30975   1.653  13.034  13.343  0.2780 -0.2409 -0.0068
14502W        W30976  14.992   6.145   5.581 -0.0318 -0.0722 -0.1272
14503W        W30977  16.265   9.878   1.142 -0.5282  0.0254  0.1035
14504W        W30978  11.403   0.067  13.452  0.3289 -0.1896 -0.0338
14505W        W30979  15.401   0.968  16.216 -0.0412 -0.0644 -0.0388
14506W        W30980   8.363  10.068   5.516  0.1815  0.1816 -0.1248
14507W        W30981   8.247  11.719  16.709  0.0642 -0.2362  0.0485
14508W        W30982  13.960  10.130   3.356 -0.0283  0.3753  0.3210
14509W        W30983   5.451   7.652   0.162 -0.0136 -0.2512 -0.1057
14510W        W30984   5.557  16.287   3.911  0.1332 -0.2203  0.1490
14511W        W30985   4.787  10.638   1.111 -0.2390 -0.3700 -0.4747
14512W        W30986   2.046   4.654   1.530  0.0255  0.0948  0.1216
14513W        W30987  16.946   8.164   1.430 -0.0140  0.1039 -0.0956
14514W        W30988  15.256  17.347   1.255 -0.0786  0.1425 -0.0118
14515W        W30989   9.295   9.200  13.170  0.1826 -0.0365 -0.1177
14516W        W30990  12.850   6.233  12.918  0.0145 -0.1967  0.2416
14517W        W30991   1.417   4.895  12.622  0.0388  0.0313  0.1556
14518W        W30992   4.774  10.392   0.700 -0.1128 -0.1598  0.1188
14519W        W30993  16.530  12.215  16.189  0.1265  0.0476  0.1828
14520W        W30994  16.633  16.037   5.894 -0.0965  0.1117 -0.2532
14521W        W30995   7.793  13.110   3.837 -0.2156  0.0930 -0.2455
14522W        W30996   9.402  15.530   1.476 -0.1909  0.0654 -0.0398
14523W        W30997   1.000   8.537  13.668 -0.2461  0.0983 -0.0459
14524W        W30998   3.938  11.065  16.794  0.2243  0.0382 -0.1778
14525W        W30999   3.510  11.883   2.568  0.1143  0.0392  0.1322
14526W        W31000   4.977   8.693   3.816  0.0252  0.3204 -0.1110
14527W        W31001  16.376  15.127   1.816 -0.1816  0.1049 -0.0290
14528W        W31002   1.487   8.211  15.199  0.1818 -0.2272 -0.1889
14529W        W31003   9.246   9.914  14.362 -0.0402  0.2437 -0.3711
14530W        W31004  16.551  14.496   2.087 -0.1934  0.2016  0.2216
14531W        W31005   5.919  10.795  11.693 -0.1408  0.1602 -0.0447
14532W        W31006  11.941   0.517   4.138  0.2063 -0.0479 -0.0980
14533W        W31007   0.514  13.757   4.961  0.1720 -0.1296  0.0489
14534W        W31008   6.091   5.750   1.003 -0.1235  0.2298  0.1633
14535W        W31009  16.716   5.207  13.182  0.2863 -0.2517 -0.1603
14536W        W31010   8.353   4.459   2.776  0.2169 -0.0997  0.0479
14537W        W31011   2.874  12.394  16.375  0.2058 -0.0087  0.1038
14538W        W31012  14.960  15.842  16.351 -0.1479 -0.0106  0.0358
14539W        W31013  14.599  15.990  15.863 -0.1847 -0.1302  0.3941
14540W        W31014   6.161  11.021  13.822  0.0116  0.2001  0.1765
14541W        W31015   3.101  17.181  15.223 -0.0868 -0.0131 -0.1455
14542W        W31016   8.242   7.216   3.432 -0.1265 -0.1830 -0.1713
14543W        W31017  16.140   5.178  12.461  0.1359  0.0170 -0.1921
14544W        W31018   1.186  12.775   4.074 -0.2842 -0.2326  0.1591
14545W        W31019  15.575  14.791   0.511  0.1637 -0.1196  0.2300
14546W        W31020   3.871  17.799   4.062 -0.1032  0.0079  0.1353
14547W        W31021  10.710   8.298  12.751 -0.1828  0.1869 -0.1499
14548W        W31022   0.756   5.908   1.215  0.1262 -0.2874  0.4895
14549W        W31023   1.697  12.814   3.904  0.2206  0.0765 -0.0592
14550W        W31024   0.725   4.760   2.812  0.2159  0.3483  0.1681
14551W        W31025  10.004  12.149   4.319  0.1606 -0.0594  0.1203
14552W        W31026   8.967  17.087   3.444 -0.1322  0.1527  0.0825
14553W        W31027  17.368   4.590   2.284  0.3060 -0.0878 -0.1517
14554W        W31028   8.525   2.271   1.266  0.1915 -0.1621 -0.1945
14555W        W31029   3.577  11.789   3.830 -0.0566 -0.0618  0.0116
14556W        W31030  12.659   1.909   5.289 -0.0994 -0.2404  0.0550
14557W        W31031   7.002  10.179  11.792  0.1967 -0.0358 -0.0317
14558W        W31032   9.219   8.781   3.367 -0.1919  0.1347  0.2292
14559W        W31033  13.391  14.177  16.049 -0.3083 -0.0314  0.3041
14560W        W31034   1.647   0.091   3.939 -0.1424  0.1070  0.0803
14561W        W31035  11.473   7.240  15.127 -0.0340  0.0414  0.1986
14562W        W31036   9.392   4.539   1.511  0.2613  0.0647 -0.2741
14563W        W31037  15.885  14.049   0.485  0.0198 -0.1158  0.0659
14564W        W31038   2.985   7.395   3.841  0.0075  0.0067 -0.2207
14565W        W31039   6.783   6.509   1.948 -0.0639  0.0426 -0.0570
14566W        W31040   2.359   3.897   2.990  0.3156 -0.0586  0.1289
14567W        W31041   0.508   5.660   3.288 -0.3977 -0.2072 -0.0247
14568W        W31042   7.712  13.529  12.955  0.0623 -0.0822 -0.2064
14569W        W31043   6.345   3.165  15.623  0.2975 -0.0252  0.0873
14570W        W31044   3.464   3.044  13.473 -0.3977  0.0920  0.0692
14571W        W31045  16.044   1.646   2.705  0.0114 -0.2783  0.0316
14572W        W31046  13.320  13.349   1.174 -0.3390 -0.0828  0.2388
14573W        W31047  13.191   8.251   4.152 -0.1568  0.1451 -0.2895
14574W        W31048  16.059   7.253  14.059  0.2516 -0.2083  0.0502
14575W        W31049   4.075  16.621   0.795  0.1330 -0.1346 -0.2646
14576W        W31050   9.183  16.311  16.315  0.2084 -0.1524 -0.1282
14577W        W31051   7.431  10.097   4.627  0.2096  0.0649 -0.0833
14578W        W31052  17.599  15.148  15.660 -0.1709  0.1505 -0.3242
14579W        W31053   7.954  11.933   5.517 -0.1827  0.0720  0.3078
14580W        W31054  10.555   1.318  16.829 -0.1718  0.1517 -0.0350
14581W        W31055   3.806   8.931  13.291 -0.1090  0.2569 -0.2212
14582W        W31056  16.765   1.850   3.627 -0.0003 -0.3120 -0.2606
14583W        W31057  16.085   1.224  14.553  0.1541  0.1919  0.1040
14584W        W31058  17.082  16.109   1.309 -0.1580  0.0754 -0.0867
14585W        W31059   2.101  16.827   1.908  0.2319 -0.2270 -0.1265
14586W        W31060   4.854  16.319  13.172  0.0419  0.1038  0.1908
14587W        W31061   3.888  15.433  15.423  0.0049 -0.1300  0.1613
14588W        W31062   7.603  13.703   5.270 -0.0245 -0.0469  0.0705
14589W        W31063  15.369  12.745  13.173  0.0075  0.0003  0.0532
14590W        W31064   8.399  11.978   1.760 -0.0801 -0.1495  0.1632
14591W        W31065  17.624  14.728   6.385 -0.0642 -0.0734  0.1662
14592W        W31066   2.098  11.106   3.239  0.0705  0.2220 -0.2061
14593W        W31067  13.625  15.037  15.715  0.2174  0.1447  0.0408
14594W        W31068   7.724   3.767   4.667 -0.3999 -0.0645 -0.1527
14595W        W31069  16.260   1.373   2.217  0.0805  0.0243  0.2979
14596W        W31070  11.357  12.572   3.226  0.4200  0.3938  0.0086
14597W        W31071  16.913   0.737  16.907  0.0457  0.0196  0.2829
14598W        W31072   9.258   3.599  16.461 -0.1897 -0.3771  0.2205
14599W        W31073   4.753   2.941   4.650  0.1052  0.0689  0.0850
14600W        W31074  14.418   3.134   4.441 -0.0356  0.1167  0.1646
14601W        W31075   9.442   2.611   4.646 -0.0621  0.0085 -0.0266
14602W        W31076  10.609  16.645  11.671  0.0597  0.1769 -0.0964
14603W        W31077   2.693  11.569  16.446 -0.0186  0.0457 -0.2565
14604W        W31078   8.855   7.340   3.463 -0.2094  0.1518  0.0177
14605W        W31079   6.236  14.065   4.346  0.2205 -0.4626 -0.2432
14606W        W31080   5.915   8.175  12.473 -0.2469  0.2860  0.2900
14607W        W31081   4.012  15.376   3.825  0.2768 -0.1245  0.1494
14608W        W31082   2.582   0.367  15.617 -0.0018  0.2614 -0.3627
14609W        W31083  12.594  15.808   2.840 -0.0662 -0.2197  0.1644
14610W        W31084   5.798  10.280  13.979 -0.0115 -0.2841  0.1441
14611W        W31085   6.614   0.916  11.590 -0.0527 -0.1789 -0.0146
14612W        W31086   1.235  13.242   3.864  0.1099  0.1501 -0.0472
14613W        W31087  17.163  13.557  15.011  0.1517 -0.4826 -0.2007
14614W        W31088   9.963   9.773   2.016 -0.0369 -0.1046 -0.2546
14615W        W31089   0.811  12.868   4.515 -0.1232 -0.2821 -0.1621
14616W        W31090   6.642   5.364   2.579 -0.0316  0.2136 -0.2056
14617W        W31091  11.364  17.067  15.151  0.0159  0.0214 -0.2591
14618W        W31092  14.431  10.309  16.242 -0.1115  0.0471 -0.0578
14619W        W31093   6.999   8.895  15.347  0.2249 -0.2452 -0.1073
14620W        W31094  10.698   8.420   0.400 -0.2412 -0.2513 -0.2794
14621W        W31095  16.752  15.185  14.532 -0.1021 -0.1876  0.2943
14622W        W31096   0.681  14.264   4.943  0.0161  0.0311 -0.0527
14623W        W31097  14.066  11.683   3.978 -0.2498  0.2907 -0.1220
14624W        W31098   3.357   2.668   1.943  0.0133 -0.2346  0.4098
14625W        W31099   8.260  17.658  12.635  0.0117 -0.0623 -0.1480
14626W        W31100  10.976   1.293   3.031 -0.4260 -0.0472 -0.1355
14627W        W31101   5.177   7.443  15.418  0.1699 -0.3066  0.0670
14628W        W31102   3.369  17.659   1.137 -0.0780  0.1545 -0.1364
14629W        W31103  12.653   4.721  15.270 -0.0357  0.0703  0.0256
14630W        W31104  16.473   3.231   4.903  0.0308  0.0200  0.0841
14631W        W31105  14.475  11.465  13.435  0.0642 -0.1312 -0.0519
14632W        W31106   4.123   1.107   2.423  0.0089  0.2236 -0.0846
14633W        W31107  10.207  11.415   4.122  0.0068  0.1245 -0.1580
14634W        W31108   3.665   7.912   4.991 -0.2957  0.2314 -0.1422
14635W        W31109  13.927  16.245   6.345 -0.1067  0.1171  0.0367
14636W        W31110   2.368   8.577  16.206 -0.0297 -0.2234 -0.1330
14637W        W31111  11.000   2.545   3.427  0.2769  0.2632  0.5278
14638W        W31112  15.440   2.906  15.930  0.0283  0.0114  0.1102
14639W        W31113   1.354  10.733   2.599  0.0252  0.1545  0.2342
14640W        W31114  11.696   9.701  13.930  0.0992  0.0070 -0.2511
14641W        W31115   1.207   9.033   3.939 -0.2323 -0.0641  0.0196
14642W        W31116   1.636   4.341   1.849 -0.0059  0.0256 -0.0639
14643W        W31117  13.907   7.680   0.042  0.1306 -0.0836 -0.0172
14644W        W31118   8.313   1.170   0.872 -0.2394  0.0449  0.2398
14645W        W31119  13.231  13.139  11.880 -0.1367 -0.1052  0.0617
14646W        W31120  11.858  13.317  13.798  0.2281 -0.0405 -0.0824
14647W        W31121   8.749   2.717   2.230  0.0040 -0.1172 -0.1954
14648W        W31122  11.705  12.771  12.723 -0.3272  0.0244  0.1614
14649W        W31123   4.226   3.641  16.439  0.2153  0.2860 -0.2333
14650W        W31124  16.415  17.250  15.220  0.1849  0.0709 -0.0002
14651W        W31125  12.420   3.796   2.087 -0.2892  0.1524  0.3997
14652W        W31126  15.230  11.551   0.340 -0.1302 -0.1946 -0.0599
14653W        W31127   5.250   7.802   3.780  0.1930  0.3768 -0.1110
14654W        W31128  13.527   9.371   4.014  0.0852 -0.1003 -0.1221
14655W        W31129  13.010   5.707  15.825  0.0005  0.0343 -0.1198
14656W        W31130   1.308  12.067  14.264 -0.0570  0.2785 -0.0005
14657W        W31131   5.127  17.813  15.457  0.2679  0.1743 -0.4858
14658W        W31132   2.534  11.289   4.894 -0.1601  0.2484 -0.4308
14659W        W31133   3.869  12.191   2.403  0.1154 -0.0230 -0.2038
14660W        W31134   1.096   2.329  12.146 -0.2775 -0.1213  0.0054
14661W        W31135   4.241   3.617  15.419  0.0989  0.0257 -0.0715
14662W        W31136  12.622   9.331   2.163 -0.2293 -0.2864 -0.0212
14663W        W31137  16.842  16.704  15.934  0.2344  0.0571 -0.0695
14664W        W31138   3.237   4.617  11.985  0.0829  0.1510 -0.2015
14665W        W31139  16.341  16.517  15.971  0.3050 -0.2795 -0.3351
14666W        W31140  17.293   8.923   1.128 -0.1964 -0.0468 -0.0267
14667W        W31141  14.171   8.595   5.683 -0.0692  0.3720 -0.0833
14668W        W31142   9.492   6.875   1.821  0.2285  0.4650  0.0794
14669W        W31143   4.962  13.148   2.056 -0.1075  0.2151  0.3951
14670W        W31144   2.855   7.280  14.018 -0.0128  0.2982 -0.3540
14671W        W31145  13.450   6.708  14.681 -0.1413 -0.1254  0.0816
14672W        W31146   0.868  13.588   0.132  0.1214  0.2367 -0.1098
14673W        W31147  13.422   8.354   0.963  0.0086 -0.1696 -0.1639
14674W        W31148  13.935   0.281  15.568 -0.2382 -0.0665 -0.0251
14675W        W31149  13.193   4.355   2.264 -0.0539 -0.0506 -0.1973
14676W        W31150  11.027   4.920   3.033  0.1035  0.0860  0.1110
14677W        W31151  12.852  17.781  13.676 -0.4572  0.3393  0.1484
14678W        W31152  14.124   3.530   2.657  0.2512 -0.1418  0.2865
14679W        W31153   5.336   0.260   6.492  0.2418  0.3814  0.0654
14680W        W31154   8.618   0.427  16.119  0.0483  0.0653  0.4212
14681W        W31155   7.643  10.732  16.645  0.2546 -0.3088  0.1312
14682W        W31156   9.618  17.551  12.210  0.1591 -0.3010 -0.3899
14683W        W31157  10.353   9.512   3.535  0.2722 -0.0449 -0.2382
14684W        W31158   3.578   8.325  13.062 -0.0792  0.0129  0.2440
14685W        W31159   7.907  17.278   1.304  0.4571 -0.2323  0.3083
14686W        W31160  10.647   5.864  16.343  0.0060 -0.3356  0.0468
14687W        W31161   1.336   0.093   1.601 -0.0604 -0.2897 -0.3188
14688W        W31162  10.816  16.198  16.128 -0.2042 -0.0397  0.0820
14689W        W31163  11.819   6.883   3.405  0.0151 -0.1092 -0.1248
14690W        W31164   6.249  17.273  15.696  0.0856  0.1960 -0.0106
14691W        W31165  14.825   7.878   0.363 -0.0926  0.0167 -0.2642
14692W        W31166  13.204   9.867   5.093 -0.0297  0.4592  0.0558
14693W        W31167   1.925   2.696  15.494  0.0446 -0.3117  0.1365
14694W        W31168   1.575   7.404   3.183 -0.0734  0.0424  0.1448
14695W        W31169  14.640   5.019   4.590  0.3255  0.3630  0.2244
14696W        W31170   2.784  15.047  15.695 -0.2270  0.6021 -0.1601
14697W        W31171   1.158  12.345   1.835  0.0823 -0.1499  0.2458
14698W        W31172  17.092  16.505  14.904  0.0911  0.1242 -0.4672
14699W        W31173  10.515  16.565  11.018  0.1179  0.1097  0.0460
14700W        W31174  16.151   5.088   2.463 -0.0208 -0.1318  0.0712
14701W        W31175   4.934   0.130   0.492  0.0749 -0.1167 -0.0349
14702W        W31176   9.187  15.077   4.747  0.0284  0.0543 -0.1398
14703W        W31177  15.124  13.257  14.044 -0.0970  0.0243  0.3577
14704W        W31178   3.213  17.755  12.424 -0.0424 -0.0898 -0.0276
14705W        W31179   9.161   4.422  15.592 -0.1925 -0.2162 -0.0109
14706W        W31180  12.360   1.109   2.899 -0.2661 -0.1108 -0.2866
14707W        W31181  12.949  10.584   2.600  0.0312  0.0850  0.2565
14708W        W31182   6.402  13.025  16.703  0.0616  0.2537  0.0099
14709W        W31183   5.744   1.014  13.496  0.1492 -0.4276  0.1494
14710W        W31184   3.364   7.955   4.427  0.0095 -0.0435  0.0994
14711W        W31185   4.064  10.448  14.725  0.0386  0.1036  0.1900
14712W        W31186   4.141   8.881   2.762  0.0908  0.2135 -0.0221
14713W        W31187   5.564  12.235  16.006  0.3402 -0.0514 -0.0209
14714W        W31188   5.628  12.990  15.509 -0.0288  0.0489 -0.3302
14715W        W31189   7.583   9.486   2.986 -0.0901  0.1573  0.2510
14716W        W31190  11.385  14.869  14.975 -0.1660  0.3176 -0.3368
14717W        W31191   0.027   4.525   4.632 -0.1271  0.1972 -0.0793
14718W        W31192  13.943  13.812  15.286 -0.2442 -0.0279 -0.2151
14719W        W31193  11.432   7.319   0.373 -0.0480  0.0531  0.0261
14720W        W31194   9.310   8.040   0.903 -0.0405 -0.1161 -0.2809
14721W        W31195  16.407   5.479  16.216  0.3447 -0.3398  0.2820
14722W        W31196   8.816   1.318   3.984 -0.0155 -0.2361  0.1000
14723W        W31197   8.406  15.567   3.886  0.0964 -0.2806  0.2582
14724W        W31198  15.465   7.614  12.329 -0.0848 -0.2938 -0.3672
14725W        W31199   0.427   6.397  15.495  0.3222 -0.1109 -0.0237
14726W        W31200   6.062   2.221  12.806  0.2983  0.2921 -0.3551
14727W        W31201   1.694   1.181  12.548  0.1651 -0.0943  0.2007
14728W        W31202   8.324   2.147  11.656 -0.1479 -0.0550 -0.0905
14729W        W31203   9.760  12.305  13.148 -0.2036  0.1078 -0.0397
14730W        W31204  11.793  17.350   1.633 -0.0724  0.0035 -0.0965
14731W        W31205   8.006   9.032  13.349 -0.1273  0.3152  0.0820
14732W        W31206  16.845   4.422   4.751  0.1091  0.0033  0.1606
14733W        W31207   6.118   6.383   1.357 -0.1622  0.1559  0.1773
14734W        W31208   2.687  16.982  13.292  0.2181  0.1139  0.0233
14735W        W31209   0.751   5.947  16.161  0.1617  0.3276  0.2318
14736W        W31210   9.794  10.759   3.330 -0.0169 -0.1106 -0.1150
14737W        W31211   6.567   7.940   0.861 -0.2316 -0.1410 -0.1420
14738W        W31212  14.976  14.160   0.624  0.0560  0.4007 -0.3316
14739W        W31213  12.684  13.013  12.805 -0.1477  0.4302  0.1423
14740W        W31214   6.161   8.636   0.586  0.0922  0.2758 -0.1849
14741W        W31215   7.817  16.297   1.951  0.1094 -0.1295 -0.2411
14742W        W31216  12.130   4.943   5.198 -0.1633 -0.0263 -0.0465
14743W        W31217   3.136  14.112   4.036 -0.1991  0.1332 -0.2087
14744W        W31218   7.736   2.576  11.509  0.2292  0.0667  0.2979
14745W        W31219  11.972  12.240  15.311 -0.0443 -0.0697  0.0111
14746W        W31220   8.167   3.906  15.769 -0.0509  0.2999 -0.2440
14747W        W31221   4.573  14.658  15.767  0.3957  0.0158  0.0533
14748W        W31222  16.165   3.588   5.969  0.1855  0.1032 -0.2790
14749W        W31223  15.993  13.701   1.081  0.1799 -0.2620 -0.0464
14750W        W31224  16.962   4.363  13.521 -0.0162 -0.0435  0.0046
14751W        W31225   1.451   8.193   2.560 -0.1161 -0.0297  0.0257
14752W        W31226  16.476  12.774  16.579  0.1997 -0.1885  0.1189
14753W        W31227  17.620  11.278  12.117  0.1105 -0.0366  0.0276
14754W        W31228   4.228   6.112  16.160 -0.0332 -0.0375  0.0099
14755W        W31229  15.562   5.010  12.682 -0.0198  0.1019  0.0951
14756W        W31230   4.425   4.577  11.868  0.0509  0.1606  0.1735
14757W        W31231   9.119  14.014   4.914  0.0626 -0.0359 -0.3713
14758W        W31232  16.490   2.645   3.115 -0.2586 -0.1048  0.2291
14759W        W31233  11.126   2.428   5.049 -0.1995  0.1551  0.0707
14760W        W31234   6.344  12.742  14.821 -0.0506  0.1446  0.0309
14761W        W31235   7.050   2.979   2.395 -0.1705  0.4373  0.0354
14762W        W31236  13.091   3.818   4.156  0.0308 -0.1136  0.0159
14763W        W31237  16.769  10.642  16.169 -0.0053  0.3004  0.1256
14764W        W31238   7.725  15.520   5.046  0.2340 -0.0129 -0.0854
14765W        W31239  10.617   9.704  16.295 -0.0702 -0.2620 -0.0131
14766W        W31240   4.878   0.854  13.961  0.0354 -0.0815  0.1844
14767W        W31241   6.439   7.743   1.968 -0.0700  0.3827  0.0720
14768W        W31242   9.095   3.585  13.875 -0.3130 -0.0818 -0.1740
14769W        W31243   0.186   9.165   1.517  0.2482 -0.2812 -0.1482
14770W        W31244  17.036  14.359  14.451  0.1598 -0.2206  0.0620
14771W        W31245   9.019   8.003  16.612 -0.1775  0.0711 -0.1166
14772W        W31246  15.279   2.023  13.473 -0.4976  0.1040 -0.1130
14773W        W31247   0.730  14.797  14.276 -0.0124 -0.0584 -0.0607
14774W        W31248   5.270  16.092  13.428  0.0628 -0.1004  0.1971
14775W        W31249  10.416  15.235  14.915  0.1188 -0.1991  0.0822
14776W        W31250   2.702  15.016   0.634 -0.0670 -0.0975 -0.0511
14777W        W31251   9.575   1.861  14.718  0.0952 -0.0404  0.1779
14778W        W31252   3.415  12.298  16.872  0.1307  0.2263  0.1246
14779W        W31253   9.200  10.118  11.493 -0.0455 -0.1128 -0.0984
14780W        W31254  14.704  11.634   1.051 -0.0146  0.0141  0.3253
14781W        W31255   7.543  12.466   1.670 -0.0010 -0.0455 -0.1279
14782W        W31256   2.349  13.327   2.341 -0.0657  0.1260 -0.0364
14783W        W31257   7.568   1.283  16.112  0.1701  0.1585  0.3691
14784W        W31258  17.704  16.224   4.799  0.1362 -0.1998 -0.1185
14785W        W31259  11.986  14.689   3.021 -0.0533  0.0850 -0.1749
14786W        W31260  11.634   3.811   1.687  0.0423 -0.1792  0.0238
14787W        W31261   2.083  13.049   0.397  0.0034 -0.1490 -0.3119
14788W        W31262  12.186   8.109  12.573 -0.2130 -0.0928 -0.0514
14789W        W31263  17.473   8.368   5.116  0.1122  0.2642  0.0787
14790W        W31264   6.122   1.179  11.686  0.0297 -0.0044 -0.3767
14791W        W31265  12.247   7.879  11.984 -0.1996  0.1463  0.1443
14792W        W31266   7.006   8.608   2.051  0.0307 -0.0505 -0.3146
14793W        W31267  13.234  14.618  15.925 -0.1699  0.2040 -0.0442
14794W        W31268   9.872  11.896   0.415  0.2617 -0.1767  0.0190
14795W        W31269  14.946   1.294   0.876 -0.0463  0.0378  0.2225
14796W        W31270   9.782   9.952   1.397 -0.0507  0.1105 -0.0440
14797W        W31271  12.755   3.463   2.831 -0.2080 -0.5746 -0.2046
14798W        W31272   1.622  13.271  12.912  0.0288  0.0623  0.1016
14799W        W31273   6.383  17.331  12.086  0.1750  0.1967  0.1571
14800W        W31274   0.603  10.891  11.866 -0.0877  0.1928 -0.0448
14801W        W31275   5.194   7.789   4.328  0.0778 -0.0144  0.1758
14802W        W31276  13.296   9.037  13.186  0.2152 -0.0678  0.1046
14803W        W31277   8.644  15.668  12.972  0.1691 -0.0504 -0.2494
14804W        W31278   8.665   8.465  14.812  0.1217  0.1743 -0.0760
14805W        W31279  10.556   4.298  15.382 -0.1897 -0.0484  0.0793
14806W        W31280   4.790   0.318  13.790  0.1005  0.0180 -0.1526
14807W        W31281   2.050  15.968   4.520 -0.0470  0.0337  0.0692
14808W        W31282   7.279   9.214   0.669  0.2098 -0.0977 -0.0751
14809W        W31283   0.545  10.409  12.866 -0.0675  0.1309 -0.0070
14810W        W31284  12.215  15.596   0.360  0.1076  0.1279 -0.0573
14811W        W31285   1.366  12.947  11.854 -0.0370 -0.0250  0.0420
14812W        W31286   8.534   8.502   1.852  0.0207 -0.1132  0.3227
14813W        W31287  15.580   5.173   4.533  0.0838  0.3096 -0.2656
14814W        W31288  16.269  14.696   5.439 -0.4179 -0.0744  0.2038
14815W        W31289  17.715   7.990  15.623 -0.0560  0.0730 -0.2233
14816W        W31290  14.684  12.519   2.370 -0.0335 -0.0773 -0.3628
14817W        W31291  16.385  12.671   0.437 -0.0046 -0.1264  0.0980
14818W        W31292  16.929   4.848  12.490 -0.0169 -0.1524 -0.1907
14819W        W31293   7.782   9.058   0.474  0.0082  0.0826  0.2215
14820W        W31294  13.904  11.507  14.633  0.2979 -0.0199  0.0192
14821W        W31295  17.693   6.697   5.222 -0.1820 -0.0436 -0.0317
14822W        W31296  15.792  17.682   0.403  0.1493 -0.0018 -0.1149
14823W        W31297   6.915   8.861   4.389 -0.1053 -0.0830  0.3626
14824W        W31298   2.409   1.634   1.254  0.1481  0.0839  0.0136
14825W        W31299   8.353  12.475   0.039  0.2523  0.0917  0.1062
14826W        W31300   7.678  13.849  11.703 -0.1747 -0.0071  0.2126
14827W        W31301  13.254   8.570   4.557 -0.0547  0.0388  0.0952
14828W        W31302   9.749  13.373   3.858  0.4680 -0.2170  0.0938
14829W        W31303   3.866  14.366   2.447  0.0023 -0.5518  0.0157
14830W        W31304   4.342   2.845   4.363 -0.0140  0.3113  0.0171
14831W        W31305   4.673  15.100   0.310  0.2636  0.3130  0.1044
14832W        W31306   2.877  14.551   3.802  0.2097  0.0205 -0.2114
14833W        W31307  11.115   6.676  16.893  0.1272  0.1824 -0.1948
14834W        W31308  14.573   5.193   2.957  0.3940  0.0161 -0.0216
14835W        W31309   9.034   2.723  13.034 -0.0917  0.2986 -0.0321
14836W        W31310   9.108   7.345   3.878  0.0086  0.1000  0.1782
14837W        W31311  17.400  15.076  16.843 -0.2160  0.5497  0.1623
14838W        W31312   9.480  15.992  16.019  0.0422 -0.2346 -0.1806
14839W        W31313  10.307  14.529   5.115  0.1073 -0.1909  0.1243
14840W        W31314   9.443   5.270   3.967 -0.0334 -0.4249 -0.0850
14841W        W31315   6.503   8.797  12.995  0.0865  0.2556 -0.3843
14842W        W31316  14.678   6.246  13.721 -0.0131  0.1473 -0.0073
14843W        W31317   3.245  17.513  16.482 -0.1030 -0.0776 -0.0815
14844W        W31318   9.775  15.368   3.917 -0.0506 -0.3287  0.1174
14845W        W31319  15.925  15.080   2.599  0.0312 -0.1150 -0.0895
14846W        W31320   8.973   5.338  15.036 -0.1648 -0.2441 -0.1198
14847W        W31321  15.496  15.419   2.775 -0.1242  0.2238  0.1987
14848W        W31322   4.681  11.969  14.907  0.1344  0.2808 -0.0549
14849W        W31323   0.661   5.470   1.556  0.2405 -0.0274  0.1166
14850W        W31324   4.782   8.171  14.403 -0.1071  0.0173  0.2168
14851W        W31325   5.420  16.698  14.244 -0.1236  0.1715  0.0496
14852W        W31326  12.508  12.642  16.067  0.1484 -0.0783  0.1652
14853W        W31327   8.057   8.253  16.167  0.1722  0.1321  0.2500
14854W        W31328   2.310  13.140  16.803  0.2197 -0.0623  0.1695
14855W        W31329  12.664  17.021   2.317  0.2893  0.2381  0.2016
14856W        W31330  11.601   0.570   2.695 -0.1371  0.3358 -0.1242
14857W        W31331   4.150   4.562  15.430 -0.1446  0.0079 -0.3095
14858W        W31332   0.830   0.103   1.424 -0.0623  0.1026 -0.1147
14859W        W31333   9.363  13.468   4.173  0.0437 -0.0832  0.1583
14860W        W31334   1.246   8.133   4.070  0.0666 -0.3594  0.0011
14861W        W31335   3.181   8.452  12.746 -0.0698  0.1813 -0.0266
14862W        W31336   5.274  15.919  12.357  0.0583  0.0946  0.3020
14863W        W31337  15.289  17.566   5.496 -0.1408 -0.3055  0.1118
14864W        W31338   8.761  14.357   0.115 -0.0050  0.2033  0.0208
14865W        W31339   1.170   4.432   3.690 -0.2348  0.3610  0.1233
14866W        W31340   5.708  17.686  13.113 -0.0460  0.0110 -0.1135
14867W        W31341  11.610  11.081  13.289 -0.2095  0.0577 -0.0914
14868W        W31342   0.599  14.142  11.396  0.1708 -0.0321  0.1852
14869W        W31343  10.191   6.750  11.701  0.0446  0.0475 -0.3541
14870W        W31344   1.204   4.920  14.613 -0.1058 -0.3533  0.0557
14871W        W31345  15.787   6.472  16.835 -0.2475 -0.1246 -0.0233
14872W        W31346  13.621  13.153  12.223 -0.1244 -0.0401  0.1382
14873W        W31347   0.223  10.101   2.910 -0.1976 -0.3631  0.1234
14874W        W31348  12.378  14.235   2.342  0.2219  0.2129  0.1515
14875W        W31349  12.562   2.168   4.017  0.2035 -0.0224  0.0987
14876W        W31350   0.447   4.853   0.181  0.0984  0.1458  0.0586
14877W        W31351   1.451  11.477   3.437  0.0263  0.1830  0.0717
14878W        W31352  12.656  15.189  13.222  0.1622 -0.2525 -0.1750
14879W        W31353   5.235   5.422  12.577  0.0375  0.1319 -0.1193
14880W        W31354   9.140  17.395  15.931 -0.1069 -0.1451  0.1699
14881W        W31355  10.879   9.376   0.007 -0.2064 -0.0180 -0.1560
14882W        W31356   7.030  16.694  15.420  0.0062 -0.2709  0.1438
14883W        W31357  10.939   6.623  15.180 -0.2993  0.3199  0.1364
14884W        W31358   9.249   4.579   2.622  0.2289  0.2556  0.1517
14885W        W31359   2.186  12.012   2.104  0.0862 -0.2081  0.1930
14886W        W31360   7.277  16.712   0.630 -0.2696  0.1415  0.0287
14887W        W31361   4.458  10.432  15.245 -0.0791 -0.1620  0.1973
14888W        W31362   0.832  16.821   5.404 -0.0025 -0.1295  0.0483
14889W        W31363  11.400  12.154  12.338  0.2101  0.0299  0.1643
14890W        W31364   0.078  16.419  15.290  0.4882 -0.0903  0.0829
14891W        W31365   1.701   1.322  16.816 -0.1858 -0.0379  0.0522
14892W        W31366  10.927  12.043  16.739  0.2043 -0.1234 -0.0094
14893W        W31367   9.117  14.517  11.786  0.1204  0.0374 -0.0479
14894W        W31368   1.596  14.512   4.193 -0.2294  0.2047 -0.1532
14895W        W31369  12.157   0.446   0.674 -0.1679 -0.0681 -0.1348
14896W        W31370   1.333   6.180  12.673 -0.0441 -0.0334  0.0142
14897W        W31371   0.019   6.379  16.706  0.2346  0.0836 -0.0799
14898W        W31372   0.552   7.624  12.033 -0.1039  0.2195  0.2559
14899W        W31373   3.363  16.977  11.869  0.0344 -0.1196 -0.1389
14900W        W31374  10.910   4.567   3.779  0.1772 -0.1394  0.0591
14901W        W31375  12.902  10.441   3.169  0.2280 -0.3372 -0.1187
14902W        W31376   5.099  17.597   0.807  0.2507 -0.0441  0.1342
14903W        W31377  11.187  14.536   0.047 -0.1901 -0.0449 -0.1732
14904W        W31378   4.680  15.985   0.595  0.1792 -0.0801 -0.0203
14905W        W31379  17.257   0.389  11.244 -0.2292 -0.2970  0.0545
14906W        W31380  12.122   3.663  14.364 -0.1604  0.2630 -0.1663
14907W        W31381   5.724  12.590   5.131  0.0589  0.2507  0.0186
14908W        W31382   3.760   8.919  12.272 -0.1409 -0.0499 -0.1397
14909W        W31383  11.488   3.749  12.670  0.0522 -0.2330  0.0145
14910W        W31384   0.425   4.426  12.429  0.1378  0.1629  0.5183
14911W        W31385  16.065  10.147  15.900  0.2150  0.0083  0.4678
14912W        W31386  10.201   0.900  11.986 -0.0753 -0.0292 -0.0725
14913W        W31387   5.266  13.249   3.888 -0.3843  0.0036 -0.2593
14914W        W31388   5.286   9.171  16.742 -0.0096  0.0769  0.1296
14915W        W31389  17.503   6.767  15.177  0.1231  0.2328  0.0394
14916W        W31390  16.339   3.483   2.195  0.1343 -0.1161  0.0341
14917W        W31391  14.246  16.445  11.817 -0.1832  0.1708 -0.2269
14918W        W31392   5.304   2.479   4.891  0.0329 -0.1083 -0.0731
14919W        W31393  14.872  13.747  13.898 -0.1081  0.0536 -0.1697
14920W        W31394  15.208   9.373  12.483 -0.0295 -0.2388 -0.0464
14921W        W31395   8.445  10.821   4.776  0.3608 -0.0660 -0.2087
14922W        W31396   6.060   5.859   1.982 -0.3492 -0.1807  0.2137
14923W        W31397   8.833   9.747   4.745 -0.1050 -0.0655 -0.1580
14924W        W31398   5.992   4.877   4.572  0.0635 -0.2723  0.2384
14925W        W31399  15.864   9.738   1.434 -0.0756 -0.2613 -0.0542
14926W        W31400  10.905   2.145   3.652 -0.2145  0.1045 -0.3241
14927W        W31401   5.039   8.964   0.483 -0.0368 -0.0982 -0.1687
14928W        W31402   1.444   5.131  12.158 -0.2221 -0.1316  0.0533
14929W        W31403   1.888   9.692   4.641 -0.3212  0.0613 -0.3139
14930W        W31404  15.555   1.236   5.991  0.2391 -0.0808 -0.3772
14931W        W31405   2.966  13.560   0.305  0.1202  0.1879  0.0938
14932W        W31406   3.663   1.258  15.733 -0.0755  0.1664  0.1018
14933W        W31407  16.888  13.323   4.152 -0.1534  0.1123 -0.0491
14934W        W31408  12.873  11.559  16.432 -0.0628 -0.0256 -0.1691
14935W        W31409   1.948  12.168  15.841  0.1149 -0.3195 -0.1542
14936W        W31410  14.512   4.025   4.011  0.0236 -0.0349 -0.4532
14937W        W31411   0.106   4.164   3.347 -0.0889  0.0926  0.2469
14938W        W31412  10.840   4.480   5.490  0.2342  0.0239 -0.0173
14939W        W31413   6.951  14.420   0.170 -0.2004  0.1379  0.1308
14940W        W31414   7.302   0.336   1.748  0.3148  0.1734 -0.0441
14941W        W31415  14.589  10.660  13.726 -0.0758  0.1362  0.0835
14942W        W31416   1.553  16.006  12.367 -0.0336  0.0527  0.0295
14943W        W31417  14.104  12.307   4.519 -0.1564 -0.2501 -0.1437
14944W        W31418  14.069  13.989   0.012  0.2828  0.2729 -0.1723
14945W        W31419  15.351   9.310   0.328 -0.2016  0.0621  0.1147
14946W        W31420   3.933   8.442  12.310 -0.1591 -0.0288 -0.1415
14947W        W31421   2.406   8.307   0.454  0.1173 -0.1071  0.0886
14948W        W31422   4.546  16.078  12.302 -0.1781  0.2167  0.1254
14949W        W31423   8.934   5.319   4.428  0.0887  0.2157 -0.1070
14950W        W31424   4.136  12.156   3.238 -0.2189  0.0276 -0.1991
14951W        W31425   8.005   5.539   2.181 -0.0497 -0.1969  0.1498
14952W        W31426   0.081  11.942  12.067 -0.1170 -0.0376  0.2109
14953W        W31427  16.772   4.500  15.358 -0.0079  0.0780  0.2516
14954W        W31428   5.554  11.755   5.823  0.1725 -0.1144  0.0127
14955W        W31429   5.496  16.236   4.394 -0.0291 -0.1483  0.1264
14956W        W31430   1.324  12.873   3.515  0.0675  0.2603 -0.1199
14957W        W31431   8.660  12.075   3.845 -0.1774 -0.2247  0.1681
14958W        W31432  10.899   5.629  15.081 -0.2059 -0.1727 -0.0700
14959W        W31433  10.021   8.606   4.515 -0.2312  0.3335  0.0882
14960W        W31434  14.333   4.566   1.618 -0.1475  0.0679 -0.0559
14961W        W31435   0.136   7.167   1.747  0.1410  0.1344  0.2440
14962W        W31436  12.700   8.455  14.431 -0.1190 -0.3655  0.0932
14963W        W31437  10.621   1.239  13.760 -0.0128 -0.1226 -0.1473
14964W        W31438  12.219   9.671  15.265 -0.1365 -0.0076 -0.0912
14965W        W31439   7.640   0.853  15.440  0.3017 -0.0345  0.0301
14966W        W31440   6.010   2.190  14.101  0.0124 -0.1903  0.0825
14967W        W31441   9.117  13.573  13.788 -0.1967  0.0404 -0.2108
14968W        W31442   1.564   7.315   0.273 -0.1957  0.0524 -0.1374
14969W        W31443   4.881  15.543   4.307 -0.1572 -0.1702 -0.1819
14970W        W31444  14.085   8.229   5.172  0.2229 -0.0027  0.1691
14971W        W31445  10.631  14.370   4.679 -0.0794 -0.1001 -0.1998
14972W        W31446   0.660  13.587  16.475 -0.1876 -0.2126  0.0396
14973W        W31447  12.414  15.025  11.584 -0.2108 -0.1903  0.0091
14974W        W31448   7.465   1.027   4.622  0.1805  0.0746  0.2794
14975W        W31449  16.305  10.728  12.966  0.2222  0.1364  0.1526
14976W        W31450  16.400  14.536  16.169  0.2129 -0.2129  0.1616
14977W        W31451   0.027  14.391   2.415 -0.2031  0.3275 -0.1719
14978W        W31452  17.717   4.680  14.148  0.1386  0.3184  0.2602
14979W        W31453  16.151  14.898   4.987 -0.0052 -0.4087 -0.0595
14980W        W31454  14.251  10.919   3.445  0.0504 -0.1391  0.1608
14981W        W31455   8.453  14.303   4.721 -0.3208  0.0308  0.3292
14982W        W31456   8.233   4.438  15.897 -0.5869  0.1721  0.4117
14983W        W31457   8.609   8.216   5.106 -0.1653  0.0649 -0.1438
14984W        W31458   6.574   2.626   1.735  0.1900 -0.1758 -0.2241
14985W        W31459   7.875  16.913  15.469  0.0708  0.0545 -0.0754
14986W        W31460   5.449  16.649   5.361 -0.0812 -0.2004  0.0423
14987W        W31461  12.206   3.248   2.842 -0.3201  0.0400 -0.0225
14988W        W31462  11.622  17.212   4.538 -0.2326 -0.0590  0.1044
14989W        W31463   6.407   8.177   3.789 -0.0202 -0.1699  0.2461
14990W        W31464   9.122   6.248   0.149 -0.1716  0.0660 -0.0857
14991W        W31465   4.951  13.886  14.765  0.0801  0.1164 -0.0429
14992W        W31466   1.604  16.877   5.997 -0.1310  0.2764 -0.1068
14993W        W31467   8.289   9.431   5.115  0.0682  0.1084 -0.0536
14994W        W31468   6.038   7.680  14.220 -0.0670 -0.3687  0.2891
14995W        W31469   0.265  17.284   4.884 -0.0415  0.2080  0.3117
14996W        W31470   1.591   3.594  14.197 -0.1224  0.1379 -0.0707
14997W        W31471  11.614  15.934  12.152  0.1467  0.2242 -0.0456
14998W        W31472  16.178   1.917  14.807  0.0952  0.1446  0.3050
14999W        W31473   7.030  10.810   5.487  0.2983 -0.1455  0.1903
15000W        W31474  10.334   6.105   2.075  0.2970  0.0510 -0.0251
15001W        W31475  10.455   4.237   5.868  0.0357 -0.1000 -0.0219
15002W        W31476   6.813  15.160  14.968 -0.0715 -0.0266 -0.0187
15003W        W31477  15.482   6.006   4.284  0.0370  0.1831  0.1888
15004W        W31478  14.946  14.615  15.299  0.2501  0.2748  0.0592
15005W        W31479   0.699  14.872  15.211 -0.0922  0.1848 -0.3145
15006W        W31480   0.617  16.851   0.117  0.0891  0.0930  0.0514
15007W        W31481  15.272   9.564  14.582  0.1129 -0.0847  0.1524
15008W        W31482   0.436  14.623   1.968 -0.3147 -0.1033 -0.1851
15009W        W31483  11.899  10.165  13.851 -0.0616 -0.2175 -0.0888
15010W        W31484   7.204  14.774   4.937 -0.0162  0.0144 -0.4022
15011W        W31485   5.900   8.647  13.308  0.2322 -0.1230  0.1425
15012W        W31486  12.684   4.831   6.498  0.0436  0.0437 -0.0106
15013W        W31487   2.036  11.088  15.529  0.2033  0.1622  0.2098
15014W        W31488   6.034   5.402   1.799  0.0943  0.0761  0.3140
15015W        W31489  14.829   7.391   0.450  0.1019 -0.0070 -0.0014
15016W        W31490   3.034  15.556   4.651 -0.1493 -0.0768  0.0490
15017W        W31491  17.689   3.048   5.126  0.0864  0.3292  0.1294
15018W        W31492   9.446   9.863  10.529  0.0078 -0.0501  0.1782
15019W        W31493   7.761   5.129  12.098  0.3033  0.2482 -0.0027
15020W        W31494   0.719   7.119  13.484  0.1258  0.0531  0.4100
15021W        W31495   6.139   9.205  13.426 -0.2360 -0.0243  0.1219
15022W        W31496  15.192   1.606  14.743 -0.1717  0.2781  0.0855
15023W        W31497  17.617  15.046   0.660  0.0433 -0.0557  0.0767
15024W        W31498  16.299  11.852  13.661  0.0238  0.3225 -0.0633
15025W        W31499   4.523  11.075   4.439 -0.2930  0.1301  0.1492
15026W        W31500  12.986  12.051  15.085 -0.1570  0.1237 -0.1316
15027W        W31501  14.552   6.950   0.047 -0.0832  0.1769 -0.0234
15028W        W31502  14.668   2.942   1.290  0.0265  0.0560  0.1111
15029W        W31503   3.774   4.494  14.673  0.2785 -0.2746  0.2252
15030W        W31504  12.217   8.946  16.675  0.0298  0.0386 -0.1383
15031W        W31505  13.503   2.908  12.241 -0.1837 -0.0494  0.2058
15032W        W31506  15.382   2.294  12.987 -0.1099  0.1967  0.1149
15033W        W31507   5.356  17.371  15.573  0.2080 -0.3387  0.0115
15034W        W31508  11.417  14.687  11.886  0.1869  0.0220  0.0970
15035W        W31509   0.955   8.509   5.408  0.0107  0.0920 -0.1574
15036W        W31510  14.892  16.957  16.639 -0.1024 -0.1886 -0.0175
15037W        W31511   0.409   5.193  14.836  0.0369 -0.0436 -0.1428
15038W        W31512  11.725   8.309   0.245  0.1515 -0.0013  0.0777
15039W        W31513   9.919   8.952  15.906  0.2357  0.3139  0.0145
15040W        W31514   2.240   8.237   4.383 -0.2102 -0.1263 -0.2306
15041W        W31515   0.614  12.366   4.630  0.1645  0.0998 -0.3285
15042W        W31516  10.813  11.439   1.880  0.1232  0.2281 -0.1072
15043W        W31517  15.511   3.980  11.758 -0.2243 -0.0752 -0.0474
15044W        W31518  13.361   2.557   5.961 -0.0833 -0.1908 -0.0568
15045W        W31519   1.868   7.623   2.078 -0.0692 -0.0069  0.1653
15046W        W31520   8.382   3.118   2.872  0.1564 -0.2144 -0.5539
15047W        W31521   4.982   1.476   5.784 -0.1384  0.1282 -0.0772
15048W        W31522   2.544  17.223   6.088 -0.0423 -0.2035  0.0793
15049W        W31523  13.287  10.850  13.581 -0.1230  0.3118  0.0021
15050W        W31524   7.163  10.895  14.871  0.0794 -0.1227  0.0979
15051W        W31525   1.526   3.632  16.237  0.2144  0.3401  0.0141
15052W        W31526  13.910  14.888  11.624 -0.3148  0.4383 -0.3186
15053W        W31527  11.600   2.739  12.342  0.2741  0.0546 -0.0729
15054W        W31528   4.562   5.127   1.429  0.2390 -0.0495 -0.2051
15055W        W31529   1.495  11.113  15.121 -0.0942 -0.3596 -0.2208
15056W        W31530  10.707  15.720  15.417 -0.1360 -0.0061 -0.1978
15057W        W31531  13.131   0.293  15.678 -0.0921  0.1914  0.1486
15058W        W31532   0.375   4.706   2.487 -0.1729  0.0515 -0.1876
15059W        W31533  10.318   4.465  13.587 -0.2689 -0.2576  0.0312
15060W        W31534   3.459   3.247   6.048 -0.0999 -0.0566 -0.3194
15061W        W31535  14.990  13.082  13.387 -0.0883  0.2017 -0.0550
15062W        W31536  10.703   8.030  13.778 -0.0373 -0.2165 -0.1356
15063W        W31537  10.193  13.462  14.290 -0.2178  0.2289  0.2043
15064W        W31538   3.458   8.497  12.231 -0.0979  0.1923 -0.2102
15065W        W31539  12.588   8.269  12.877  0.0115 -0.1638 -0.2443
15066W        W31540   0.732  16.059   0.293  0.7226 -0.4042  0.0516
15067W        W31541   6.513  10.304   4.858  0.0366  0.1331  0.2346
15068W        W31542  13.264   1.323   0.963  0.0274  0.1576  0.1402
15069W        W31543  14.632  16.540  11.462 -0.0625  0.0254  0.1313
15070W        W31544   9.060   3.670   0.585  0.1896  0.0503  0.1054
15071W        W31545  16.661   1.436   4.928 -0.1360 -0.1115  0.5749
15072W        W31546   1.009   2.324   3.173 -0.1186 -0.0373 -0.0046
15073W        W31547  10.184  14.211  16.906 -0.2413  0.2067  0.2142
15074W        W31548  10.206  12.598  14.604 -0.0273 -0.0617 -0.0444
15075W        W31549   3.036  14.656   5.196 -0.3256 -0.0459  0.3559
15076W        W31550   5.656   7.215   4.075  0.2214 -0.3073 -0.2465
15077W        W31551  16.510   1.736  15.240 -0.1381  0.0206  0.3732
15078W        W31552   5.084  10.054  12.519 -0.1606  0.1052 -0.3046
15079W        W31553  11.578  10.021   2.518 -0.0826 -0.2723 -0.1087
15080W        W31554   5.443   2.328   2.028 -0.1062 -0.1418 -0.0298
15081W        W31555   2.203   0.480   5.578  0.1774 -0.2344 -0.0448
15082W        W31556   0.782  16.701  11.197  0.3312  0.2097 -0.0754
15083W        W31557  13.942  13.226   4.600 -0.0897  0.1638 -0.1532
15084W        W31558  15.622  17.528  14.311  0.0198 -0.2092 -0.2084
15085W        W31559   2.836   7.530   2.601  0.4244  0.2367 -0.2558
15086W        W31560   6.242  12.488  12.998 -0.1340  0.1008 -0.0649
15087W        W31561  13.640   2.974   3.247 -0.0056  0.1356  0.1727
15088W        W31562   5.411  11.239   1.008 -0.1522 -0.3593  0.1462
15089W        W31563  17.775   7.085  12.936 -0.0875 -0.2593  0.0215
15090W        W31564  10.158   6.023   2.728  0.0536  0.0551 -0.3121
15091W        W31565  15.966  15.347  14.105  0.0189 -0.3561  0.2332
15092W        W31566  12.095  15.586   6.032  0.3326  0.1397  0.1894
15093W        W31567   0.608   5.480   2.396 -0.0293 -0.0314  0.2483
15094W        W31568  12.268  12.652  15.336  0.0769  0.0934  0.0326
15095W        W31569   3.994   9.971   0.985 -0.1346 -0.0028 -0.0140
15096W        W31570   9.538  17.525  12.741  0.0264  0.1450 -0.1626
15097W        W31571   4.452   0.869   4.743 -0.1871 -0.0918  0.0669
15098W        W31572  10.156   6.270  12.850 -0.1734 -0.0999  0.0965
15099W        W31573  11.899   3.683   3.914 -0.3604 -0.1146 -0.1284
15100W        W31574  17.017  16.779   3.809  0.0980  0.2580  0.1162
15101W        W31575   1.580   1.112  14.412 -0.0024  0.0843 -0.0841
15102W        W31576   6.247   2.373  11.674 -0.0459  0.1012 -0.0465
15103W        W31577  16.427  12.537   5.014  0.0755  0.1348 -0.0128
15104W        W31578   1.349   3.455  13.631  0.1682 -0.0223 -0.0870
15105W        W31579   8.683   5.497  12.055  0.0107  0.0640 -0.2451
15106W        W31580  13.677  10.761  16.486  0.0056 -0.0668  0.0696
15107W        W31581   2.448  10.264   4.830  0.2505 -0.0687 -0.0477
15108W        W31582  14.159  10.469   3.632 -0.2401  0.1050 -0.0429
15109W        W31583   5.156   0.292   1.841 -0.3140  0.0685  0.0045
15110W        W31584  16.926  12.628   3.469  0.3887 -0.0594  0.0241
15111W        W31585   2.868   1.839   6.340 -0.3594 -0.0832  0.1037
15112W        W31586   2.022  15.098   3.841  0.2105  0.1388 -0.1958
15113W        W31587  13.359   3.134   3.670  0.0123  0.1624  0.4094
15114W        W31588   0.861   8.101  13.443  0.0825  0.5064  0.1073
15115W        W31589   7.505   6.099  16.044  0.1310 -0.3788  0.0441
15116W        W31590   8.319  15.868   1.292  0.2307  0.0086  0.1303
15117W        W31591  15.673  11.627  15.864 -0.1666  0.0814  0.3220
15118W        W31592   9.770   2.827  12.530  0.1392 -0.1874 -0.1095
15119W        W31593  12.349  13.169   1.433 -0.0995  0.1778 -0.1317
15120W        W31594  11.058   4.413  16.516  0.0146 -0.3737  0.1669
15121W        W31595  14.630   2.423  11.057 -0.1561  0.2139  0.2274
15122W        W31596   7.533   1.772  15.250  0.0026 -0.0307  0.1945
15123W        W31597  12.066  12.622   0.080 -0.2953  0.1469  0.1158
15124W        W31598  10.894   8.928  13.491 -0.2691  0.0210 -0.2719
15125W        W31599   4.288  17.685   3.594 -0.3055  0.0004 -0.1267
15126W        W31600   0.853   1.609  13.756 -0.1001 -0.1992 -0.2708
15127W        W31601   8.884  10.805   1.932  0.0792 -0.1918  0.3687
15128W        W31602   6.141   1.846  14.932 -0.3201 -0.0300  0.1598
15129W        W31603   3.692   1.085   5.479  0.0219  0.1084 -0.2098
15130W        W31604   9.985   2.824  13.078  0.0398  0.0495  0.1281
15131W        W31605  13.500   6.982  13.921 -0.0015  0.0853 -0.0426
15132W        W31606  10.867  10.605   4.668  0.4007  0.0325 -0.2615
15133W        W31607   9.865   2.237   2.687 -0.0300 -0.0236 -0.2701
15134W        W31608   3.523   6.524  12.629  0.0092  0.1376  0.3629
15135W        W31609   8.808   6.724  14.591  0.0884  0.1882  0.0875
15136W        W31610   7.262   5.447  12.724 -0.3045  0.2206 -0.0021
15137W        W31611   3.285   5.118   4.774  0.1960  0.4091  0.1539
15138W        W31612  12.476   5.657  11.685  0.2717 -0.1155  0.2898
15139W        W31613   7.273   8.058  14.343  0.0066  0.1062 -0.0072
15140W        W31614  11.354  15.854   0.484  0.0745  0.2500 -0.0791
15141W        W31615   3.079   0.179   2.808 -0.0609 -0.0192 -0.2286
15142W        W31616   3.126  13.327   1.210  0.0773  0.1632  0.2636
15143W        W31617   3.778   9.276  11.806 -0.1704  0.1970  0.0081
15144W        W31618   0.537  14.172  12.674  0.1043 -0.0234  0.1229
15145W        W31619   7.910   1.357   1.185  0.0742  0.3191  0.0707
15146W        W31620  12.224   2.414   3.740  0.0711 -0.0936 -0.2934
15147W        W31621   2.010   5.317   5.174  0.1704  0.2390  0.0133
15148W        W31622  10.941   4.033   0.919 -0.2678 -0.1986 -0.2336
15149W        W31623  14.769   5.091   5.580 -0.2743 -0.1842  0.1484
15150W        W31624   3.085   7.883   3.991 -0.2382 -0.0784 -0.1336
15151W        W31625   8.717   1.023  14.941 -0.0198 -0.1189  0.3022
15152W        W31626   3.641   6.856   4.452  0.2160  0.0139  0.2596
15153W        W31627   6.189   0.237   3.719  0.1862 -0.0694 -0.2659
15154W        W31628   4.287  12.965   0.047  0.0726 -0.1062 -0.1670
15155W        W31629  15.140  13.919   1.050 -0.0350  0.1034 -0.0012
15156W        W31630   0.313  16.030   0.607  0.0340 -0.1038 -0.0705
15157W        W31631  10.670  17.334  12.835  0.0544 -0.3414  0.0068
15158W        W31632   8.293   6.003   1.373 -0.0074 -0.1232  0.0310
15159W        W31633  13.542  14.293  12.609  0.1057  0.2341 -0.1141
15160W        W31634   8.742   1.213  16.005  0.0936 -0.1172  0.0312
15161W        W31635   4.029  17.012   1.253 -0.1426  0.0981  0.0898
15162W        W31636  17.496  17.715  16.728 -0.2007 -0.2121  0.2494
15163W        W31637  12.162   4.568   2.986  0.1101 -0.1096 -0.1390
15164W        W31638   6.975   3.173  16.215  0.1210 -0.5009  0.2052
15165W        W31639   3.934  15.328   3.333 -0.4773  0.1138 -0.1503
15166W        W31640  14.934   3.788   4.775 -0.1438  0.2949 -0.0318
15167W        W31641   9.922   6.896   5.039  0.0102  0.0095 -0.1999
15168W        W31642   5.080  14.809   1.828  0.0958 -0.1424  0.0829
15169W        W31643  12.567   7.606  14.676 -0.1706 -0.1318  0.2273
15170W        W31644   1.607   4.349   5.081 -0.0408 -0.2659 -0.3425
15171W        W31645   7.286   0.073  14.744  0.0298  0.2567  0.2893
15172W        W31646   3.369   5.815   1.305  0.1903  0.0288  0.0226
15173W        W31647   0.541  10.171   0.491 -0.1704  0.0874 -0.0128
15174W        W31648  15.592   7.218   5.720 -0.0987  0.0466  0.0689
15175W        W31649  11.795   1.251   5.269 -0.0942  0.0708  0.2192
15176W        W31650   6.804  14.951  15.813 -0.0464  0.1076 -0.0565
15177W        W31651   0.137   1.208  15.516  0.0627  0.0069 -0.1037
15178W        W31652  12.116  13.673   3.233 -0.0974  0.0909 -0.1092
15179W        W31653   0.440   8.383  16.110 -0.0379  0.2028  0.1500
15180W        W31654  15.360  10.208  14.177 -0.0129  0.0823 -0.0587
15181W        W31655   4.224   3.526  12.491  0.0233  0.0777 -0.2564
15182W        W31656   4.391   8.898   5.182  0.0288  0.0279  0.3998
15183W        W31657  13.096  11.767   1.738  0.0378 -0.2338  0.0010
15184W        W31658  16.960  16.249  13.967 -0.0809  0.2611 -0.2313
15185W        W31659  12.424   9.426   0.499  0.0572 -0.0594 -0.1411
15186W        W31660  15.845  10.595   1.527 -0.0668 -0.0132 -0.0253
15187W        W31661   0.801   4.077   5.358 -0.0110  0.1635 -0.2425
15188W        W31662   1.055  13.186  12.273 -0.1126  0.1409 -0.3583
15189W        W31663  14.528   0.916  13.797 -0.3795 -0.1369 -0.5739
15190W        W31664   4.037   4.326   0.060  0.1290  0.3251 -0.1293
15191W        W31665  14.855   1.868  13.925 -0.2561  0.0184 -0.1519
15192W        W31666   7.720  10.261  15.285  0.0539 -0.1046  0.2255
15193W        W31667  12.076   3.526   1.783  0.1686 -0.1469  0.0234
15194W        W31668  12.316   2.778  16.616  0.1598  0.1767 -0.0628
15195W        W31669   4.127  14.766   5.895  0.1446 -0.6080  0.0672
15196W        W31670  15.032  12.305  12.715  0.1148  0.2801 -0.1067
15197W        W31671   8.856  16.719   5.649  0.2910  0.2129 -0.1656
15198W        W31672  15.065  11.470   1.342 -0.0388 -0.1493  0.1455
15199W        W31673  15.815   4.015   3.912 -0.1069  0.1152  0.1085
15200W        W31674  10.255  16.324  11.840  0.1897  0.1665 -0.0326
15201W        W31675  17.280   8.403  15.762 -0.3459 -0.1662  0.2799
15202W        W31676   3.451   1.613  14.744 -0.1964 -0.1233  0.1085
15203W        W31677  15.687  12.156  15.866 -0.1244  0.0869 -0.2734
15204W        W31678  10.925  13.315  12.818  0.3533  0.0067 -0.3668
15205W        W31679   4.181   6.982   2.144  0.0709 -0.3727  0.2583
15206W        W31680   4.770  13.392  12.899 -0.1464 -0.0300 -0.0675
15207W        W31681   8.181  16.351   4.070  0.1316  0.1116  0.0836
15208W        W31682  13.280   6.760  15.250 -0.0151  0.2725 -0.1034
15209W        W31683  15.747  14.535  14.889  0.1182 -0.2256  0.3146
15210W        W31684   7.137  11.512  14.809  0.3844 -0.0708 -0.2446
15211W        W31685   9.414  15.492   0.069  0.1555  0.0282  0.0959
15212W        W31686  12.978   9.691   2.412  0.0143 -0.2140  0.1409
15213W        W31687  17.392   9.433  12.454 -0.0492  0.2130  0.2554
15214W        W31688   8.682   2.635   1.684  0.1539  0.1348  0.1799
15215W        W31689  14.302   2.708   2.564  0.3057 -0.2653 -0.2022
15216W        W31690   0.943   8.410  14.541 -0.2737 -0.0616 -0.0562
15217W        W31691   6.280   8.459  11.740  0.1154 -0.2980 -0.3371
15218W        W31692  12.518   7.856   1.138 -0.2613 -0.1298  0.2256
15219W        W31693   8.120  12.103   3.763 -0.0084 -0.0979  0.2579
15220W        W31694  16.352   7.259  14.465 -0.1265 -0.0979  0.2918
15221W        W31695   5.824  10.479   4.312  0.2271  0.3409 -0.1914
15222W        W31696   3.766  11.614  14.535 -0.1089  0.1799  0.2832
15223W        W31697   7.396   3.566   6.230 -0.2636 -0.1417  0.3281
15224W        W31698  11.535   4.799  12.808 -0.0611 -0.1358  0.1782
15225W        W31699  14.818   1.923   2.856 -0.1278  0.2537  0.0736
15226W        W31700   3.103   4.107  15.784 -0.0798 -0.0487  0.1947
15227W        W31701   5.485   9.234   3.907  0.0072  0.4612 -0.0014
15228W        W31702  17.415   3.407   1.966 -0.3034  0.2138  0.0213
15229W        W31703   5.193  17.763   4.446  0.0788 -0.1467  0.0574
15230W        W31704  16.937   8.856  12.915 -0.2403 -0.0215 -0.2106
15231W        W31705  10.864   0.438   0.688 -0.0227 -0.1376  0.0685
15232W        W31706   8.661   2.444  14.330 -0.0385 -0.3733 -0.1194
15233W        W31707   7.699  10.977   1.808  0.2721  0.0472 -0.2859
15234W        W31708  17.005   4.319  12.563 -0.0199 -0.0130 -0.0870
15235W        W31709  12.816  13.567  12.121 -0.5329  0.1275  0.0197
15236W        W31710   2.299   3.655   6.177 -0.1997  0.0369  0.3297
15237W        W31711  11.672  16.026  13.011 -0.0220 -0.2016 -0.2486
15238W        W31712  14.479   1.235   0.945  0.2783  0.1576  0.0048
15239W        W31713   7.443  12.046   1.280  0.0873  0.2534 -0.1379
15240W        W31714  10.131  13.989   2.286  0.1066 -0.0958  0.1174
15241W        W31715   2.741  16.577   1.098 -0.1113  0.1305  0.0784
15242W        W31716  17.546  10.542  14.141 -0.1538  0.2611  0.5022
15243W        W31717  12.276   4.345  12.329  0.0626  0.1029  0.0543
15244W        W31718  14.304  16.154   0.957 -0.2823  0.1637 -0.2054
15245W        W31719   8.998  16.651  10.920  0.1047  0.0222  0.1989
15246W        W31720   4.946  13.635   2.024 -0.2164 -0.0428 -0.0586
15247W        W31721   5.882  12.967  16.691  0.1483  0.0792 -0.0812
15248W        W31722  10.005   9.505   5.052 -0.4264 -0.1392 -0.0540
15249W        W31723   2.789   8.873   1.155 -0.0252  0.1428  0.1827
15250W        W31724   6.086  13.264   0.217  0.0318  0.0605  0.0399
15251W        W31725   7.189   5.427   0.844  0.1671 -0.2549 -0.1309
15252W        W31726   5.353  10.409   1.182 -0.1441 -0.1339 -0.0334
15253W        W31727   5.469   3.546   5.214  0.2369 -0.2513  0.3205
15254W        W31728   2.560   2.860  15.700 -0.0840 -0.3153 -0.0608
15255W        W31729  15.666   3.962   2.792  0.0955  0.1988  0.0222
15256W        W31730   0.439   3.769   2.359  0.3423  0.1922 -0.2165
15257W        W31731  17.620   2.873   5.618  0.0342 -0.0434  0.5233
15258W        W31732  12.422   6.430   5.901  0.0231 -0.3006 -0.3771
15259W        W31733  14.402   8.652   5.116 -0.3006  0.1271  0.0698
15260W        W31734   4.654  14.173  16.738  0.0325 -0.0404  0.2165
15261W        W31735   0.920   7.527   4.914  0.2165 -0.3373  0.0409
15262W        W31736  12.186  12.355  14.866 -0.2444 -0.3533 -0.2371
15263W        W31737   6.018   0.868   0.095 -0.2213  0.0812 -0.0113
15264W        W31738  17.152  17.513  11.860 -0.0603  0.1500  0.4193
15265W        W31739   7.249  15.262  15.851 -0.0697  0.1447 -0.2365
15266W        W31740  11.804   4.064   4.294 -0.1877 -0.2190  0.1188
15267W        W31741   9.759  11.273   0.192 -0.1445 -0.1789 -0.0931
15268W        W31742  16.719  13.868  12.604  0.1992 -0.0191  0.0656
15269W        W31743  15.171   9.861   5.670  0.1634 -0.1834 -0.1740
15270W        W31744  17.305  12.493   2.385  0.2336 -0.0788  0.0650
15271W        W31745   4.062  10.001   4.948 -0.0246 -0.4459  0.1544
15272W        W31746   4.740   6.133  13.472 -0.2964  0.2583 -0.0671
15273W        W31747   9.485   8.641  15.267  0.2626 -0.0760  0.0128
15274W        W31748  13.070  12.964  15.657 -0.0515 -0.3075 -0.2311
15275W        W31749   6.822   4.572   3.676 -0.3233  0.0165  0.1267
15276W        W31750   7.048  13.776  12.530  0.0931 -0.0919  0.1775
15277W        W31751  13.170   8.115   3.113  0.0965  0.0063  0.1111
15278W        W31752  17.062  15.592  12.010  0.1881  0.1658 -0.1065
15279W        W31753  16.876  17.041   2.861  0.2036  0.2490 -0.0502
15280W        W31754  14.044   1.787  14.563 -0.0298 -0.2062  0.2512
15281W        W31755  10.637  13.476  13.245 -0.2271 -0.0317  0.0702
15282W        W31756  13.500  11.841  16.248  0.1008  0.1059 -0.0787
15283W        W31757   7.505  17.520  13.801  0.0121 -0.0231  0.0638
15284W        W31758   6.749  10.169  15.372 -0.0114 -0.1211 -0.0288
15285W        W31759   1.040   7.205   0.965  0.2180 -0.0946  0.0969
15286W        W31760  14.780  17.120  12.315  0.2366  0.2377 -0.1812
15287W        W31761   2.908  15.261  10.591 -0.1477  0.2687  0.2303
15288W        W31762   0.689   3.329   0.636  0.0859  0.1183 -0.1951
15289W        W31763  12.825  13.829  16.003  0.1575 -0.2785  0.3514
15290W        W31764  17.693   9.071  13.001 -0.2121 -0.3888  0.0717
15291W        W31765  10.575   7.192   4.946  0.0939 -0.0004  0.2160
15292W        W31766   6.156  15.079   5.430 -0.0648 -0.1012 -0.3359
15293W        W31767   8.469   9.746   0.352  0.1120  0.0430 -0.0765
15294W        W31768  17.255  15.422   3.560 -0.0590  0.1574  0.2296
15295W        W31769   7.221  16.243  13.643  0.3210 -0.1491  0.0577
15296W        W31770   0.206   4.672   4.024  0.3228 -0.0523  0.0505
15297W        W31771  17.365  11.507   1.171  0.1958  0.2854  0.2739
15298W        W31772  15.860  15.656   2.584 -0.4514 -0.0928  0.3049
15299W        W31773  14.803   5.156  14.711  0.2300  0.1876  0.2378
15300W        W31774   6.096   1.756  13.852  0.0005 -0.1235  0.1341
15301W        W31775   7.540   7.984  12.629 -0.2895 -0.3339  0.2335
15302W        W31776   5.817   4.982  14.373 -0.2502  0.0712 -0.2440
15303W        W31777   2.108   4.175   3.389 -0.0752  0.2494 -0.0810
15304W        W31778  17.581  11.080  13.124  0.0379  0.2161 -0.0542
15305W        W31779   7.923   7.684  15.103 -0.1264  0.1199  0.0946
15306W        W31780   5.082   2.892   4.224  0.4596  0.1359 -0.0054
15307W        W31781   3.047   0.497  14.037 -0.0277  0.2233 -0.2671
15308W        W31782  10.464   5.031  14.284  0.0126 -0.2542 -0.0773
15309W        W31783  15.388  13.876   0.017 -0.0522  0.1235  0.1579
15310W        W31784  12.286   5.499   3.456  0.1991 -0.2320  0.1095
15311W        W31785   3.325   8.329   5.708  0.1352  0.0830  0.0741
15312W        W31786  11.116  13.292  12.221 -0.1702  0.1763  0.2263
15313W        W31787  13.384   9.293   1.472 -0.0002 -0.4689 -0.1093
15314W        W31788   8.227  13.275  13.048 -0.3470 -0.2124  0.0307
15315W        W31789  17.164   6.487   5.740 -0.0569 -0.1300 -0.1884
15316W        W31790   5.811   2.311   2.386  0.0686 -0.2846  0.1472
15317W        W31791   5.668  15.251   5.479  0.4298  0.0518 -0.1601
15318W        W31792  16.488  16.162   2.516 -0.1309 -0.2382 -0.2381
15319W        W31793   2.445   7.124  13.736  0.2614 -0.0799  0.1580
15320W        W31794  13.551  10.596  14.661  0.3736  0.0967 -0.4105
15321W        W31795   5.619   5.359   3.344  0.1546 -0.1733 -0.0472
15322W        W31796  14.457   8.916   5.847  0.1468 -0.1280 -0.0630
15323W        W31797  11.650   7.340  12.655  0.1447 -0.0559 -0.1400
15324W        W31798   8.031   6.713  12.119 -0.0209 -0.0036  0.1557
15325W        W31799   7.200  13.325  14.938 -0.4012 -0.1456 -0.0959
15326W        W31800  16.913  15.652  13.231  0.3223  0.0973  0.0180
15327W        W31801  11.114  11.117   3.066  0.4543 -0.1077  0.4656
15328W        W31802   1.533   2.655  16.538  0.1780 -0.0368 -0.0632
15329W        W31803   6.908  11.315  15.323  0.0696  0.0740 -0.2316
15330W        W31804   4.669  16.486  14.507  0.0952  0.0663  0.0144
15331W        W31805   3.707   7.237   5.234  0.0083  0.1168 -0.1580
15332W        W31806   5.407   4.597   3.772  0.1736 -0.1100  0.0682
15333W        W31807   4.764   5.304   2.426 -0.1673 -0.1368  0.1498
15334W        W31808  13.137   3.545   1.882  0.1775  0.0940  0.0491
15335W        W31809  11.670  14.506   5.416 -0.0213  0.2953  0.1604
15336W        W31810   3.070   6.072  12.665 -0.0839 -0.0057  0.0219
15337W        W31811   4.645   7.469   0.907 -0.0897  0.2794 -0.2257
15338W        W31812   2.055   0.301  11.883  0.1333 -0.1168  0.4319
15339W        W31813  17.656   9.723  15.612  0.1782 -0.3352  0.0378
15340W        W31814   3.489   3.670   5.773 -0.0973  0.2390  0.1956
15341W        W31815   8.842   0.009  14.587  0.1831 -0.0853  0.0499
15342W        W31816   2.570   7.264  16.826  0.4330  0.3666  0.1684
15343W        W31817   2.218   6.742  16.679  0.2142 -0.0517 -0.0246
15344W        W31818   2.262  15.903  14.973  0.1897 -0.0838  0.2529
15345W        W31819   4.780   4.195  12.592 -0.1099 -0.1576 -0.0920
15346W        W31820   2.053   9.763  15.923  0.0816  0.2929 -0.0093
15347W        W31821   2.098   4.086   4.962 -0.2149  0.1019  0.2057
15348W        W31822  14.303   8.738  16.834  0.1109  0.2966 -0.1055
15349W        W31823   4.418   7.579   2.875  0.0425 -0.1976  0.6017
15350W        W31824  16.828  17.802  13.131 -0.1084 -0.0330 -0.1966
15351W        W31825  10.688   9.095  16.471 -0.0777 -0.0806  0.0384
15352W        W31826  13.528   6.169  12.346 -0.2202  0.3827 -0.0377
15353W        W31827   8.970   5.137  14.162 -0.0678 -0.2126 -0.1040
15354W        W31828  15.394  11.506   2.233  0.0058  0.2729  0.1422
15355W        W31829   0.762   1.138  13.940  0.1782  0.0139  0.1302
15356W        W31830  17.058  14.215  15.798 -0.1603 -0.1189  0.1604
15357W        W31831   6.271  16.351  14.283 -0.1021  0.0511 -0.3718
15358W        W31832  11.902  16.509   5.487 -0.1670  0.0924 -0.1870
15359W        W31833  16.617  15.857  11.810  0.2595 -0.1624  0.1980
15360W        W31834   5.264   6.001   0.146  0.1282  0.1201  0.0309
15361W        W31835   7.447  11.991   1.937  0.0378 -0.1527 -0.0141
15362W        W31836   3.732   9.652  12.727 -0.0799 -0.0673 -0.0134
15363W        W31837  10.077  14.147   5.345 -0.1823 -0.1974 -0.1395
15364W        W31838   4.178   0.645  16.244 -0.1329 -0.0315  0.2334
15365W        W31839  10.918   1.607  15.250 -0.1809  0.0319  0.1167
15366W        W31840  17.611   7.182   3.573 -0.1068 -0.0330  0.2643
15367W        W31841   0.954   4.926  12.454  0.2362 -0.1202  0.2728
15368W        W31842   7.275   7.886   3.628 -0.0219  0.0501 -0.0509
15369W        W31843   3.434   5.667   2.324 -0.1462  0.0751 -0.1659
15370W        W31844  15.492  11.289   5.067 -0.0544  0.0921 -0.0418
15371W        W31845  14.091  15.759  15.444 -0.0599  0.0441  0.0109
15372W        W31846   2.523   2.252   2.436  0.0640  0.0041  0.3893
15373W        W31847   6.832  12.195  16.544 -0.0415  0.1970 -0.1283
15374W        W31848   2.550   3.608   2.613 -0.0854  0.1853 -0.2349
15375W        W31849   7.672  17.258   3.319 -0.2265  0.1609 -0.1797
15376W        W31850   7.018   0.320   4.627 -0.3676  0.0888  0.0228
15377W        W31851   6.135   5.362   1.276 -0.1708  0.0066 -0.1782
15378W        W31852   9.291   8.199   4.292 -0.0564 -0.2167 -0.0697
15379W        W31853   8.147  14.548   1.196  0.2120  0.2599 -0.0134
15380W        W31854   0.855   2.100   1.649 -0.3169 -0.0416 -0.1956
15381W        W31855   9.973  16.132  15.994  0.0248 -0.0365 -0.0698
15382W        W31856   6.296   6.515   3.808  0.0228  0.1979 -0.0235
15383W        W31857   3.581  16.596   1.154  0.1162 -0.2313  0.0758
15384W        W31858  16.309   6.769   2.181  0.0467  0.3270  0.5361
15385W        W31859   0.281  17.287   3.885  0.1883 -0.1255 -0.1313
15386W        W31860  10.635   7.851   4.296  0.3027 -0.0965  0.1856
15387W        W31861   4.179   7.809   0.328 -0.1195  0.1462 -0.1770
15388W        W31862   1.046   8.606  16.631  0.2628  0.2900  0.0464
15389W        W31863  16.794   7.742  16.149 -0.0333  0.1522  0.0780
15390W        W31864   6.312  16.570   2.415  0.0844 -0.0540  0.1254
15391W        W31865   9.270  17.441   4.292  0.0967 -0.1407  0.2528
15392W        W31866  16.324  16.572   1.071  0.1390  0.2443  0.2644
15393W        W31867  16.277  13.260   2.247  0.1031 -0.1089  0.0986
15394W        W31868  16.810  11.277   2.825  0.1930  0.0419 -0.2354
15395W        W31869   3.336  10.038   5.544 -0.1429 -0.1979 -0.3106
15396W        W31870  14.767   2.803   2.276  0.1554 -0.1119  0.1604
15397W        W31871  11.860   5.911  12.381  0.0882 -0.0695  0.2517
15398W        W31872  14.395  12.060   3.892  0.0863  0.0984  0.3181
15399W        W31873  13.978   9.958  15.063  0.0576 -0.1783 -0.0086
15400W        W31874   3.144   4.404   1.583 -0.4990 -0.0337 -0.3309
15401W        W31875   7.439  15.598   1.421 -0.0527 -0.2822  0.0461
15402W        W31876  17.414   1.900   1.648 -0.1077  0.0068 -0.0553
15403W        W31877  17.766   6.935   5.620 -0.0502 -0.0413 -0.2387
15404W        W31878  16.005   8.135   4.569  0.0460  0.0560  0.2852
15405W        W31879   6.489   5.683   2.142 -0.0862  0.2133  0.0397
15406W        W31880   5.375  13.328   1.818  0.0686 -0.0138 -0.1456
15407W        W31881   0.354  11.634   2.949  0.0505 -0.2127  0.0901
15408W        W31882  13.211  15.444  11.762  0.0608  0.1281 -0.0360
15409W        W31883  13.174   0.003   1.403 -0.0809  0.0676  0.1978
15410W        W31884   6.166  16.103  11.489  0.0342 -0.1250 -0.2860
15411W        W31885   3.962  15.324   0.986 -0.0203 -0.1395 -0.0273
15412W        W31886   5.079  14.886  14.910 -0.0193 -0.1433 -0.2133
15413W        W31887  17.280  13.874   2.083 -0.1039 -0.2791  0.0109
15414W        W31888  10.287  11.255  12.525  0.2838 -0.0281 -0.0476
15415W        W31889  12.655   4.102   4.304 -0.0759 -0.2278  0.1229
15416W        W31890   9.191   1.349  15.251  0.1966  0.1889 -0.0074
15417W        W31891  14.155   3.816   1.175  0.1731 -0.2836 -0.1096
15418W        W31892   9.744   6.771   3.561 -0.3039  0.0846 -0.1572
15419W        W31893   4.282  13.506  16.046 -0.2732  0.0122 -0.1267
15420W        W31894  17.824   7.610   1.517  0.3579 -0.2263 -0.0258
15421W        W31895   3.021   5.504   2.521 -0.0062 -0.1106 -0.3005
15422W        W31896  11.401   9.028   1.470  0.0637 -0.0710  0.2912
15423W        W31897  13.533   0.561  16.816  0.2533  0.0468 -0.2174
15424W        W31898  14.019  15.421  14.157 -0.1624  0.0849  0.0320
15425W        W31899   6.424   9.714   3.234  0.3714  0.0612  0.1518
15426W        W31900  16.096   2.250   1.508  0.1890 -0.2717 -0.0498
15427W        W31901  15.200  14.931   4.803  0.0497  0.0180  0.1106
15428W        W31902   7.219   1.752   2.293 -0.0316  0.0925  0.2188
15429W        W31903   2.772  16.060   0.696 -0.2273  0.3776  0.1613
15430W        W31904   2.238  16.966   0.918 -0.0804 -0.0450 -0.4429
15431W        W31905   0.488  16.987   1.174 -0.1117 -0.0479 -0.1109
15432W        W31906  11.686   4.589  15.131 -0.1863 -0.0738  0.2369
15433W        W31907  12.219  17.330   2.378 -0.0582  0.1445 -0.0963
15434W        W31908   6.194  14.756   0.966 -0.0053 -0.1436  0.1999
15435W        W31909   7.571  15.797   3.796 -0.0845 -0.0147  0.0406
15436W        W31910   3.589  10.659  14.463 -0.1708 -0.2751 -0.0801
15437W        W31911   2.104   1.791   2.264 -0.4120  0.1614  0.1851
15438W        W31912   2.734   2.415  15.880 -0.4074 -0.2578 -0.0187
15439W        W31913  10.187   2.679  15.355 -0.1643 -0.1436 -0.1185
15440W        W31914   6.365   8.223  13.345 -0.1875  0.0769 -0.0889
15441W        W31915  13.420   7.984   3.672  0.2381 -0.1173  0.0703
15442W        W31916  13.640  11.418   4.302  0.2334 -0.0236 -0.0675
15443W        W31917   1.820  13.156  14.905  0.0170  0.2385 -0.1038
15444W        W31918  10.243  11.268   3.412  0.3009 -0.3041 -0.0842
15445W        W31919  10.552  17.219  12.286 -0.0321  0.1833 -0.0248
15446W        W31920   5.064   5.870   4.503  0.0589  0.2383 -0.1294
15447W        W31921  15.023   7.648  13.248 -0.2692 -0.2765 -0.1812
15448W        W31922   4.780  13.269   2.536  0.0106  0.0007 -0.0586
15449W        W31923   6.568   1.331   2.788  0.1216  0.2346 -0.0396
15450W        W31924   1.280  14.139   0.167 -0.0034 -0.0438 -0.0908
15451W        W31925   5.747  13.866  14.337  0.0118  0.0524  0.0425
15452W        W31926   0.262   6.833   2.522  0.2931 -0.3062 -0.0397
15453W        W31927  14.349   7.411  12.388 -0.1485  0.3050 -0.1883
15454W        W31928   9.162   1.402   0.489 -0.3198 -0.1279 -0.0068
15455W        W31929  14.362   0.973  13.013  0.0729 -0.0949  0.0443
15456W        W31930  11.300  13.040   2.801  0.1464  0.1161 -0.0855
15457W        W31931  16.364   4.745  15.578 -0.0308 -0.2426  0.2174
15458W        W31932  13.975   9.065   1.264  0.0427  0.2032  0.1370
15459W        W31933   2.538   1.754   1.945  0.0385  0.1189 -0.1290
15460W        W31934  11.978   6.264   5.556 -0.1760  0.0725  0.1665
15461W        W31935   6.538   7.900  11.648 -0.1037 -0.2865  0.0222
15462W        W31936  13.650  14.711  11.995 -0.1064 -0.3154  0.0019
15463W        W31937  16.515   5.166  13.627  0.2231  0.0318 -0.4713
15464W        W31938  17.779  15.251   0.160  0.1333 -0.0429 -0.2785
15465W        W31939  17.774   5.824  16.648  0.1953 -0.2557  0.2542
15466W        W31940  12.295   6.965  15.978  0.1516 -0.1551 -0.0179
15467W        W31941  15.255  10.990  16.204  0.3535  0.3197 -0.3067
15468W        W31942  15.933  13.722   2.326 -0.0569 -0.1013  0.1481
15469W        W31943   7.984   9.723   2.763 -0.0235  0.1353  0.3005
15470W        W31944   4.091   1.556   4.146  0.0705 -0.0274  0.1064
15471W        W31945   1.423  10.390  15.650  0.1541  0.2080 -0.1525
15472W        W31946   7.567   9.589   3.880 -0.1489  0.3832  0.1595
15473W        W31947  14.531   5.692  13.220 -0.1776 -0.0929 -0.2159
15474W        W31948   3.351   6.695   2.225 -0.1978  0.0352  0.2160
15475W        W31949   5.058   4.487  13.207  0.1439 -0.2237  0.1289
15476W        W31950   6.271   2.689   4.386 -0.1198 -0.3745 -0.0835
15477W        W31951  14.100   7.167   4.009 -0.2769 -0.0868  0.2281
15478W        W31952   2.391  15.889  13.185 -0.0800 -0.0667 -0.0305
15479W        W31953   2.114  12.322  10.836 -0.2538  0.0193  0.3202
15480W        W31954   5.941  17.686  11.369 -0.1562 -0.2048  0.1834
15481W        W31955  15.959  12.481  11.577 -0.0287 -0.1108 -0.2757
15482W        W31956  11.226  15.206  11.794 -0.0315 -0.2756 -0.1155
15483W        W31957   9.195   6.164  16.518 -0.1505  0.1910 -0.1305
15484W        W31958   6.058   6.680  11.802 -0.1949 -0.2726 -0.2695
15485W        W31959   1.354   0.886  16.687  0.0259  0.1082  0.1067
15486W        W31960  15.635  10.516  15.498 -0.0020  0.2665  0.1384
15487W        W31961   2.314   2.749  12.888 -0.1748  0.3589 -0.2510
15488W        W31962   8.009  12.630   3.878 -0.0488  0.1578  0.0609
15489W        W31963  12.167  11.544  16.402  0.1922  0.0870 -0.0864
15490W        W31964   9.469  13.291  11.778 -0.1081  0.0982 -0.4763
15491W        W31965   1.407  10.672  11.136  0.1711  0.0254  0.3086
15492W        W31966  17.492  12.699  10.704 -0.0114 -0.1942 -0.0231
15493W        W31967   5.462  15.674   3.213 -0.1083 -0.2366  0.2007
15494W        W31968  10.739  16.954  11.251 -0.1660 -0.0375 -0.1125
15495W        W31969  11.752  11.443   1.565  0.1866  0.0855  0.2799
15496W        W31970   0.051  17.380   6.002 -0.1463  0.0428 -0.0173
15497W        W31971   7.969   3.313  15.851  0.0546  0.0027  0.1717
15498W        W31972   9.164  10.599   4.410  0.1366  0.2114 -0.0699
15499W        W31973   3.794   0.117   1.332  0.0155  0.0167 -0.0825
15500W        W31974   5.185   7.378   1.646  0.0363  0.0079  0.0460
15501W        W31975   5.418   8.787   0.143 -0.1288 -0.0514  0.2435
15502W        W31976   9.852   5.217   4.218 -0.0708  0.1738  0.0920
15503W        W31977  15.986   0.358   5.612 -0.0365  0.2445 -0.0077
15504W        W31978   4.670   7.344  15.449 -0.0201  0.0059  0.0351
15505W        W31979   6.991   5.375  15.899 -0.3257 -0.0899 -0.0013
15506W        W31980   0.710   8.650   2.704 -0.0333 -0.2908 -0.1792
15507W        W31981  13.439  17.221  15.625  0.2742  0.1180 -0.4242
15508W        W31982   5.683  12.134   2.465  0.0301 -0.2615  0.0075
15509W        W31983  12.706  17.139  11.938 -0.0726 -0.0450  0.3890
15510W        W31984   8.837   1.885  12.961  0.1988 -0.0973 -0.2923
15511W        W31985  11.846   0.730  15.592 -0.0951  0.1792 -0.0041
15512W        W31986   9.513  10.813  11.904  0.0721  0.2662 -0.1865
15513W        W31987  10.360  11.762  11.403  0.0816 -0.0980 -0.0359
15514W        W31988  12.550   9.863  16.686  0.1802 -0.0092 -0.1937
15515W        W31989  11.960   3.017   0.371 -0.0124  0.0470  0.1410
15516W        W31990   0.775   7.630  13.672 -0.0197 -0.2380 -0.0426
15517W        W31991   8.049   9.285   2.295 -0.3432 -0.0298 -0.2099
15518W        W31992  13.962   3.645  13.989 -0.3029  0.1624 -0.3099
15519W        W31993   5.485   0.234  11.755 -0.0221  0.0618 -0.2175
15520W        W31994   9.368  12.005   3.136 -0.2718  0.2601 -0.3329
15521W        W31995   5.487  14.649  15.179 -0.0042 -0.0647 -0.0083
15522W        W31996   5.047  14.826  16.072 -0.0130 -0.2116  0.1766
15523W        W31997   6.480  17.646   5.139 -0.1070 -0.3670 -0.2442
15524W        W31998   7.031   5.807   3.642 -0.2243  0.3569 -0.1945
15525W        W31999  10.387   7.268  14.331  0.2213  0.1981 -0.0118
15526W        W32000   4.480  13.793   0.544 -0.0308  0.0386 -0.0415
15527W        W32001  11.109  13.967  11.889 -0.0297  0.1166  0.2046
15528W        W32002   6.288   5.760   3.172  0.0850 -0.3043  0.1179
15529W        W32003  14.090  15.107  14.980  0.0038  0.0296  0.1070
15530W        W32004   0.927  17.768  12.158 -0.0831 -0.3197 -0.0998
15531W        W32005  12.959  10.812   5.887  0.1746 -0.3249 -0.2917
15532W        W32006   6.832  13.279   0.917  0.3291  0.1825 -0.1683
15533W        W32007   3.536   1.488   5.785  0.1992 -0.1680  0.0002
15534W        W32008   9.383   9.658  14.826  0.3649  0.1999  0.1215
15535W        W32009   6.156   0.622  16.587  0.1250  0.0747 -0.0022
15536W        W32010  14.962   8.874  14.761 -0.2763  0.0246 -0.3295
15537W        W32011   3.138  13.869  13.329  0.1506 -0.1629  0.0518
15538W        W32012   8.692   4.624  12.848  0.1494 -0.1216  0.0139
15539W        W32013   4.055  14.613   5.068 -0.1786 -0.0845  0.3015
15540W        W32014   7.190   0.967   5.051 -0.0963  0.0401 -0.0619
15541W        W32015   3.317  11.872  14.832 -0.1034 -0.1678  0.2205
15542W        W32016  11.327   2.315  14.917 -0.0903 -0.1941 -0.1277
15543W        W32017   0.634   8.379   0.478 -0.2053  0.3848  0.1192
15544W        W32018   4.335  13.137  12.596  0.1067  0.0831  0.1519
15545W        W32019   7.361   7.761  15.628  0.1155 -0.3358 -0.1110
15546W        W32020   8.790  11.723   1.443  0.1969 -0.1631 -0.1652
15547W        W32021   8.567   8.666  16.869  0.3078  0.3083 -0.2362
15548W        W32022   8.216   4.313   1.067 -0.1902 -0.0484  0.0509
15549W        W32023  10.396  14.813   2.749 -0.2206 -0.0983  0.4169
15550W        W32024   1.296   3.568   3.332 -0.0213  0.1878  0.0435
15551W        W32025  10.662   6.649   5.258 -0.0510 -0.2577  0.4120
15552W        W32026  17.413   6.139  11.942  0.0170  0.1820 -0.0346
15553W        W32027  11.310  17.265  11.676 -0.0020 -0.4044 -0.0311
15554W        W32028   8.052   3.675  14.851  0.0585  0.2237 -0.3628
15555W        W32029  13.420  16.460  15.796 -0.2893  0.1449 -0.1163
15556W        W32030   6.639   4.104   2.886 -0.0601  0.1217 -0.1572
15557W        W32031   0.885  12.602  13.166 -0.1377 -0.0053  0.0383
15558W        W32032  16.946  14.754   2.992 -0.1556 -0.1784  0.2014
15559W        W32033   1.709  13.062  15.462  0.0116 -0.0931  0.2778
15560W        W32034  15.463  14.919   4.000  0.0568  0.0911 -0.3119
15561W        W32035  15.630   6.504  14.308  0.0017  0.1794  0.0146
15562W        W32036  11.373  11.091   1.394  0.4289 -0.2211  0.0786
15563W        W32037   4.558  13.393   0.283 -0.0654 -0.1289  0.0578
15564W        W32038  12.038   5.679  14.453  0.0928 -0.0093  0.2805
15565W        W32039  14.920  10.480  12.937 -0.0823 -0.0272 -0.0014
15566W        W32040  12.024   2.659   0.722 -0.1413 -0.1629 -0.1165
15567W        W32041  16.019  14.087   4.786  0.0169 -0.1716 -0.1705
15568W        W32042   3.476   6.234  13.827 -0.1061 -0.1831  0.0573
15569W        W32043  11.677   5.570  12.767  0.1025 -0.2903 -0.0734
15570W        W32044   7.780   3.694   5.392  0.2231 -0.2594  0.0134
15571W        W32045   7.796   8.174   5.440 -0.1566  0.2435 -0.1567
15572W        W32046  11.908   3.402  13.778 -0.2399 -0.1644 -0.0659
15573W        W32047   1.265   8.256  11.652  0.0393 -0.1023  0.1781
15574W        W32048  13.025  16.264   2.263  0.0918 -0.1482  0.4716
15575W        W32049   3.520  14.597  15.416  0.0585 -0.0766 -0.0773
15576W        W32050  12.672  16.967   1.416 -0.0941  0.1981  0.0722
15577W        W32051   0.987  15.624   1.131 -0.0490 -0.1132 -0.0968
15578W        W32052   1.359  12.755   1.644  0.2533 -0.0338  0.2529
15579W        W32053  15.251  12.844   4.324  0.1530  0.4391 -0.2170
15580W        W32054  14.963  16.868   2.571  0.0446  0.1531 -0.0076
15581W        W32055  10.708  17.371  10.986  0.1202 -0.1083 -0.1652
15582W        W32056  12.660   0.121   1.969  0.0087 -0.0593 -0.0668
15583W        W32057   3.792   7.812  13.045  0.1044 -0.2447 -0.1731
15584W        W32058   4.462   2.342   4.451  0.1404 -0.2146 -0.1982
15585W        W32059  12.830  13.716   2.644 -0.3423 -0.0539  0.0118
15586W        W32060  12.052  11.759  13.287  0.1534 -0.0780  0.0199
15587W        W32061  10.095   6.337  13.699 -0.2826  0.1757 -0.0825
15588W        W32062   7.928   3.690   4.223  0.0270  0.0521 -0.1190
15589W        W32063   5.817   3.848  15.901  0.6031 -0.1468 -0.2297
15590W        W32064  13.662   3.117  13.431  0.2441 -0.2849  0.0124
15591W        W32065  12.345  12.463  14.047 -0.0583  0.0702  0.0740
15592W        W32066  10.993   1.059  12.491  0.1289  0.2735  0.1854
15593W        W32067   2.857  13.670  16.030  0.0485  0.0638  0.1567
15594W        W32068   3.949   8.979  16.801  0.0531 -0.2215  0.1678
15595W        W32069   2.255   9.508   4.322 -0.0450 -0.5313 -0.1573
15596W        W32070   4.254  11.302  16.426  0.1052  0.1046 -0.0798
15597W        W32071   2.516  15.487  15.001 -0.0574  0.3067 -0.0995
15598W        W32072   6.908   3.502  13.300 -0.1577 -0.0816 -0.1647
15599W        W32073  13.073  17.332  12.304 -0.1099 -0.1163 -0.2495
15600W        W32074   0.048  12.272  12.479 -0.0846  0.1312 -0.0547
15601W        W32075   4.949  17.271   0.443 -0.0881 -0.3546 -0.2634
15602W        W32076  11.978  12.957   4.510  0.2669 -0.2796 -0.2058
15603W        W32077  12.175   4.131   2.587  0.0976 -0.0116 -0.0261
15604W        W32078   0.509  12.096   0.310 -0.1421 -0.0436  0.3111
15605W        W32079   1.243   6.912  15.267 -0.2261 -0.0339 -0.2110
15606W        W32080   8.881  10.314   4.023  0.0008  0.0115  0.1023
15607W        W32081   1.457  10.554   3.187 -0.1147  0.1973  0.1522
15608W        W32082   4.236   5.465  14.442  0.2421 -0.0065 -0.0496
15609W        W32083   7.448  17.628  11.613 -0.1051  0.0803 -0.3117
15610W        W32084  16.353  16.685  14.515 -0.0839  0.0365 -0.1383
15611W        W32085  14.997  11.439   3.225  0.1797  0.3104 -0.0739
15612W        W32086  16.999   4.902   0.660 -0.0021  0.0479 -0.0679
15613W        W32087  17.062  14.165  11.603  0.0463  0.1680  0.2088
15614W        W32088  16.789  14.925   1.948  0.4328  0.1247  0.2071
15615W        W32089   9.065  16.952   2.976 -0.1256  0.3234  0.0614
15616W        W32090  11.282   5.919  15.317 -0.0804  0.3161 -0.0031
15617W        W32091  17.288   0.478  15.354 -0.2545 -0.2047  0.2311
15618W        W32092  16.958   0.837  16.413 -0.1335 -0.0912 -0.0400
15619W        W32093  14.744   4.400  14.975 -0.0468 -0.0696 -0.0180
15620W        W32094   7.676   9.664   4.376 -0.2366  0.1837  0.3653
15621W        W32095  11.899  16.780  12.758 -0.1117 -0.4697 -0.1410
15622W        W32096   6.969  15.959   1.547 -0.2218  0.2107 -0.0534
15623W        W32097  14.780   3.539  13.177  0.1033  0.0542 -0.1000
15624W        W32098   9.488   0.941   3.815  0.1035 -0.0711 -0.3941
15625W        W32099  13.099  12.783  12.828 -0.1010 -0.1120 -0.1510
15626W        W32100   4.364  17.595  12.664 -0.2480  0.1639  0.1550
15627W        W32101  12.210   2.240   0.451 -0.0125 -0.2025  0.2560
15628W        W32102  10.244  13.756  16.653  0.0342 -0.0099  0.3723
15629W        W32103  16.284  13.065  15.018  0.1755  0.3215  0.0954
15630W        W32104  12.024   1.043  13.868 -0.3350 -0.1915 -0.1071
15631W        W32105  16.721   0.638   2.335  0.2040  0.0002  0.0870
15632W        W32106  12.063   4.950   0.894  0.0053  0.3823  0.2081
15633W        W32107   1.889   6.885   1.240  0.1125 -0.2558 -0.1521
15634W        W32108  17.558   6.293   3.746 -0.5248  0.0649  0.0897
15635W        W32109  16.387  13.475   3.599  0.2269  0.2003  0.1841
15636W        W32110   0.787   8.724  12.446  0.2350  0.0673  0.1380
15637W        W32111   4.773  15.592  14.520  0.0809 -0.0022 -0.1159
15638W        W32112  16.955  11.239   1.001  0.0553  0.2475  0.1172
15639W        W32113   8.833   7.390  13.265  0.0599  0.0920  0.0669
15640W        W32114   4.803  16.969  12.400 -0.0312  0.1578  0.1988
15641W        W32115  10.068   0.321   6.140 -0.0553 -0.2454  0.1820
15642W        W32116   8.227   1.389  10.980  0.2491  0.3213  0.0288
15643W        W32117   0.045   9.590  14.632  0.0601  0.2010 -0.2477
15644W        W32118  11.524   4.863   0.796 -0.0048  0.0819 -0.2002
15645W        W32119  10.095  10.791   4.688  0.1151 -0.0397 -0.2473
15646W        W32120   4.467   7.989  16.874 -0.0632 -0.0341  0.1514
15647W        W32121   1.705   8.114  11.446 -0.1239  0.0955 -0.0042
15648W        W32122   5.701   8.035  14.036 -0.1428  0.1014  0.1868
15649W        W32123  14.980   4.314  11.133  0.3699 -0.0020  0.0294
15650W        W32124   3.749  11.597  12.380  0.2601  0.1723 -0.1233
15651W        W32125   7.560  17.439  15.521 -0.0581  0.3526 -0.2364
15652W        W32126  10.495  17.383   3.591  0.4657  0.0921 -0.1684
15653W        W32127  16.257  15.054  11.404 -0.0627  0.1330 -0.0239
15654W        W32128   4.397  15.523  14.183 -0.1438  0.3330  0.1022
15655W        W32129   5.152   9.326  12.498  0.0586  0.0532 -0.1168
15656W        W32130   4.882   7.428  14.966  0.0631  0.1219 -0.3443
15657W        W32131  17.183   3.407  10.937  0.1845  0.0796 -0.0290
15658W        W32132  15.332   6.462   1.235 -0.2390 -0.0635 -0.1929
15659W        W32133   2.956   1.252  12.338  0.0319 -0.2037 -0.2866
15660W        W32134   3.991  17.820  14.303  0.3413  0.2930  0.1330
15661W        W32135   2.847  10.454  13.980  0.1588 -0.0118  0.0046
15662W        W32136   7.132  15.214  12.430  0.0613  0.0593 -0.0803
15663W        W32137   4.398  10.635  12.905 -0.2331  0.0499  0.0751
15664W        W32138  12.107   0.346   4.649 -0.0426  0.2257 -0.0524
15665W        W32139  11.939   2.878   4.777 -0.1008 -0.1635  0.2180
15666W        W32140   4.133  10.039   0.134  0.3030  0.1179 -0.2559
15667W        W32141  15.449  13.195  15.225  0.3051  0.0114 -0.2526
15668W        W32142  12.844  13.405  11.553  0.1094 -0.2401 -0.0385
15669W        W32143  17.583  16.625   0.852 -0.2366  0.0457  0.0367
15670W        W32144   4.837  13.307  14.199 -0.0112  0.1203  0.0689
15671W        W32145  13.679   8.999  16.358 -0.0823  0.0515  0.0814
15672W        W32146   6.540  11.786  13.971 -0.3267 -0.0826  0.0533
15673W        W32147  11.652   0.551   1.573 -0.1456 -0.0011 -0.1010
15674W        W32148   1.526   1.079   5.476  0.1956  0.0613 -0.0438
15675W        W32149  10.850  12.512   3.355 -0.0754 -0.0677 -0.0647
15676W        W32150   6.489   0.135  12.608  0.1800  0.2545  0.1133
15677W        W32151   6.147   4.692   6.266 -0.0891 -0.0170 -0.0221
15678W        W32152   5.402  17.778  15.958  0.1862 -0.0071 -0.2130
15679W        W32153   4.898   8.542   2.748  0.2075  0.1495 -0.0678
15680W        W32154  13.207   0.570   5.629 -0.1042  0.2529  0.4849
15681W        W32155   6.548   7.504  14.331 -0.0734  0.2575  0.0650
15682W        W32156  17.095  12.481  15.847  0.0729  0.0027 -0.1453
15683W        W32157   4.844   5.011  13.314  0.2741 -0.1060 -0.2744
15684W        W32158   8.423   0.875  13.956  0.0763 -0.0012 -0.3668
15685W        W32159   3.305   3.797  16.676 -0.1686  0.0528 -0.0317
15686W        W32160  14.815  10.136  15.272  0.0258  0.2055 -0.1621
15687W        W32161  14.625   6.034   4.930 -0.0101 -0.2501 -0.0674
15688W        W32162   8.073  13.686  14.472  0.2028 -0.3535 -0.0006
15689W        W32163   0.331   3.226   1.843  0.1661  0.0774 -0.1779
15690W        W32164   9.065   2.448   6.065  0.0093 -0.0071 -0.0593
15691W        W32165   6.762  12.930   1.966 -0.0458  0.3053  0.0275
15692W        W32166  11.592   5.919   0.966  0.1507 -0.2028  0.1251
15693W        W32167   7.546   0.137   5.962  0.1193 -0.1744 -0.1579
15694W        W32168  11.939   9.241   2.089  0.0999 -0.0627 -0.1543
15695W        W32169  15.778  13.539   4.846 -0.2076  0.0872  0.6262
15696W        W32170  17.216   7.469  14.622 -0.0881  0.0731  0.1606
15697W        W32171   1.381   8.957   1.766  0.1163  0.1473  0.0747
15698W        W32172   5.533  11.509   2.205 -0.0454 -0.0467  0.4548
15699W        W32173   0.027   7.208   1.162  0.0711 -0.0130 -0.1745
15700W        W32174   8.629   8.058   3.020  0.3328  0.0969  0.1592
15701W        W32175   7.319   6.472   1.865 -0.2493  0.0616 -0.1228
15702W        W32176   5.358   9.344  14.264 -0.0327 -0.0692  0.1242
15703W        W32177   8.518   1.899  12.500  0.2313  0.0163 -0.1508
15704W        W32178  11.279  13.652   4.403 -0.2859 -0.3897  0.0428
15705W        W32179   7.374  10.536  16.292 -0.0421 -0.1436  0.1284
15706W        W32180  17.666   1.784   2.491  0.1677  0.0042 -0.2207
15707W        W32181   6.036   0.343   4.292  0.2663  0.1742 -0.3383
15708W        W32182   9.678  15.966   1.657  0.0151  0.2405 -0.1083
15709W        W32183   1.584   1.631   2.285  0.1697 -0.2614 -0.2122
15710W        W32184  17.404  13.062   2.896  0.2472 -0.0619  0.1503
15711W        W32185   4.389  11.570   6.060  0.2129 -0.2765 -0.0327
15712W        W32186  14.917   7.556  12.208  0.2631  0.0131  0.0143
15713W        W32187  10.023  17.333  16.763  0.0656  0.0441  0.2573
15714W        W32188  13.922   1.907  11.652 -0.1294 -0.0437 -0.2557
15715W        W32189   7.878  12.584  16.740  0.3377  0.0348 -0.2666
15716W        W32190  13.312   4.506  15.327  0.2481 -0.0613  0.0416
15717W        W32191  15.867   5.922   2.737 -0.2869  0.4724 -0.2076
15718W        W32192  13.968  17.166  12.265  0.3621 -0.0767  0.2211
15719W        W32193  15.112   6.312  13.469  0.0269  0.0729 -0.3438
15720W        W32194   3.145   2.793  14.729  0.1062  0.2401  0.2009
15721W        W32195  15.538  12.309  16.343  0.0575  0.1696 -0.1785
15722W        W32196  10.083   4.390  15.036  0.0722 -0.1781  0.1886
15723W        W32197  12.328  14.169   4.923  0.0602 -0.2106 -0.1173
15724W        W32198   4.232  12.728  15.177 -0.1181  0.0020  0.1801
15725W        W32199  13.156   8.391  14.951  0.1244  0.1356 -0.1655
15726W        W32200   1.548   7.645  14.211 -0.1078  0.0346  0.0367
15727W        W32201  16.502  17.708  14.555  0.0272  0.4388 -0.1700
15728W        W32202   2.165  11.943  13.627  0.0434 -0.0258 -0.1049
15729W        W32203   2.046  11.790   3.925 -0.3980 -0.3768 -0.0758
15730W        W32204   5.864  13.403   5.028  0.0283  0.1419  0.1117
15731W        W32205   7.071   8.515   0.255  0.1013  0.2667  0.0158
15732W        W32206  14.926  17.530   3.603  0.1304 -0.0700 -0.1370
15733W        W32207  10.306  11.434   0.797  0.0199 -0.0891  0.0637
15734W        W32208   1.367  10.585  12.480 -0.1608  0.0944  0.0485
15735W        W32209   6.036   3.677  11.794 -0.0041 -0.2501 -0.1892
15736W        W32210   5.151   3.728  16.627  0.1548 -0.1780  0.1518
15737W        W32211  14.796   5.640  12.549  0.2499  0.0036  0.0601
15738W        W32212   0.143  17.735   2.313 -0.0309  0.2733  0.0509
15739W        W32213   8.868  17.707   2.612  0.0802  0.2137 -0.1242
15740W        W32214   5.182   9.119   0.992 -0.0905 -0.2063 -0.0135
15741W        W32215   5.861   8.400  16.325  0.0981  0.2421 -0.0425
15742W        W32216   5.893   3.302   5.067 -0.2509  0.1523  0.1217
15743W        W32217  11.584  13.368   0.949  0.1216 -0.2150  0.1631
15744W        W32218  11.968   8.519   2.112  0.2022 -0.1176  0.1772
15745W        W32219  13.999   2.927  12.147  0.0821  0.1741 -0.0544
15746W        W32220  17.576  14.568   1.577 -0.0045 -0.2318  0.2437
15747W        W32221   3.795  11.006   4.918 -0.0151 -0.2497 -0.2196
15748W        W32222   0.005  15.910   2.762 -0.0535 -0.1700 -0.0952
15749W        W32223   6.865   1.711   4.079 -0.2274  0.4122  0.1163
15750W        W32224  14.512   5.309   0.050  0.3271  0.1132 -0.0713
15751W        W32225   9.209  17.732   0.193  0.1466  0.3058 -0.0019
15752W        W32226  10.738  14.930  12.026  0.0070 -0.0417 -0.2546
15753W        W32227  17.817  15.806  12.936 -0.0664  0.1956 -0.4189
15754W        W32228   8.260   0.702   2.778 -0.2575  0.0998 -0.1712
15755W        W32229   0.962   6.080  11.903  0.1237  0.3263  0.1331
15756W        W32230  10.474  14.125   1.389 -0.0893  0.3635 -0.0834
15757W        W32231   7.614  15.971  13.886 -0.0492  0.0160 -0.5214
15758W        W32232  14.179   9.436   2.166 -0.0962 -0.1127 -0.0233
15759W        W32233  12.038   3.414   0.737 -0.0566  0.0159  0.0656
15760W        W32234  13.659   6.094  16.470 -0.0736 -0.0492  0.1651
15761W        W32235   7.676   2.829   1.337  0.2234  0.0420  0.1933
15762W        W32236   1.754  12.053  14.557  0.0421  0.2009  0.0056
15763W        W32237  15.392   9.563  15.986  0.2288 -0.1069  0.0306
15764W        W32238   3.736  15.884  12.759 -0.0624 -0.0667  0.3920
15765W        W32239   1.905   2.860  14.179 -0.0695  0.4366  0.3916
15766W        W32240  15.565  12.440  13.595  0.0062  0.3229  0.0782
15767W        W32241  11.364  13.326  15.446  0.3217 -0.0046  0.1749
15768W        W32242  15.201  13.582  11.588 -0.0223  0.2375 -0.3278
15769W        W32243  15.163   1.404   5.326  0.1434  0.1134  0.0576
15770W        W32244   5.412   4.743  16.638 -0.1945  0.1357 -0.1810
15771W        W32245  12.924  12.455   1.769 -0.1346  0.0734 -0.1761
15772W        W32246  15.218   9.119  16.292  0.0817 -0.0841 -0.4004
15773W        W32247  11.920  14.831  15.608 -0.1113  0.1794 -0.4069
15774W        W32248  17.603   3.095   2.521  0.0912 -0.0585 -0.1571
15775W        W32249  15.536   8.474   4.491 -0.1310  0.1746 -0.1517
15776W        W32250   1.215   4.750  15.597 -0.1265  0.0412  0.0350
15777W        W32251  11.098   6.105  13.060  0.0010  0.0905 -0.0249
15778W        W32252  16.888  17.768   0.844 -0.3794 -0.2396 -0.0783
15779W        W32253   1.694  16.290   4.778 -0.1926  0.1261 -0.1184
15780W        W32254  14.482  17.667  12.907 -0.4606  0.2128 -0.0211
15781W        W32255  13.238   5.854  12.783 -0.1372  0.2647  0.0540
15782W        W32256   0.627  13.928   1.248 -0.2152  0.4668 -0.0796
15783W        W32257   3.681   3.318   2.541 -0.0627 -0.2725  0.0586
15784W        W32258   4.410  11.761   2.160 -0.3876 -0.1011  0.0889
15785W        W32259   1.771  10.328  12.361  0.1454 -0.2030  0.0252
15786W        W32260   1.050   1.207  16.910  0.0359 -0.1119 -0.0916
15787W        W32261   0.894   3.769   3.824 -0.1113 -0.2028  0.1550
15788W        W32262  11.450  13.362   0.045  0.0538 -0.2871 -0.0528
15789W        W32263   1.831   8.473  15.564  0.0716  0.0693 -0.1669
15790W        W32264   8.880  15.541   3.699 -0.0800 -0.0776 -0.0394
15791W        W32265  13.981  12.357   0.754 -0.4039  0.0864 -0.1607
15792W        W32266  12.352  13.278   3.700  0.0783 -0.1727  0.1268
15793W        W32267  12.705  10.097   3.441 -0.0202 -0.0807  0.0471
15794W        W32268   1.315   8.723  13.294  0.4828  0.1914  0.1257
15795W        W32269   1.279  14.127   2.197 -0.1503  0.0403 -0.2377
15796W        W32270   7.601   5.968  15.103  0.1004 -0.1446 -0.0233
15797W        W32271  15.624   4.949   5.919 -0.4835 -0.2995  0.0663
15798W        W32272  13.826   4.728   1.678  0.0768 -0.0101 -0.1032
15799W        W32273  15.009   4.135   6.132 -0.1037  0.2555 -0.1077
15800W        W32274   3.415   9.409   0.653 -0.0168 -0.1318  0.2378
15801W        W32275   0.083   1.246   1.708 -0.0425 -0.0447  0.3030
15802W        W32276   9.013   0.714   1.303  0.0748 -0.0393 -0.2076
15803W        W32277   0.183  14.706  15.171 -0.0491 -0.2400  0.1947
15804W        W32278   1.376  13.600   4.672  0.0476  0.0317  0.1364
15805W        W32279  10.452  10.218  15.528 -0.0115 -0.1466  0.0408
15806W        W32280   8.856   1.091  12.408 -0.0812 -0.1688 -0.1019
15807W        W32281  11.580  12.598  12.187  0.2127  0.1065 -0.2296
15808W        W32282   8.432  16.690   1.056  0.1535  0.2365 -0.0127
15809W        W32283  15.009   3.039  13.458 -0.0798  0.3425 -0.2965
15810W        W32284   5.553   5.202  15.737  0.0843  0.2863 -0.1177
15811W        W32285   3.667   1.074   1.354  0.0316 -0.0546 -0.0326
15812W        W32286   5.751  13.244  15.040 -0.1078  0.0364  0.4751
15813W        W32287  14.786   7.947   2.557 -0.0322  0.0670  0.1435
15814W        W32288  16.484  15.578  12.597 -0.0282  0.0296  0.0284
15815W        W32289  11.861  16.616  12.181 -0.1138  0.1444  0.1237
15816W        W32290   1.646   6.504   4.772  0.2340 -0.0054  0.1222
15817W        W32291   2.444   2.306   4.859 -0.3661  0.2063  0.1860
15818W        W32292  10.275  15.644   2.556 -0.1877  0.0651 -0.0344
15819W        W32293  17.517  13.670   0.236  0.1324 -0.2404  0.1594
15820W        W32294   3.671  13.932   4.869 -0.0997 -0.0589 -0.0755
15821W        W32295   8.729  11.753   5.324 -0.0566  0.0131  0.1814
15822W        W32296  17.740  12.991   1.904  0.1031 -0.0003 -0.3758
15823W        W32297  17.412  14.581   0.183 -0.2699  0.2152 -0.4454
15824W        W32298   1.174   2.856   2.058  0.0763  0.2247  0.1446
15825W        W32299   2.065  15.125   5.174 -0.0419 -0.0477  0.2298
15826W        W32300  11.952  12.340   2.704 -0.1773  0.2457  0.0880
15827W        W32301   1.249  17.414  12.770 -0.0250  0.2371  0.0723
15828W        W32302   6.785   7.695   2.600  0.1861 -0.0097  0.0156
15829W        W32303   6.210   1.056   1.715  0.1466 -0.1505 -0.0630
15830W        W32304   3.928  17.064   5.247  0.2178 -0.1143 -0.1399
15831W        W32305   0.987  14.200  14.872 -0.1195  0.0175 -0.2272
15832W        W32306   6.681  16.368  15.714 -0.1730 -0.1276 -0.0854
15833W        W32307   0.658  11.559   0.425  0.3736 -0.2071 -0.0861
15834W        W32308   5.520   4.039   5.054 -0.1030  0.2318  0.0072
15835W        W32309  12.960  14.474   4.883  0.1421  0.1960  0.0198
15836W        W32310  16.110   8.259  14.042  0.1228  0.3589 -0.0883
15837W        W32311   5.676  17.774   1.164 -0.1114  0.2071 -0.0020
15838W        W32312   2.167  10.332  11.084 -0.1484  0.1729  0.2335
15839W        W32313   5.905   0.926   4.849  0.0013 -0.2544  0.0362
15840W        W32314   2.538   6.389  16.402 -0.0433  0.0064 -0.4566
15841W        W32315  15.098  16.235  15.872 -0.2774  0.1084 -0.1892
15842W        W32316  15.719   7.413  15.523 -0.1650  0.2786 -0.1618
15843W        W32317  10.993  12.058   4.498  0.0496  0.0610  0.0631
15844W        W32318  14.575  10.040  14.079 -0.1030  0.3086 -0.3185
15845W        W32319   7.367   5.899   4.492 -0.0654 -0.0219  0.0549
15846W        W32320   9.573   4.260  14.208 -0.1148 -0.1831 -0.0375
15847W        W32321   7.515   5.003  12.570  0.1008 -0.2432  0.0962
15848W        W32322   0.337  17.066   4.343 -0.4562 -0.1306  0.0275
15849W        W32323   8.713  14.072  11.097 -0.1890 -0.1393  0.1142
15850W        W32324   1.168   3.142  12.801  0.0020  0.0840 -0.0703
15851W        W32325   5.331  15.197   3.351  0.0134  0.1247  0.0221
15852W        W32326  15.428   6.663   2.255 -0.1638  0.1083 -0.0034
15853W        W32327  15.771  11.170   6.089  0.1822 -0.2912  0.1624
15854W        W32328   9.821  15.958  12.933  0.1146  0.1288 -0.1058
15855W        W32329  16.284   6.449   4.231  0.1214 -0.1594  0.1681
15856W        W32330   2.574   6.641  14.571  0.0496  0.2423 -0.0998
15857W        W32331   0.192  10.059   1.277 -0.1776  0.2926 -0.0322
15858W        W32332   6.419   4.592   4.399  0.1555  0.2566 -0.1621
15859W        W32333  13.576   3.912  16.418  0.1351  0.6588 -0.2396
15860W        W32334   1.579  12.833   2.869 -0.2353  0.0644  0.2082
15861W        W32335   0.778   1.871  10.962  0.0766  0.2455 -0.0585
15862W        W32336   0.523   8.941   1.229  0.3271 -0.1526 -0.0148
15863W        W32337  16.982   4.033  13.908 -0.1595 -0.2797 -0.2612
15864W        W32338  15.413  14.710  12.825 -0.2331  0.1219 -0.1408
15865W        W32339   1.441   0.435   0.782 -0.0471  0.0204 -0.2205
15866W        W32340   3.038   7.679   0.927  0.0966 -0.0901 -0.1858
15867W        W32341  15.721   7.796  14.750 -0.0994  0.0919 -0.2105
15868W        W32342  17.478  16.619   3.916  0.0084  0.0296  0.0936
15869W        W32343  14.065   1.287  12.792  0.1283  0.1932  0.3367
15870W        W32344   2.677   7.244  14.475 -0.0124 -0.2539  0.2404
15871W        W32345   7.847   1.819   1.908 -0.1451 -0.0663  0.0842
15872W        W32346  12.409  14.875  12.909  0.1079  0.0076 -0.4645
15873W        W32347  13.043   6.999   1.765  0.0527  0.1805  0.0867
15874W        W32348  11.973   5.666  13.250  0.1160  0.0714  0.6432
15875W        W32349   8.971  13.105   5.156 -0.1729 -0.3016 -0.1630
15876W        W32350  12.812  13.240   5.411 -0.2298  0.1738 -0.0882
15877W        W32351   6.963  10.149  12.731 -0.1990  0.0751 -0.2343
15878W        W32352  14.281  17.185   2.243 -0.3319 -0.2722  0.4261
15879W        W32353   2.128   2.902   3.133  0.0492 -0.0921 -0.0093
15880W        W32354   4.785  17.732   4.181  0.2415 -0.1382  0.0576
15881W        W32355  13.024  15.557  13.200 -0.0234  0.1732 -0.1664
15882W        W32356   4.754   5.115   1.917  0.1267 -0.0762  0.1698
15883W        W32357   1.735   4.501  14.110 -0.0884  0.1878 -0.0057
15884W        W32358  13.352   6.130   4.534 -0.2834  0.0234 -0.2364
15885W        W32359  16.830   0.171   2.203  0.0844 -0.0050  0.0753
15886W        W32360   1.686   1.422   5.824  0.0426  0.1411 -0.1457
15887W        W32361  13.949   4.581  13.652  0.3845 -0.1242 -0.1702
15888W        W32362   4.904  11.296  14.321  0.2759  0.0425 -0.4025
15889W        W32363   0.908  15.625   0.135 -0.1077  0.0760  0.1256
15890W        W32364  10.306  13.064  13.399 -0.0487  0.2148 -0.0366
15891W        W32365  10.744  14.916   2.390 -0.1145  0.0285  0.1003
15892W        W32366   9.032  13.185   6.051 -0.0698  0.4471 -0.3301
15893W        W32367   5.566  12.143   5.033 -0.3104  0.1871 -0.0495
15894W        W32368  15.576   1.877   2.619  0.0163 -0.0950  0.1079
15895W        W32369  15.520  16.666   3.424 -0.3066  0.1503  0.2472
15896W        W32370  13.579   0.820   3.817 -0.0546 -0.0793  0.1061
15897W        W32371   3.130   7.040   3.492  0.0977  0.1109  0.3239
15898W        W32372  10.438  16.774  15.516 -0.3606  0.2107  0.0169
15899W        W32373   8.456   3.285  15.131  0.0943 -0.1052 -0.1099
15900W        W32374  10.989  11.829   5.838 -0.4812 -0.0123  0.1218
15901W        W32375   9.211   1.757   2.302 -0.2133 -0.1292 -0.1837
15902W        W32376   3.088   4.835   5.539 -0.2526  0.0930  0.1348
15903W        W32377  15.257  11.788   0.854 -0.2367  0.5066 -0.0292
15904W        W32378   3.674  15.785   3.770 -0.0855 -0.0790 -0.6743
15905W        W32379   1.102  17.081   0.758 -0.0437 -0.1130  0.0420
15906W        W32380  12.186   6.392   2.309  0.3869  0.4439 -0.1316
15907W        W32381   1.921   6.486   2.191 -0.0054  0.1420 -0.1530
15908W        W32382   1.658   7.012   3.543  0.1454 -0.0796 -0.4013
15909W        W32383  12.904   6.898   2.215 -0.0737  0.0916 -0.1432
15910W        W32384  15.501  13.003   5.187 -0.0043 -0.2983  0.0589
15911W        W32385   6.010  15.645   0.434  0.2504 -0.0309 -0.1417
15912W        W32386   4.864   1.961  16.013 -0.0651 -0.0532 -0.0243
15913W        W32387   6.248   2.008  12.050  0.0521 -0.0374 -0.0634
15914W        W32388  17.341   6.832  16.805 -0.0957 -0.1251 -0.0657
15915W        W32389  14.946   3.602  16.133 -0.0399 -0.3267 -0.1594
15916W        W32390  14.439   3.278  12.909  0.1293 -0.0180 -0.0221
15917W        W32391  12.879  16.720  11.716 -0.0292  0.0360  0.0999
15918W        W32392   3.726   5.817   4.629  0.0227  0.0387 -0.1535
15919W        W32393  16.450   9.279  12.817 -0.2261 -0.4012 -0.0337
15920W        W32394  13.741  16.207  11.840 -0.0927 -0.0952  0.0126
15921W        W32395  16.895  12.269  14.868  0.1392  0.0374  0.1115
15922W        W32396  10.254   4.478   0.701 -0.0179 -0.0564 -0.1456
15923W        W32397   4.914   4.233  14.228 -0.0720 -0.2507  0.1715
15924W        W32398   1.508  13.942   5.039 -0.1322  0.2891  0.1374
15925W        W32399   1.404   4.863  13.674 -0.2563 -0.1090 -0.2805
15926W        W32400   3.899  10.339  16.308 -0.3091  0.0683 -0.1535
15927W        W32401   7.783  12.564  14.040  0.1869 -0.3190 -0.2629
15928W        W32402  10.349   1.857  15.790  0.1743 -0.0763  0.1836
15929W        W32403   7.073  13.193   2.283 -0.1579  0.1597  0.2903
15930W        W32404  12.695  14.202   1.038  0.2297  0.0812  0.0823
15931W        W32405  15.205  15.381   0.418  0.2211 -0.0571  0.1157
15932W        W32406   6.441   0.831  14.129  0.4082 -0.1704 -0.1183
15933W        W32407   0.057  10.439  12.703 -0.1088 -0.1219 -0.0811
15934W        W32408  13.954   9.655  16.881 -0.2787  0.0114  0.2479
15935W        W32409   8.965   4.747  12.344  0.3294 -0.0902  0.0339
15936W        W32410   0.118   1.056  16.457  0.1502  0.1875 -0.1269
15937W        W32411   7.830   4.458   4.705 -0.1475  0.0591  0.0120
15938W        W32412  10.637  13.835  12.802  0.0776 -0.0293  0.1702
15939W        W32413  10.795  11.853   5.311 -0.1723  0.0150  0.2018
15940W        W32414  15.356  15.310   5.712 -0.1013  0.0097  0.2034
15941W        W32415   0.831  10.635  13.706  0.0130  0.1766  0.0027
15942W        W32416  13.504  16.371   2.457 -0.1744  0.0684 -0.3614
15943W        W32417  10.823  16.564  12.083 -0.1174  0.1563 -0.0228
15944W        W32418  15.306   8.885   5.088  0.2312  0.3251 -0.3012
15945W        W32419  17.525  16.295   0.022 -0.1020  0.3311  0.1553
15946W        W32420   8.190   6.059  15.642  0.1562  0.1006  0.0719
15947W        W32421   9.386   2.315   3.243  0.2865  0.0152  0.1859
15948W        W32422   0.255   5.858   4.530 -0.3680 -0.3298  0.0991
15949W        W32423  17.804   4.599   0.164 -0.0644  0.2347 -0.0980
15950W        W32424  13.737   4.327  16.749 -0.2611  0.2898  0.3516
15951W        W32425   7.651  12.075  15.439 -0.0729 -0.1188 -0.2632
15952W        W32426   5.650  16.087  15.522 -0.2845 -0.0007 -0.0679
15953W        W32427  13.136  17.184  13.878 -0.0717  0.2151 -0.1240
15954W        W32428  10.040  16.360  11.350 -0.2012  0.2734 -0.0672
15955W        W32429  10.566   4.869  16.831  0.0777 -0.3693  0.2246
15956W        W32430  10.938   1.198  12.981  0.1428 -0.0397 -0.3347
15957W        W32431   3.481   8.415   4.972 -0.1759  0.0307 -0.0838
15958W        W32432   3.093   6.399  14.416 -0.0936  0.4317  0.3888
15959W        W32433  13.805  12.024  14.019 -0.1018 -0.2852 -0.0449
15960W        W32434  15.040   8.016   3.410  0.0425 -0.0385 -0.4563
15961W        W32435  12.072  15.132  13.951  0.0249 -0.1172  0.1051
15962W        W32436  12.797   1.351   0.864 -0.1361 -0.2011  0.2140
15963W        W32437   3.134  15.959   1.840  0.1080 -0.0464 -0.2268
15964W        W32438  17.317  14.507  13.087 -0.0667 -0.1491 -0.0665
15965W        W32439  10.368  15.661  16.453 -0.0062  0.1179 -0.2318
15966W        W32440   4.644   8.810  11.608 -0.0121 -0.2835 -0.2483
15967W        W32441   5.343  15.659  16.770 -0.1065 -0.0418  0.3443
15968W        W32442  12.220  17.598   1.850  0.1422 -0.2359  0.2264
15969W        W32443   1.244   4.468   0.429 -0.1582  0.2806  0.0099
15970W        W32444   0.592  13.863   2.817  0.0371  0.2362 -0.0256
15971W        W32445   8.807  16.962  11.852 -0.1664  0.0108 -0.0912
15972W        W32446   5.106  10.327  14.634  0.3461 -0.1034 -0.0920
15973W        W32447  14.128  13.628   4.187  0.0570  0.0151 -0.0767
15974W        W32448  13.736   6.877  12.013 -0.3595 -0.3371  0.0019
15975W        W32449  11.419   4.686  13.311 -0.0081  0.1290 -0.0833
15976W        W32450   8.403   0.991   5.682  0.2031 -0.0851 -0.3123
15977W        W32451  16.763  17.515   5.905 -0.2397 -0.0184  0.1303
15978W        W32452   8.814   7.617  15.643  0.0222 -0.0937  0.0788
15979W        W32453   7.645   3.328   3.957  0.0811 -0.0030  0.2910
15980W        W32454   9.519  16.879  13.196  0.1917 -0.3993  0.1019
15981W        W32455   3.293   1.953  16.497 -0.1810 -0.1622  0.2126
15982W        W32456  17.689   5.461   4.825 -0.0375 -0.2602  0.1765
15983W        W32457   7.836   3.938  12.016 -0.0407  0.0052 -0.0038
15984W        W32458  15.923   3.987   1.433 -0.0061 -0.0553  0.0890
15985W        W32459   0.068   1.079   6.016 -0.0487  0.0672 -0.1765
15986W        W32460   7.532  10.215   5.819  0.1500 -0.1269 -0.0031
15987W        W32461   1.545   9.720   5.181 -0.0304  0.0153 -0.0036
15988W        W32462   8.577   6.445   5.111  0.1613 -0.1775  0.0507
15989W        W32463   1.050  10.838   3.051 -0.1455 -0.0508 -0.2212
15990W        W32464  16.036   4.616   5.372 -0.1943  0.1097 -0.1100
15991W        W32465   9.403  11.688   0.236 -0.0180  0.1097  0.2020
15992W        W32466   2.879  10.096   5.077 -0.2088  0.2004  0.2152
15993W        W32467   7.636   6.163  15.583  0.1224 -0.3491  0.0598
15994W        W32468  12.196   1.081  12.200 -0.0160  0.2872  0.1318
15995W        W32469  14.515  14.886   5.602  0.1689 -0.0343  0.1053
15996W        W32470   8.619   8.262   3.588  0.1323  0.0134  0.0908
15997W        W32471   9.612   5.159  14.599 -0.1055 -0.2749 -0.2711
15998W        W32472   7.985  13.436   4.281  0.3751  0.2989  0.2052
15999W        W32473  16.237  15.681  12.100 -0.1993 -0.2489 -0.0682
16000W        W32474   5.679   7.747  12.107  0.3826  0.0482 -0.3256
16001W        W32475  13.437  15.769   5.909 -0.2501  0.2533  0.0801
16002W        W32476  14.021  15.046  12.235 -0.0401  0.0508 -0.2680
16003W        W32477  10.095  16.057   4.437 -0.0756 -0.1693  0.2465
16004W        W32478   5.643   2.489   2.851 -0.1559  0.0213  0.0644
16005W        W32479  13.796  10.553   3.206  0.1676 -0.1250 -0.1517
16006W        W32480  12.980   7.115  12.037 -0.0140  0.2022  0.1479
16007W        W32481   0.846  16.592  12.952  0.1239  0.2305 -0.1431
16008W        W32482  15.119   6.699  12.494 -0.0837 -0.0365  0.0684
16009W        W32483  12.564  12.827  12.315 -0.1187  0.1869 -0.2275
16010W        W32484   9.563  12.399   4.892  0.0280 -0.0125  0.1736
16011W        W32485   5.769   2.869  15.890  0.0461 -0.0766  0.0140
16012W        W32486   4.988  17.828  11.889 -0.1385  0.0617 -0.2484
16013W        W32487  16.737   9.908   0.941 -0.2064  0.1557  0.0220
16014W        W32488   8.919  15.692  10.920  0.1239  0.3255 -0.1523
16015W        W32489   6.596  13.558   3.886  0.0524 -0.0892 -0.2169
16016W        W32490   1.188   0.429  16.890 -0.1540 -0.1206 -0.2485
16017W        W32491   4.941  10.234   4.775 -0.1249 -0.1216 -0.0534
16018W        W32492  17.142  13.487  12.855 -0.0927 -0.1726  0.1548
16019W        W32493   5.272  13.495   5.046  0.1639 -0.0937 -0.1255
16020W        W32494   6.056  14.832   5.913 -0.1212  0.0537 -0.0954
16021W        W32495  10.549  14.780  14.987  0.0743  0.1018  0.0706
16022W        W32496  17.391  13.371   3.910 -0.0653  0.0817 -0.3288
16023W        W32497  11.256   7.999   1.492 -0.1492 -0.0187  0.3150
16024W        W32498   4.691   0.060   4.693 -0.1949  0.0552  0.0319
16025W        W32499   9.860   2.923   1.351  0.2085  0.1512  0.1770
16026W        W32500   3.324  16.034  11.271 -0.6293 -0.0648 -0.0867
16027W        W32501   8.015   7.508  13.526 -0.3296  0.1512  0.0164
16028W        W32502  14.409   0.141   5.412  0.0332  0.1257  0.0733
16029W        W32503   0.193  11.817  14.394 -0.1747  0.1771 -0.0705
16030W        W32504   4.332   4.612   4.500  0.2825 -0.0668 -0.2238
16031W        W32505   3.777   2.125  11.901  0.4369  0.0885  0.0695
16032W        W32506  14.257  12.552   2.635 -0.0873 -0.1728 -0.0016
16033W        W32507  13.737   3.610   0.995  0.0277  0.0940  0.0111
16034W        W32508  12.802  17.231  12.681 -0.2446 -0.0518 -0.3126
16035W        W32509  17.744   1.493  12.145 -0.3464  0.3493 -0.1566
16036W        W32510   2.385   4.042  12.966  0.0877  0.2294  0.0896
16037W        W32511   7.277  17.059   1.828  0.1954 -0.1623 -0.1518
16038W        W32512   9.154   3.175   4.825 -0.0414  0.0132 -0.0734
16039W        W32513   1.474   7.205   1.270 -0.4142  0.0280 -0.0602
16040W        W32514   9.894   1.031   1.388  0.1671 -0.2442  0.3642
16041W        W32515   6.067  16.762  15.915 -0.0827  0.2020  0.0121
16042W        W32516   8.481  11.159   2.077 -0.4273 -0.1300  0.2637
16043W        W32517   7.669  13.272   5.578 -0.0970 -0.0282  0.3288
16044W        W32518   1.160  17.357  12.271 -0.1153 -0.1511  0.1729
16045W        W32519   5.087   7.583  13.440  0.0818  0.0662 -0.3588
16046W        W32520   2.063  17.311  13.568 -0.0872  0.0234 -0.2106
16047W        W32521   3.582   4.651   2.490  0.1098  0.2045 -0.1636
16048W        W32522  12.466  10.126  15.448  0.0367 -0.2148 -0.3321
16049W        W32523   2.328   4.395   2.872  0.4958 -0.1376 -0.0787
16050W        W32524  11.688  11.446  16.089  0.1140  0.0166 -0.0118
16051W        W32525   5.842   1.274   4.083  0.1134  0.0534  0.0162
16052W        W32526   1.148  11.246  15.724 -0.1017 -0.0670 -0.1336
16053W        W32527   9.156   6.066   2.685 -0.0434  0.1526  0.4454
16054W        W32528  16.569   0.617   2.827  0.0048  0.4513  0.2576
16055W        W32529   0.313  15.392  13.149 -0.0152  0.0874  0.1329
16056W        W32530   2.344   0.838  14.105  0.1192  0.1144 -0.1535
16057W        W32531  11.353  15.089  13.101 -0.1159 -0.3204  0.1595
16058W        W32532  10.234   3.157  14.675 -0.0305 -0.1617  0.2307
16059W        W32533  17.439  10.989   4.617  0.0472 -0.0421 -0.1741
16060W        W32534   5.269   0.248  12.282 -0.1101  0.2097  0.1414
16061W        W32535   5.515   6.568   4.858 -0.3218 -0.0321 -0.2093
16062W        W32536  15.091  10.072   0.396  0.0201 -0.1183  0.0814
16063W        W32537   6.815   6.596  16.021  0.2520  0.0271 -0.0831
16064W        W32538   3.493  14.456  11.544  0.0789  0.1791 -0.0880
16065W        W32539   0.467   6.978   0.952  0.1619 -0.2490 -0.1589
16066W        W32540   8.854  12.521  14.890  0.0097 -0.0496 -0.4365
16067W        W32541   4.735   7.971  13.541  0.0695 -0.2514 -0.2849
16068W        W32542  15.692   2.281  13.495 -0.1106 -0.0615 -0.2005
16069W        W32543   5.717  16.723  15.538 -0.0396  0.1415  0.1534
16070W        W32544  12.232   2.125   1.450  0.2165 -0.1967  0.0650
16071W        W32545   9.024   5.098  16.720  0.0030 -0.3292 -0.3583
16072W        W32546   8.335   7.504  14.460 -0.0352  0.0684 -0.1456
16073W        W32547   1.100   0.453  11.071 -0.1776  0.4222 -0.0401
16074W        W32548  11.583  13.618   2.015 -0.3444 -0.2378 -0.0786
16075W        W32549   4.543   8.631  15.875  0.0318  0.3186  0.2033
16076W        W32550  14.788  13.459  11.825 -0.0313 -0.1238 -0.0770
16077W        W32551   3.749  13.885  14.713 -0.1084  0.0862  0.0999
16078W        W32552  14.822   0.046  16.849 -0.2466  0.0570 -0.4102
16079W        W32553   2.132  12.860  15.300  0.1102 -0.1351  0.2278
16080W        W32554   2.263   2.447   3.010 -0.1631  0.1458  0.1612
16081W        W32555  16.100   3.457  13.914 -0.0587  0.1298  0.0451
16082W        W32556  10.238   5.380  13.962  0.1470  0.1816  0.0347
16083W        W32557  10.349  16.678   5.098  0.1554 -0.0673  0.1981
16084W        W32558   8.802   4.935  11.888 -0.1125 -0.1409 -0.2434
16085W        W32559  16.394  11.976   1.551 -0.1628  0.1505 -0.1752
16086W        W32560   7.901   2.828   5.867  0.0572 -0.2960 -0.0127
16087W        W32561  15.871   9.683   0.892  0.2406  0.5136 -0.2828
16088W        W32562   5.786   9.987  15.211  0.2603 -0.2240  0.2917
16089W        W32563  14.855  11.415  13.182  0.1050  0.1848  0.1160
16090W        W32564   0.710   8.253  12.336 -0.0237 -0.0676 -0.2589
16091W        W32565   3.866   0.246  16.603 -0.2140  0.3116 -0.3842
16092W        W32566   8.215   0.061   4.845 -0.1249  0.0118 -0.0767
16093W        W32567  11.658   9.091   2.920  0.0344  0.0107 -0.0077
16094W        W32568   6.694  12.728  15.868 -0.1933 -0.4150 -0.2431
16095W        W32569   4.482   4.286   1.353 -0.1844  0.0321 -0.1109
16096W        W32570  15.251   2.518  16.483 -0.1122  0.0759  0.2192
16097W        W32571  14.423   4.302   5.163  0.3009  0.4081 -0.0328
16098W        W32572   9.273  12.750   2.127 -0.2831  0.3925  0.1029
16099W        W32573   7.746  13.811  12.555  0.0750  0.0068  0.2874
16100W        W32574   2.899  16.712   3.013  0.0567 -0.1020  0.3302
16101W        W32575  15.452   4.989   1.248 -0.0937 -0.3098 -0.1548
16102W        W32576  17.504  16.162   5.622  0.2119 -0.1869 -0.0847
16103W        W32577   7.277  15.308   2.741 -0.0704 -0.2589 -0.0512
16104W        W32578  14.465   4.853  16.679  0.1354  0.1992  0.4039
16105W        W32579  16.246  12.346   3.510 -0.0261 -0.3176  0.3194
16106W        W32580  11.343  11.355   4.945 -0.1218 -0.0876  0.2616
16107W        W32581  11.452   7.894   3.301 -0.1390  0.0360  0.1300
16108W        W32582  17.566  14.091  15.681  0.0128  0.2920 -0.2312
16109W        W32583  16.915   9.257   0.949 -0.1803 -0.2438 -0.1354
16110W        W32584   4.455   7.897   1.595  0.2123  0.2418 -0.0829
16111W        W32585   4.203   7.148  15.235 -0.1587 -0.1450  0.3022
16112W        W32586  13.392   7.188   1.391  0.2367  0.0781 -0.0960
16113W        W32587   2.778  17.396  16.344  0.0036  0.1864  0.0948
16114W        W32588   9.271   8.086  12.820 -0.1795 -0.1213 -0.0372
16115W        W32589   5.772  13.819  16.819 -0.0631  0.4209 -0.2875
16116W        W32590  14.102   3.104  16.070  0.0455 -0.1003  0.3770
16117W        W32591  15.665  13.897   3.278  0.1907  0.0789 -0.0688
16118W        W32592   9.691  13.214   4.528  0.0673  0.1639 -0.2251
16119W        W32593   4.415   4.375   1.927  0.1745  0.1919  0.0574
16120W        W32594   4.933  13.926  15.245 -0.2510 -0.2266  0.3259
16121W        W32595  12.195  15.611  14.191 -0.1182 -0.0369  0.0501
16122W        W32596   1.616   8.604   2.978 -0.3356 -0.0596  0.2043
16123W        W32597   3.695   2.418   5.509 -0.2230 -0.0185 -0.2623
16124W        W32598  16.337  16.360   3.074  0.0345  0.0455  0.0155
16125W        W32599   2.605   9.096  13.910 -0.2193 -0.2337  0.0909
16126W        W32600  15.856   7.333  14.547 -0.2550 -0.0314  0.1047
16127W        W32601  17.047   4.637   5.701  0.0309  0.0660  0.2413
16128W        W32602   9.812  11.774   3.342 -0.0017  0.1287 -0.0203
16129W        W32603   8.629   8.431  15.359  0.0616 -0.0920 -0.0529
16130W        W32604  12.920   4.612   4.261  0.2538  0.0153  0.0610
16131W        W32605   6.377  13.577  15.650  0.1788  0.4168 -0.1781
16132W        W32606  12.484  17.678  12.799 -0.1653  0.4800  0.2596
16133W        W32607   2.253  14.722  13.907  0.1018  0.0727 -0.2001
16134W        W32608   3.873  10.014  15.940  0.0009 -0.0738 -0.1109
16135W        W32609   5.068   9.533   1.937 -0.1592  0.0802  0.2238
16136W        W32610   9.759   0.694  13.805 -0.1091 -0.0669 -0.3218
16137W        W32611   8.236   5.892  14.326  0.1625  0.0724 -0.1452
16138W        W32612   6.221  10.996  15.738 -0.1575  0.5548 -0.1819
16139W        W32613  10.230   3.630   2.885 -0.1100 -0.1369 -0.2041
16140W        W32614  10.093  17.645   2.382  0.1292 -0.0587  0.0754
16141W        W32615  16.679   0.972  14.026  0.1308 -0.3186  0.1935
16142W        W32616  16.523  15.338   0.147 -0.1389  0.2014  0.1432
16143W        W32617   0.016   1.708   1.504  0.0255  0.0930 -0.1438
16144W        W32618   6.968  17.236  13.716  0.1599  0.1356  0.1807
16145W        W32619   8.156  11.852   0.627 -0.2430 -0.0264  0.0716
16146W        W32620   8.317   9.745   4.104 -0.0295 -0.0500 -0.0724
16147W        W32621  13.731   0.548   5.665  0.1058 -0.0235 -0.2375
16148W        W32622   2.369   5.631   4.323  0.0506 -0.2245  0.0633
16149W        W32623  16.803  10.091   2.468 -0.1400  0.0144 -0.0647
16150W        W32624  16.460   8.983   1.540  0.0643 -0.2247  0.0380
16151W        W32625   8.279  12.346   5.540  0.0311 -0.1454  0.3608
16152W        W32626   4.176   7.551   2.384  0.0914  0.0896 -0.1177
16153W        W32627  11.934  11.633   3.437 -0.1451 -0.0539 -0.1079
16154W        W32628   4.945  13.326   1.604  0.2212  0.1819  0.0231
16155W        W32629  15.480  11.618  13.238 -0.1810 -0.0828  0.0633
16156W        W32630  12.768   8.908  16.702 -0.4201  0.1105  0.0363
16157W        W32631   3.206  12.308  13.926  0.0266 -0.3694  0.0719
16158W        W32632   1.624  14.830   3.771  0.1842 -0.0051 -0.2677
16159W        W32633   6.176   3.102  16.612 -0.1856 -0.1723  0.1761
16160W        W32634   2.462   2.651  12.317 -0.0390  0.2873  0.0109
16161W        W32635   1.488   6.523  15.414 -0.1499  0.1863  0.3216
16162W        W32636   5.917   1.123  16.143  0.0770 -0.0883  0.3163
16163W        W32637   4.992   6.010   2.824  0.0904 -0.3445 -0.1781
16164W        W32638  14.749  12.095   2.058  0.0609  0.2032  0.1797
16165W        W32639   8.173   2.655   1.381  0.1581  0.2792  0.0762
16166W        W32640  14.655   3.201  14.565  0.2086 -0.1472  0.0154
16167W        W32641  14.652  17.202   1.092  0.2776 -0.1668  0.2607
16168W        W32642  14.989  14.246  15.742  0.1164 -0.1362 -0.0490
16169W        W32643  10.389   0.288   3.788  0.3244  0.1173  0.2030
16170W        W32644   6.818  17.242   3.334  0.1046  0.1194 -0.0715
16171W        W32645   5.191   8.702  15.475 -0.1241  0.2625 -0.1801
16172W        W32646   4.999   2.895   5.583  0.0385  0.1249 -0.3081
16173W        W32647   3.206   0.664  13.555  0.1575  0.0948 -0.2539
16174W        W32648  17.189  15.367  11.585  0.1460 -0.0442 -0.1373
16175W        W32649  13.749   2.780  14.477  0.0195  0.3393 -0.2499
16176W        W32650  10.270   6.164   1.226 -0.3292  0.0514 -0.0106
16177W        W32651   6.646   2.112   0.489  0.3360 -0.0033  0.1741
16178W        W32652  10.455  16.947   2.918 -0.1804  0.0378  0.1965
16179W        W32653   6.977   8.885  14.540 -0.2919  0.0248  0.2032
16180W        W32654  17.768   7.383  14.695 -0.2427 -0.1491  0.0390
16181W        W32655   5.326  17.155   5.150 -0.2980 -0.2551  0.0248
16182W        W32656   8.853  15.737  11.495 -0.1890 -0.1059  0.1313
16183W        W32657   4.226  11.320   2.344  0.0169 -0.1304 -0.2828
16184W        W32658  10.669   3.619  13.119  0.0407 -0.0273 -0.0038
16185W        W32659   8.706  13.598   1.804  0.1379  0.1035 -0.0933
16186W        W32660   1.543  11.166   2.425  0.3412 -0.0887  0.2106
16187W        W32661  14.558  10.077  12.955  0.1530  0.0200  0.0849
16188W        W32662   3.757   2.862  15.957  0.0927 -0.3023  0.0557
16189W        W32663   3.796  12.887   3.433 -0.1758 -0.1835  0.0166
16190W        W32664  13.847   5.045   3.399  0.0029 -0.3672 -0.3616
16191W        W32665  10.984  16.002  15.109 -0.1354 -0.4871  0.0327
16192W        W32666   6.632  10.044   2.496 -0.1219 -0.0525 -0.1414
16193W        W32667   5.951  15.498  12.724  0.1129 -0.0876  0.1450
16194W        W32668  12.195   6.358   3.072  0.1483 -0.0659 -0.0844
16195W        W32669   7.140  12.678  15.240  0.0014 -0.0689  0.5025
16196W        W32670  17.767   5.909  10.910 -0.3464 -0.3067 -0.1422
16197W        W32671   7.967   6.962  13.458 -0.0935  0.0887 -0.1277
16198W        W32672  14.249   4.535  14.198  0.1820  0.0060  0.2849
16199W        W32673   5.452   9.115  12.066 -0.1128  0.0103  0.0912
16200W        W32674   5.229   0.984  11.435  0.0425 -0.0353 -0.0748
16201W        W32675   8.537   2.261   2.857  0.1683 -0.2989  0.2781
16202W        W32676   0.567  15.721   2.781 -0.4058 -0.2723 -0.1798
16203W        W32677   7.686   1.635  16.541  0.3193  0.1272 -0.0033
16204W        W32678   3.421   8.542   3.425 -0.0158 -0.1920  0.0213
16205W        W32679   8.109   8.199  15.231 -0.0499  0.0958 -0.1319
16206W        W32680   5.892  10.352   1.245  0.0159 -0.1756 -0.1584
16207W        W32681  10.574  16.063  13.634 -0.0121  0.0852  0.2200
16208W        W32682   8.745   3.652  13.473  0.2299  0.1191 -0.1734
16209W        W32683   8.927  14.300  14.543 -0.2987  0.2733  0.0550
16210W        W32684  10.417  12.818   5.572  0.2312  0.1941 -0.3956
16211W        W32685   5.463   3.982  16.317 -0.0165  0.1792 -0.2347
16212W        W32686  12.607  15.408  11.844  0.0647  0.0118 -0.1834
16213W        W32687  14.540  16.739   0.169  0.0732 -0.4704 -0.0063
16214W        W32688   7.828   7.957  16.580 -0.1294  0.0098  0.0687
16215W        W32689  12.256   1.493   1.332  0.2430 -0.3426  0.1461
16216W        W32690   4.091  11.522   1.850  0.3181  0.0051 -0.1631
16217W        W32691   6.213  13.607  15.141 -0.1964  0.2800  0.0068
16218W        W32692   8.584  14.394  13.660  0.3247 -0.1584  0.1273
16219W        W32693   8.002   1.683  13.486  0.5030 -0.0440 -0.1386
16220W        W32694   2.393   9.996   5.257  0.1327 -0.4044  0.1204
16221W        W32695   4.282   6.296  14.862 -0.1363 -0.0067 -0.3627
16222W        W32696   0.743   5.608  13.415  0.2376  0.0804 -0.0408
16223W        W32697   4.918   1.647   0.524 -0.2212  0.4341 -0.0479
16224W        W32698  17.343   6.345  16.922 -0.1590  0.0248  0.1337
16225W        W32699   1.197   8.074   3.527 -0.2616 -0.1301 -0.0498
16226W        W32700   2.379   3.403  15.136  0.0179 -0.0272 -0.2016
16227W        W32701   0.205  14.928   3.436  0.0448  0.1575 -0.0890
16228W        W32702   9.270   2.785   5.133 -0.0213 -0.1684 -0.3553
16229W        W32703  12.278  12.711   2.869 -0.0887 -0.0968  0.0652
16230W        W32704   4.310   0.673   5.760 -0.0046  0.1772  0.2930
16231W        W32705  13.765   8.650  16.684 -0.2371  0.1703  0.2979
16232W        W32706   2.918   5.971   1.269  0.0184 -0.1538 -0.1300
16233W        W32707   8.810   6.640  11.751  0.1165 -0.2389  0.1575
16234W        W32708   5.933   4.957   5.730  0.3398 -0.1894 -0.0210
16235W        W32709   0.876  13.243   1.057 -0.1262  0.0120 -0.0126
16236W        W32710  12.736   2.669  15.704  0.0350 -0.0313 -0.2468
16237W        W32711   4.467  16.867   1.574 -0.3433  0.1320  0.0976
16238W        W32712   3.233   6.113   0.895 -0.3447  0.0387  0.0030
16239W        W32713   4.697   3.558  16.621  0.0220  0.0905 -0.3513
16240W        W32714   8.478   3.782  15.338 -0.1915  0.2954 -0.0498
16241W        W32715   4.413   7.335   4.139  0.0480 -0.1902  0.3261
16242W        W32716   2.326   2.622   6.084  0.1239  0.0143  0.0018
16243W        W32717   5.739  14.729   4.727 -0.0478  0.0091  0.1493
16244W        W32718   2.559   0.670  12.306  0.0650  0.0880  0.2405
16245W        W32719   3.949  11.462  16.024 -0.0734 -0.0798  0.0741
16246W        W32720  13.236   3.605   2.694  0.1757  0.1104 -0.0073
16247W        W32721   8.839   8.900   0.648  0.0413  0.0151  0.0848
16248W        W32722   1.539  14.071  12.340 -0.2565 -0.0281 -0.0165
16249W        W32723   2.751   9.087   3.155 -0.1436  0.0792 -0.1609
16250W        W32724   9.416   9.712   1.697  0.0627 -0.1156 -0.2458
16251W        W32725  11.148   1.576  11.559 -0.2656  0.1647 -0.1466
16252W        W32726  13.908   5.790   0.474 -0.0700 -0.1461 -0.2105
16253W        W32727   2.510   3.302  13.560  0.0578  0.1273 -0.1900
16254W        W32728   5.004  17.738   2.405  0.0670  0.2049 -0.0865
16255W        W32729  11.116  11.837   4.929 -0.1541  0.0061 -0.1917
16256W        W32730   9.872   2.270  13.925 -0.0394  0.0758  0.0808
16257W        W32731  11.057   6.554  13.310  0.0092 -0.1197  0.1149
16258W        W32732   7.520  17.214   2.764 -0.2794  0.1877  0.2131
16259W        W32733   5.400  15.295  16.450 -0.2479 -0.1609  0.0683
16260W        W32734  11.372  16.238   0.782  0.1684 -0.0098 -0.1142
16261W        W32735  10.981  16.795  12.647  0.1443  0.3109 -0.2165
16262W        W32736  10.865  17.282   2.389  0.1579 -0.0466  0.0025
16263W        W32737  15.663   8.429  11.875 -0.0993  0.2502  0.0613
16264W        W32738  13.803  12.431  15.485  0.0979  0.3207  0.0537
16265W        W32739   0.565   4.301  14.863 -0.1216 -0.0877  0.2422
16266W        W32740  12.449   5.513   5.760  0.1880 -0.1059  0.0153
16267W        W32741  16.994  11.816   1.054  0.4385  0.3004 -0.0467
16268W        W32742  14.487  12.853  15.475 -0.0781  0.2506  0.1913
16269W        W32743   9.345   8.409  11.662 -0.0093 -0.1682 -0.0839
16270W        W32744   9.000  11.017  15.396  0.3068 -0.0279  0.1264
16271W        W32745  13.868   4.211   5.152  0.1796 -0.0271 -0.2058
16272W        W32746   5.161   6.721  15.166 -0.0831 -0.3072 -0.3782
16273W        W32747  13.074   2.401  15.461  0.1194 -0.1838 -0.1340
16274W        W32748   4.491   5.976   3.606  0.0278  0.1699 -0.0586
16275W        W32749  11.314   0.230   2.405  0.0281 -0.3712 -0.0033
16276W        W32750   6.445  12.485  12.241 -0.0914 -0.1015 -0.0571
16277W        W32751  15.397   4.362   0.696 -0.0071 -0.0540  0.2795
16278W        W32752   9.870  12.894   4.161  0.2040  0.0626  0.1112
16279W        W32753   1.802  17.212   4.473  0.3173  0.3372  0.1379
16280W        W32754  14.932   0.951  16.551 -0.4494 -0.2284 -0.2751
16281W        W32755  16.018  12.947   4.855  0.2813 -0.0606 -0.0918
16282W        W32756   4.001  10.440   2.580 -0.1351 -0.0567 -0.3121
16283W        W32757  12.870  12.562  11.957 -0.1895  0.2040 -0.1844
16284W        W32758  11.653   1.065   1.800  0.2312 -0.2209 -0.1576
16285W        W32759  10.087  17.530  14.874 -0.1228 -0.0643  0.0226
16286W        W32760  13.020  13.107   4.872  0.3370 -0.3780 -0.1072
16287W        W32761   3.294   5.473  15.741 -0.1598  0.0669 -0.2312
16288W        W32762  12.672  12.654   0.848  0.0076 -0.3503 -0.3463
16289W        W32763   5.098  11.018   3.351  0.2241  0.1671  0.0766
16290W        W32764   9.855  10.520   2.693 -0.0460 -0.3114  0.1287
16291W        W32765   3.810  15.093   0.525 -0.2791 -0.2004 -0.0500
16292W        W32766  11.809  13.556  13.282  0.1493  0.0070 -0.1019
16293W        W32767   6.500   0.308  15.817  0.0712  0.3701 -0.2342
16294W        W32768  11.771  10.920  14.334 -0.0895 -0.1205  0.2348
16295W        W32769  17.509  14.852  12.764  0.0572  0.0739  0.0029
16296W        W32770   7.896   4.495  15.166  0.1025 -0.1162 -0.0348
16297W        W32771   9.473  14.707   2.249  0.1289 -0.1085  0.3587
16298W        W32772  10.968  17.664   2.705 -0.1218  0.2558 -0.1543
16299W        W32773  12.829   1.878   2.637  0.1276 -0.0216 -0.0456
16300W        W32774  16.781   1.385   1.270 -0.0816 -0.1456  0.0890
16301W        W32775   7.534   7.022  16.253 -0.1264 -0.0993  0.0914
16302W        W32776  10.088   8.938   5.380  0.0037 -0.1260 -0.1928
16303W        W32777  12.399   3.165   0.510  0.0673  0.2836 -0.0810
16304W        W32778  10.440   8.528   3.796  0.3423  0.0111  0.0508
16305W        W32779   1.322   2.972   4.010  0.2757  0.1931 -0.0001
16306W        W32780  15.702   6.063   2.103 -0.1564 -0.0136 -0.1839
16307W        W32781  16.820  10.816  15.549  0.2866 -0.1278  0.1009
16308W        W32782   7.802  12.690   4.812 -0.3807 -0.1130 -0.2761
16309W        W32783  15.462  15.393  11.769 -0.1497  0.0477  0.0113
16310W        W32784   2.718  13.690   0.759  0.0791  0.2352  0.0072
16311W        W32785   1.943   9.094  13.035  0.1803 -0.0794 -0.1449
16312W        W32786  14.232   1.697  15.938  0.2747  0.0448 -0.2055
16313W        W32787  15.873   6.636   2.011 -0.0138  0.0473 -0.0969
16314W        W32788  14.780   6.708  13.718 -0.0278 -0.0128 -0.0874
16315W        W32789   3.029  16.487   5.860 -0.2638  0.0326  0.0538
16316W        W32790   4.275  13.168  11.534 -0.2562  0.1129 -0.0639
16317W        W32791   4.568   0.224  14.662  0.0484  0.3470  0.2634
16318W        W32792   0.747  10.146   5.023  0.0500  0.1050  0.2078
16319W        W32793   4.893  14.963  15.408 -0.0665 -0.0033  0.0101
16320W        W32794   0.475   4.604   1.288  0.3207 -0.1661 -0.1296
16321W        W32795   9.102   8.628  13.754 -0.0986 -0.0781  0.1376
16322W        W32796   3.891   1.776   4.916 -0.3518  0.0458  0.2723
16323W        W32797   0.437   2.489   1.592  0.0711 -0.1047  0.0928
16324W        W32798   5.885   1.861   3.732  0.0741 -0.1589  0.2103
16325W        W32799   6.249  13.804   4.805 -0.0642  0.0721  0.0535
16326W        W32800  10.813  14.551  16.252 -0.2122 -0.0552 -0.1325
16327W        W32801  10.685   5.920  14.721  0.1496  0.3610 -0.1703
16328W        W32802  17.780  14.772   2.070  0.1416  0.1059  0.0399
16329W        W32803  14.082   4.425   2.017 -0.3679 -0.2726  0.0823
16330W        W32804  17.497   2.900  14.468 -0.0715  0.0659 -0.0640
16331W        W32805   0.003  12.396   5.242  0.0567 -0.0272  0.1473
16332W        W32806   5.853  14.152  13.463 -0.4691  0.0764  0.2252
16333W        W32807  15.804  17.817  16.796 -0.0741  0.0714  0.0599
16334W        W32808   9.421   9.757   2.224  0.0052  0.3184  0.0929
16335W        W32809  17.106   3.545   4.189 -0.1094 -0.2560 -0.0575
16336W        W32810  12.179   5.500  12.749 -0.0630  0.2954  0.0770
16337W        W32811  12.702  13.220   2.323  0.0427  0.0233 -0.3054
16338W        W32812   0.939   1.756  14.678  0.2427 -0.0626  0.0029
16339W        W32813  14.089  15.913  15.936  0.2627 -0.0527  0.0748
16340W        W32814  14.986   4.899   0.776  0.1018 -0.0547 -0.0659
16341W        W32815  13.080   7.863  13.724  0.0150 -0.0732  0.0208
16342W        W32816  12.917   8.554   3.151 -0.0513 -0.0427  0.0487
16343W        W32817  14.361   6.693  14.042 -0.4792 -0.1406  0.0990
16344W        W32818  14.490   9.870   4.867 -0.0056 -0.2270 -0.1679
16345W        W32819   1.963  10.209  16.139  0.1479  0.0858  0.1369
16346W        W32820   3.371  16.892   4.262 -0.1908 -0.1453 -0.5302
16347W        W32821  16.088   8.946  12.937 -0.1033 -0.0400 -0.0282
16348W        W32822   9.918  11.530   3.758  0.1381  0.1207  0.2544
16349W        W32823   0.134   3.146   1.246  0.2470  0.1760  0.1405
16350W        W32824  14.620  14.172  15.396 -0.0979  0.2912 -0.0084
16351W        W32825   6.769  11.669  16.521 -0.0006 -0.1979 -0.0183
16352W        W32826   2.599   0.345  11.937 -0.1444 -0.1033  0.0391
16353W        W32827  13.448   0.043  12.485  0.1479 -0.1104 -0.0787
16354W        W32828   3.821  11.939   0.170  0.2051  0.2134 -0.0400
16355W        W32829   2.881  11.239  14.596  0.0186 -0.1376 -0.1920
16356W        W32830  16.994  13.353  15.460  0.2396 -0.1486 -0.2432
16357W        W32831  12.166   3.014  12.692 -0.1966  0.0452  0.0639
16358W        W32832   8.785   9.238   2.525 -0.0382 -0.1402  0.0040
16359W        W32833  10.122  16.642  16.360 -0.0093  0.2203 -0.0197
16360W        W32834   4.811  10.936   4.117  0.1230 -0.1700  0.1129
16361W        W32835  12.697   7.591  11.854  0.0141 -0.1854 -0.1902
16362W        W32836   0.128   8.610   4.933 -0.0185  0.1514 -0.1527
16363W        W32837   2.717   9.705   1.453  0.0135  0.0250  0.0992
16364W        W32838   5.631   5.568  14.927  0.1971 -0.3260 -0.0977
16365W        W32839   8.385   4.624  15.155 -0.2965 -0.1019 -0.1319
16366W        W32840  15.936  12.305   1.253  0.1546  0.0055  0.2444
16367W        W32841   3.554   7.370  11.599  0.0768 -0.0293 -0.0315
16368W        W32842  11.023   3.332  12.364  0.0086 -0.2028 -0.1763
16369W        W32843  12.322   0.148   1.030  0.1358 -0.1440 -0.0630
16370W        W32844   5.707  10.024  12.117  0.1011  0.2533  0.0106
16371W        W32845  10.145   3.968   0.647  0.1425  0.2281  0.1673
16372W        W32846  17.816   6.995  11.602 -0.0906 -0.2754  0.0596
16373W        W32847  12.121   8.098  15.883  0.2718 -0.0692  0.2376
16374W        W32848   6.976   5.193   1.218  0.2264  0.2744 -0.2032
16375W        W32849  16.708  16.986  13.217 -0.1373  0.1485 -0.2384
16376W        W32850   6.134  13.484  14.159 -0.2726 -0.0389 -0.1637
16377W        W32851   3.762  11.983  15.036  0.0408  0.0719  0.0857
16378W        W32852  16.419  11.694   5.508 -0.2452  0.1605 -0.1068
16379W        W32853   6.267   1.970   2.175 -0.0591 -0.0283  0.1047
16380W        W32854  13.191   0.278  11.727 -0.1330 -0.1744 -0.3588
16381W        W32855  10.978   0.136   5.061  0.1213  0.3328 -0.1112
16382W        W32856  17.198  16.187  12.336 -0.3425  0.2736 -0.0049
16383W        W32857  12.660  15.198   2.096  0.0853 -0.0452  0.0917
16384W        W32858  12.498   4.311  13.930  0.0673  0.1470 -0.0948
16385W        W32859   2.786  14.463   0.722  0.4692  0.0492  0.1509
16386W        W32860   5.878   4.424  14.539 -0.2458 -0.1582 -0.0216
16387W        W32861  12.704  14.237  15.179  0.2318  0.0975 -0.1047
16388W        W32862  17.159   0.901   2.826 -0.0940  0.1054 -0.0978
16389W        W32863   5.402   6.539  12.959  0.0367 -0.0061  0.0820
16390W        W32864   9.277  16.402   5.657 -0.2221 -0.2025  0.3334
16391W        W32865  10.036   9.918  16.843  0.0410 -0.2815  0.0720
16392W        W32866   5.161  17.216   4.233  0.0689  0.0842  0.1135
16393W        W32867   5.194   4.142  13.719 -0.1891  0.0799  0.4591
16394W        W32868   6.690   0.468  16.798  0.1098 -0.2590  0.0325
16395W        W32869   7.641   3.720   2.830 -0.0191 -0.0336 -0.3979
16396W        W32870   8.912  10.975   1.080  0.1711 -0.0669  0.0889
16397W        W32871   2.057  11.843  15.280 -0.3906 -0.2827  0.1049
16398W        W32872  17.291   2.010  12.884  0.1612 -0.1650  0.1713
16399W        W32873   2.059  11.527  14.567  0.3131 -0.3068  0.1488
16400W        W32874   8.794  12.385   2.777  0.1559 -0.4807 -0.1168
16401W        W32875  12.205  10.839   1.624 -0.0086  0.2065 -0.1002
16402W        W32876  12.821  15.798  12.110 -0.2472 -0.3453  0.1468
16403W        W32877  11.532  12.045   5.162 -0.0303 -0.0685 -0.1588
16404W        W32878  16.609   1.758  13.553  0.1348 -0.1853  0.0138
16405W        W32879  17.378   3.148   0.395  0.0899 -0.0024  0.1565
16406W        W32880  10.340   7.053  16.551  0.4491  0.0451 -0.1623
16407W        W32881   6.048   1.352  11.226  0.3294  0.1107 -0.0887
16408W        W32882  13.201   2.755   4.488  0.1695  0.0483 -0.2345
16409W        W32883   6.830   9.125  12.775 -0.0096 -0.0183  0.2310
16410W        W32884  14.460  10.534  15.192  0.2294 -0.3062 -0.0778
16411W        W32885  12.872  13.614  12.616 -0.3407  0.0014 -0.1732
16412W        W32886  15.668   9.104   3.862 -0.2624  0.1593 -0.2921
16413W        W32887  17.541  15.795  15.762  0.4817 -0.0575  0.0077
16414W        W32888   2.374  13.284  14.934  0.1303  0.1760 -0.1751
16415W        W32889  17.190  16.015  12.969 -0.0644  0.1193 -0.2542
16416W        W32890  17.809   5.879   2.174  0.1090  0.1877  0.0417
16417W        W32891   1.281   8.534   3.736 -0.1240 -0.0079  0.3508
16418W        W32892  17.540  14.273  11.642 -0.0077  0.3782  0.0446
16419W        W32893  13.330  10.507   4.016  0.0308 -0.0085 -0.2709
16420W        W32894   5.900   9.095  12.994  0.1780 -0.2153  0.1614
16421W        W32895   5.973   9.647  13.227 -0.0505 -0.3796  0.0516
16422W        W32896   1.475   9.679   0.238  0.3239  0.0149 -0.0565
16423W        W32897  15.004  11.138  16.668 -0.2331  0.0820 -0.0540
16424W        W32898   3.322   7.907   5.395 -0.0091 -0.1535 -0.0514
16425W        W32899   4.948  17.728  16.127  0.1119  0.1353  0.0594
16426W        W32900   8.121  13.816  15.642  0.1308 -0.0474 -0.1650
16427W        W32901   6.960   8.021   0.049 -0.0091 -0.0986 -0.0871
16428W        W32902   2.010  15.190   2.470  0.1143 -0.1252 -0.1617
16429W        W32903  17.579   4.730  15.172 -0.0269  0.0870  0.4064
16430W        W32904   0.396   6.769  14.119  0.0465 -0.0445  0.2042
16431W        W32905  10.092  13.765   3.795  0.0501 -0.0096 -0.3109
16432W        W32906   4.008  17.566  15.950 -0.1525  0.0743 -0.0184
16433W        W32907   1.342   0.873  15.498 -0.0620  0.0508  0.1352
16434W        W32908  10.181  13.073   4.628 -0.2000 -0.4355  0.0866
16435W        W32909  11.277  17.272   0.050 -0.4015  0.2324 -0.2893
16436W        W32910   6.828  12.371  15.540  0.1440  0.2734 -0.0445
16437W        W32911  14.895   2.031  14.828 -0.4316 -0.0240  0.0066
16438W        W32912   7.676  15.147  14.384  0.1518  0.2035  0.0170
16439W        W32913   6.531  11.178   2.290  0.1271  0.1472  0.0371
16440W        W32914   2.335   3.854  15.148  0.0001 -0.1400 -0.1160
16441W        W32915  13.806  13.648   1.125 -0.3335 -0.0553 -0.1887
16442W        W32916   2.668  14.681  14.715  0.0704  0.1123  0.2860
16443W        W32917   5.546  17.654  12.091 -0.1411  0.4169 -0.1068
16444W        W32918  10.603   9.267  15.830  0.1668 -0.0995  0.1473
16445W        W32919   6.658   8.090  16.010  0.0717  0.1462  0.3311
16446W        W32920  12.484  10.212  10.729 -0.1827  0.1113  0.1934
16447W        W32921   6.269   1.975   0.819  0.0585  0.0509 -0.0809
16448W        W32922   2.175  16.491   4.589  0.0433 -0.0457  0.3249
16449W        W32923   2.202   5.387   4.703 -0.1574 -0.3269  0.2379
16450W        W32924  10.795   4.507   3.283 -0.4153  0.3552 -0.1002
16451W        W32925  10.497   2.676  12.863 -0.1222  0.1471  0.1777
16452W        W32926   1.978  15.847  12.951 -0.2126  0.0182  0.0282
16453W        W32927   5.933  11.064   5.372  0.1119 -0.0175  0.1207
16454W        W32928  10.521  10.222   3.208 -0.4075 -0.2276 -0.0678
16455W        W32929   3.037  13.154  16.273 -0.3373 -0.1966  0.1313
16456W        W32930  13.907  10.110   2.368 -0.0048  0.0898  0.0758
16457W        W32931   0.741   5.251  14.474 -0.0315 -0.3061 -0.1183
16458W        W32932  10.266   5.536  13.265 -0.0572 -0.1401  0.1529
16459W        W32933  16.889   5.407  15.186 -0.2198 -0.0506  0.0059
16460W        W32934  16.020   7.864  15.966 -0.0318  0.1051 -0.2449
16461W        W32935   6.076   4.084  14.242 -0.0550 -0.2384 -0.0683
16462W        W32936   6.917   4.661   4.731  0.2669  0.2591 -0.1076
16463W        W32937   4.065   2.051  12.279  0.1305 -0.2858 -0.2477
16464W        W32938   4.511  12.259  16.494 -0.0276  0.1922  0.4110
16465W        W32939   1.662  13.317   4.209 -0.2070  0.3551 -0.1073
16466W        W32940   2.547  15.120  13.596 -0.1126 -0.3188 -0.0421
16467W        W32941   7.989   8.949  15.563 -0.2960  0.3537  0.4543
16468W        W32942   4.861  11.920  14.356 -0.1645 -0.0278  0.0210
16469W        W32943  13.847  11.495  16.396 -0.0965 -0.3250 -0.2658
16470W        W32944  12.797  15.291   1.281 -0.3611 -0.3056 -0.1192
16471W        W32945  17.072   1.957   5.576  0.2057  0.2282 -0.2126
16472W        W32946   6.561   1.081   0.743 -0.0905  0.0798  0.3254
16473W        W32947  11.841   2.850   2.662 -0.2162  0.1041 -0.0812
16474W        W32948  17.170   9.139   1.949  0.1658 -0.0500 -0.0622
16475W        W32949   4.459   8.613  12.763  0.0280  0.1670 -0.1885
16476W        W32950  12.304   6.151  14.515 -0.3662 -0.2852  0.0483
16477W        W32951  11.486  11.171   0.900 -0.2526 -0.3067 -0.2701
16478W        W32952   7.751  13.640   1.322  0.2831  0.0824  0.1648
16479W        W32953  13.771   4.130   0.988  0.0904 -0.0661  0.0359
16480W        W32954   3.286  13.857   5.172  0.2564 -0.0545  0.3266
16481W        W32955   9.350   4.382  12.588 -0.0443 -0.2658  0.2675
16482W        W32956  10.962   7.996   5.602 -0.1583  0.2754 -0.1923
16483W        W32957   3.652   9.148   3.877 -0.2187 -0.1164 -0.0402
16484W        W32958   8.049  16.246  16.856 -0.0397  0.0501 -0.1978
16485W        W32959   2.199   0.843  12.570  0.1224  0.2832 -0.1142
16486W        W32960  15.324  14.738  16.495 -0.0085 -0.2699 -0.1162
16487W        W32961  16.805  13.828  13.212  0.0400  0.1564 -0.0252
16488W        W32962  10.648   1.749   3.950 -0.1645 -0.0583 -0.2654
16489W        W32963   4.370   0.407  15.897  0.1654 -0.0845 -0.1052
16490W        W32964   5.011   3.954  14.809 -0.1186 -0.0470  0.2609
16491W        W32965   3.110   6.321   5.179 -0.2839 -0.0938 -0.0148
16492W        W32966  11.376   2.358   1.744  0.0529  0.2969 -0.0693
16493W        W32967   4.984   6.635  14.221  0.0964  0.0744  0.1394
16494W        W32968   0.573   6.087  13.728  0.1168  0.1797 -0.0062
16495W        W32969   8.876   4.224  13.243  0.0186  0.1354 -0.1053
16496W        W32970   0.152   9.800  12.078 -0.2046  0.2321  0.0407
16497W        W32971  17.595   1.058  12.665 -0.1959 -0.2362  0.1033
16498W        W32972  11.431  12.346  11.802  0.3556  0.1278 -0.0443
16499W        W32973  17.054  15.818  15.625 -0.2727 -0.1118 -0.1760
16500W        W32974   2.789   6.823  11.976  0.2169  0.1532 -0.0926
16501W        W32975   9.076   1.749  11.910 -0.1930 -0.2491 -0.3740
16502W        W32976   3.849   9.500   3.478 -0.1917 -0.0493 -0.1074
16503W        W32977   5.716   4.029  13.573  0.0637  0.2760 -0.0453
16504W        W32978  13.393   3.138   5.723 -0.1171 -0.1030  0.2126
16505W        W32979  16.807   0.940  14.903 -0.0214  0.1113  0.0830
16506W        W32980   1.814  17.804  15.740 -0.1151 -0.0956  0.0910
16507W        W32981   8.036   6.805   3.214 -0.1902 -0.0242 -0.1040
16508W        W32982   4.437   5.787   4.039  0.0320  0.1194 -0.4419
16509W        W32983   3.608   5.995   4.145  0.2587 -0.1437 -0.3135
16510W        W32984  16.924   2.202  16.459 -0.1518  0.0931 -0.0406
16511W        W32985   0.015   5.020  16.030  0.0324 -0.3144 -0.0652
16512W        W32986   0.363   9.520  12.943 -0.0993  0.1306 -0.0755
16513W        W32987   6.739  17.333   1.252  0.1043 -0.1008 -0.0639
16514W        W32988   1.952   1.099  13.925 -0.1423 -0.1310  0.1921
16515W        W32989   2.379   0.328  13.287 -0.2055  0.0305 -0.1810
16516W        W32990   9.166   9.666  13.080 -0.0656 -0.1604 -0.1807
16517W        W32991   8.945  10.769   4.889  0.0376  0.2336  0.3342
16518W        W32992  11.903  12.140   0.253 -0.2167  0.0705  0.0166
16519W        W32993   3.908   7.837   2.741 -0.3846  0.0756 -0.0896
16520W        W32994  15.879   1.379   4.807 -0.0742  0.4185 -0.0159
16521W        W32995   4.080  13.906   4.379 -0.0607 -0.0981  0.1497
16522W        W32996   7.860  11.369  16.528  0.0137 -0.0049 -0.2029
16523W        W32997   2.166  16.661  15.981 -0.0829 -0.6870  0.0516
16524W        W32998   2.075  15.480   0.949  0.2107  0.0838 -0.0223
16525W        W32999  10.501  12.752   2.389  0.0553 -0.0741  0.1456
16526W        W33000  10.781   6.969  14.539 -0.2099 -0.0503 -0.0219
16527W        W33001   2.673  12.550   2.730 -0.1092 -0.3455 -0.0898
16528W        W33002  10.031   6.027   1.668  0.2474  0.0792 -0.0117
16529W        W33003  12.466  16.488  13.759  0.0282  0.0749  0.0664
16530W        W33004  12.145  11.294   0.862  0.0735  0.0252  0.3124
16531W        W33005   7.067  16.827  16.421  0.2385 -0.0443  0.2983
16532W        W33006  12.322   7.829  14.274 -0.1250  0.0750  0.2743
16533W        W33007  16.711   2.652  16.283  0.0478 -0.1359  0.0467
16534W        W33008   5.028  12.590  16.598 -0.0522  0.0026 -0.0065
16535W        W33009   5.423  17.721   0.335 -0.0911 -0.1518 -0.2815
16536W        W33010   7.230   0.530  12.150 -0.3358 -0.3704 -0.0787
16537W        W33011  13.496   5.528   0.338 -0.1008  0.2594  0.0500
16538W        W33012  16.358   1.876  16.312 -0.3817 -0.0470 -0.1854
16539W        W33013  16.239   7.503   1.508 -0.1475 -0.3263  0.1636
16540W        W33014  15.837  16.734  13.603 -0.0199  0.1232  0.2327
16541W        W33015  10.397  13.535  11.397  0.1156 -0.1081  0.1427
16542W        W33016   6.607   3.951   6.645 -0.0021  0.3981  0.2654
16543W        W33017  16.070   9.436  13.134 -0.2291 -0.1977 -0.3606
16544W        W33018   9.825  10.602  14.602  0.1125  0.0721 -0.1967
16545W        W33019   9.239   8.057   3.007  0.1593  0.0709  0.2049
16546W        W33020   7.216   3.784   3.643 -0.1253 -0.2993 -0.1674
16547W        W33021  14.708  11.482   5.285 -0.3857 -0.0627 -0.1278
16548W        W33022   1.931   7.578   0.736  0.1525  0.1507  0.0497
16549W        W33023   5.903  13.133  13.841  0.0603 -0.1414  0.0436
16550W        W33024   1.732  12.049  13.289  0.1146 -0.1718 -0.1873
16551W        W33025   1.325   4.510   1.022 -0.2807 -0.1765 -0.0167
16552W        W33026   7.683  10.031   3.026 -0.0238 -0.0715 -0.2666
16553W        W33027  15.370  12.668  12.707  0.1141 -0.0355  0.1685
16554W        W33028   3.745   3.578  12.612 -0.0106  0.0596 -0.0005
16555W        W33029   1.018  16.421  14.742 -0.0000 -0.1138  0.4403
16556W        W33030  16.001  14.265   2.088 -0.1702  0.0673  0.2519
16557W        W33031   1.721  11.952   9.735 -0.3082 -0.3418  0.0409
16558W        W33032   5.456  11.238  16.086  0.2084  0.2357  0.4409
16559W        W33033   0.337   9.598   3.565 -0.0620 -0.0821  0.1951
16560W        W33034  16.853  16.546   1.234 -0.1903 -0.3122  0.0866
16561W        W33035  16.079  15.293  12.890  0.0820 -0.0069  0.0900
16562W        W33036   3.629   4.659   5.539  0.2237 -0.0596  0.1548
16563W        W33037  12.268  11.353  13.697 -0.1394 -0.1026 -0.0428
16564W        W33038   8.616   7.635  16.162 -0.0079 -0.1064 -0.2060
16565W        W33039   0.404  17.703   5.154  0.0422  0.0786  0.3840
16566W        W33040   3.384  17.701   5.285  0.0127  0.0544 -0.1561
16567W        W33041   8.462  11.431  12.720 -0.1129  0.2348  0.0100
16568W        W33042   2.496   0.772   1.952 -0.1169 -0.1617  0.1523
16569W        W33043   8.112  10.848   2.153  0.1078  0.2676  0.1839
16570W        W33044   2.865   8.134   0.493 -0.0057 -0.1338 -0.0948
16571W        W33045  17.122  11.934  14.580 -0.0646 -0.4113  0.1170
16572W        W33046   3.659  10.697   5.303 -0.0034  0.1805 -0.2055
16573W        W33047   3.804   7.629  11.929 -0.0307  0.0208  0.0824
16574W        W33048   2.736  15.556   0.813 -0.1216  0.3261  0.0091
16575W        W33049   6.497  11.118   1.685 -0.2536 -0.0257  0.3460
16576W        W33050  11.368   8.409   1.952  0.0069 -0.0057  0.0173
16577W        W33051  14.474   3.251  13.508  0.1149  0.4407 -0.1105
16578W        W33052  13.086   0.519   0.226  0.2298  0.1399  0.0818
16579W        W33053   5.864   1.239   5.344 -0.1790 -0.0917 -0.1422
16580W        W33054   2.628  10.281   1.280 -0.1133  0.0948 -0.0135
16581W        W33055   9.536   1.665  16.149 -0.1037 -0.1063  0.0915
16582W        W33056  13.926   8.918  14.765  0.1287  0.1244  0.1050
16583W        W33057   9.892  13.284  15.009  0.1201 -0.1583 -0.0524
16584W        W33058  13.982   6.646   0.807 -0.1076  0.1017  0.1488
16585W        W33059  15.515   2.229   2.147 -0.0556 -0.1336 -0.1131
16586W        W33060   6.982   5.708  14.494  0.1174 -0.2063 -0.1011
16587W        W33061   3.610   3.995  15.792  0.1444  0.2129 -0.1069
16588W        W33062   4.070   0.271  12.223 -0.0888  0.2213  0.1230
16589W        W33063   8.845   3.330   2.656  0.4466 -0.0862  0.0207
16590W        W33064  17.590   8.011   5.501  0.0013  0.2347  0.2033
16591W        W33065  11.227   5.263  16.524 -0.3730  0.1486 -0.3183
16592W        W33066   5.952  12.003   4.760 -0.4308 -0.0800  0.1691
16593W        W33067  12.560  11.179  16.532  0.2500 -0.1210  0.0528
16594W        W33068  15.836   4.052   0.421 -0.4454  0.0136  0.1180
16595W        W33069   8.864  15.771  15.000 -0.0001 -0.0539 -0.0524
16596W        W33070  10.199   3.397   3.996  0.2557  0.0530  0.1891
16597W        W33071   3.669  14.081  15.641  0.4454  0.1379 -0.4315
16598W        W33072   2.801   7.085  15.299  0.2153 -0.2618  0.0094
16599W        W33073  13.492   8.938   5.459  0.2355  0.0057 -0.1312
16600W        W33074  12.580  11.497   2.801 -0.0337  0.3384  0.1696
16601W        W33075   5.136   1.116  11.955 -0.1867  0.0909  0.0608
16602W        W33076  13.369   1.528   4.422  0.0827  0.1677  0.0638
16603W        W33077  16.822   4.092   1.238  0.0145  0.1394  0.1960
16604W        W33078  13.565  15.487   1.289 -0.0258 -0.0833 -0.0148
16605W        W33079  11.595   5.081  15.336 -0.1566 -0.0955  0.1384
16606W        W33080  10.937  17.343   5.309  0.1831 -0.3294  0.1884
16607W        W33081  16.373   9.558  16.027 -0.1260  0.4844 -0.1486
16608W        W33082  17.072   8.330  14.957  0.1408 -0.0343  0.0929
16609W        W33083   5.072  16.118  15.926  0.0601  0.0631  0.0636
16610W        W33084  13.614  16.094   4.949  0.1098  0.3228 -0.2081
16611W        W33085  11.645   7.781   4.245 -0.2302  0.1157 -0.1997
16612W        W33086   7.241   1.855   3.119 -0.0214  0.2506  0.0788
16613W        W33087  17.768  14.612   4.786  0.2094  0.1706  0.0348
16614W        W33088  13.327   0.784  15.640 -0.0244 -0.1156 -0.0328
16615W        W33089   1.196   8.099   0.454  0.2146  0.0404 -0.1942
16616W        W33090   5.729   2.637   0.038 -0.0246 -0.3156 -0.3263
16617W        W33091  10.748  10.476   2.248 -0.0315 -0.1290 -0.0717
16618W        W33092   8.458  15.877   2.834 -0.0870 -0.3551 -0.3072
16619W        W33093   9.191  11.151   3.523  0.0342  0.1004  0.2559
16620W        W33094  15.072  10.829  13.837  0.0577  0.0401  0.0773
16621W        W33095  12.370   3.780   3.067 -0.1567  0.2722  0.1119
16622W        W33096  16.725   6.911  12.451  0.0893 -0.0468  0.1131
16623W        W33097   7.453   4.216  11.689 -0.0863 -0.1800 -0.0277
16624W        W33098  14.505   7.744   4.684 -0.1046  0.2815 -0.4270
16625W        W33099  17.339   2.280  16.761  0.0556  0.0020  0.2246
16626W        W33100   3.811   8.166  13.530  0.3153  0.1925  0.0697
16627W        W33101  14.622  12.171  15.583 -0.0858 -0.0818 -0.2037
16628W        W33102   1.574   4.509  14.599 -0.0448 -0.2400 -0.0533
16629W        W33103   2.357   2.193  16.928  0.0519 -0.2227  0.2033
16630W        W33104   6.554   3.843  14.079  0.1398 -0.0918  0.2393
16631W        W33105   2.141  15.790  15.831  0.1130 -0.1537  0.1036
16632W        W33106   6.925  14.710  14.835 -0.1842 -0.0874 -0.0564
16633W        W33107  16.625   5.307   2.592 -0.2643 -0.0186  0.2152
16634W        W33108   2.377   7.825  13.117  0.1801  0.3840 -0.0014
16635W        W33109  16.234  14.516  14.978 -0.3412 -0.4167  0.0352
16636W        W33110   8.729   1.398   1.654 -0.0312 -0.1953 -0.0023
16637W        W33111   9.011   5.984  12.800 -0.0812 -0.0822 -0.0822
16638W        W33112   9.261  12.138   5.273 -0.2675  0.0923 -0.1734
16639W        W33113   3.813  12.349  13.510  0.3019  0.1078  0.0091
16640W        W33114   5.343  12.791   3.692 -0.5038  0.1845 -0.1054
16641W        W33115   5.083   1.971   2.000  0.2204  0.1840  0.0901
16642W        W33116  10.339  13.337   5.551  0.0266  0.0903  0.1346
16643W        W33117   8.537  15.911   2.273  0.0268 -0.2034  0.2377
16644W        W33118  12.062   6.701  11.923  0.2988  0.1851 -0.1774
16645W        W33119   0.921   2.815  14.085 -0.0862  0.1472 -0.1411
16646W        W33120  11.454   6.172   5.474 -0.0135  0.1343 -0.1483
16647W        W33121  10.849  17.600  12.425 -0.0796 -0.0700 -0.1873
16648W        W33122  12.545   1.043   5.216  0.0262 -0.0639 -0.1302
16649W        W33123   9.403  11.603  12.635  0.0932 -0.1689 -0.2159
16650W        W33124   2.710   8.496   2.698 -0.2712 -0.1453  0.2272
16651W        W33125   2.398   9.912  14.899 -0.0132 -0.0427  0.0589
16652W        W33126  10.587   5.141   2.480 -0.0064  0.0331  0.0153
16653W        W33127  15.167   8.557  16.288 -0.1999 -0.1065 -0.0696
16654W        W33128  12.631  14.061  12.931 -0.0114  0.0742 -0.0574
16655W        W33129  11.371  13.276   1.725  0.0301 -0.0525  0.0535
16656W        W33130  14.339   2.970   4.949  0.2806  0.3050  0.1128
16657W        W33131   1.888   0.897   0.188  0.0380 -0.1596 -0.0043
16658W        W33132  17.620   8.966   0.163  0.1352  0.0834 -0.0144
16659W        W33133   4.997   8.278   5.555 -0.2674  0.1658  0.0760
16660W        W33134  11.492  12.323   4.174  0.1707  0.2852 -0.0342
16661W        W33135   5.901   7.539  16.227 -0.0187  0.0922 -0.2018
16662W        W33136   0.790   4.359   4.890  0.1032  0.0137 -0.5084
16663W        W33137  14.373   9.500  14.178 -0.0730  0.3646 -0.0709
16664W        W33138   1.603  11.455  13.075 -0.1786 -0.2828 -0.0858
16665W        W33139   8.267  12.327   0.994  0.1592 -0.0945 -0.0536
16666W        W33140   2.527   6.491   3.857 -0.1319 -0.2317  0.0269
16667W        W33141   8.286  17.827  14.505 -0.2934  0.0047 -0.0644
16668W        W33142   5.232  14.493  11.948 -0.3807  0.1142  0.2039
16669W        W33143   1.602  11.572   1.366 -0.2664  0.1491 -0.0402
16670W        W33144   9.735   3.171  12.081 -0.0471 -0.1375  0.1939
16671W        W33145   2.780  10.610  11.849 -0.1394  0.1049 -0.3506
16672W        W33146   1.521  10.596   4.338  0.0974  0.2479 -0.0057
16673W        W33147   0.348   3.431  13.607  0.3577 -0.1106 -0.1434
16674W        W33148   2.020  11.179   0.444 -0.0845  0.1335  0.0130
16675W        W33149   4.417   5.575  15.281 -0.0333  0.0671 -0.1703
16676W        W33150  11.896  10.497  14.795 -0.1509  0.1777  0.3695
16677W        W33151   8.225   0.863   5.213  0.1883  0.1197  0.1536
16678W        W33152   7.164   7.428   3.481 -0.3527 -0.1374 -0.1646
16679W        W33153  10.070  16.673   0.976 -0.1982 -0.0192  0.0917
16680W        W33154  10.538   6.399  15.400 -0.0571 -0.0629  0.2226
16681W        W33155   6.391  16.796  12.323 -0.2088 -0.0290  0.0560
16682W        W33156  15.040  16.372   2.733  0.0059 -0.0974  0.0112
16683W        W33157   7.536   8.294   0.963  0.1848 -0.0065  0.2794
16684W        W33158   2.941  11.107  16.543 -0.2963  0.0880  0.3811
16685W        W33159   6.386  16.000   0.168 -0.0574  0.1418  0.1888
16686W        W33160  14.795   1.263  14.077  0.2979  0.0434 -0.0298
16687W        W33161   9.072   8.046   5.306 -0.1931 -0.1032  0.1048
16688W        W33162  16.098   5.300   4.624  0.0821  0.1914 -0.1437
16689W        W33163   8.245   8.559   5.563 -0.1385  0.0373  0.0023
16690W        W33164   7.784   5.684  15.469 -0.0934 -0.0196 -0.2613
16691W        W33165  15.749  13.788   6.041  0.2230  0.3115 -0.3449
16692W        W33166   7.398  11.028   3.281 -0.1804  0.2388  0.1368
16693W        W33167  11.052  11.205  11.893  0.2773  0.0848  0.1086
16694W        W33168   2.671  11.871  12.313  0.2753 -0.0205 -0.0267
16695W        W33169   5.848  17.073   1.870 -0.0860 -0.0147  0.3641
16696W        W33170   2.558   8.085   2.893  0.1043 -0.2235  0.0659
16697W        W33171   2.236  10.040  12.430  0.3033  0.3635 -0.1167
16698W        W33172  11.612   1.120  14.991  0.4165  0.1689 -0.0245
16699W        W33173   9.592   3.743  14.419 -0.1242 -0.3213  0.2405
16700W        W33174  11.914  10.631  13.488  0.0483 -0.1878  0.0728
16701W        W33175   2.617   2.292   3.536  0.2202 -0.3607 -0.0465
16702W        W33176  10.978  12.785  13.723  0.2155  0.1786  0.3003
16703W        W33177  12.900   3.916   5.283 -0.1222 -0.0295 -0.0924
16704W        W33178  10.150   1.060  13.598 -0.0295 -0.0316  0.0061
16705W        W33179  13.682   1.562  11.982 -0.0889  0.0292  0.0506
16706W        W33180  15.555  15.237   2.113  0.0303  0.3239 -0.1336
16707W        W33181   1.753  14.492  12.312  0.0608 -0.0813 -0.2132
16708W        W33182  11.196   7.642  14.936 -0.2964  0.1866 -0.1820
16709W        W33183   7.820   5.639   0.116 -0.0140 -0.1219 -0.0107
16710W        W33184   7.129  10.572   3.263 -0.1224 -0.1634 -0.2420
16711W        W33185  17.807  12.235  14.191  0.2498  0.2385  0.0608
16712W        W33186  10.772  15.682  15.957 -0.2191 -0.3736  0.1344
16713W        W33187   4.805   6.371  12.437  0.2879 -0.0651  0.3617
16714W        W33188   7.387  11.388  16.633  0.0116  0.2653  0.1380
16715W        W33189  12.726  11.379  11.442 -0.2440  0.1016 -0.0341
16716W        W33190  15.410   8.457   1.737 -0.0746  0.0387  0.0171
16717W        W33191  14.524  16.077   1.462 -0.1682 -0.2503  0.1955
16718W        W33192   0.911   7.034   0.150  0.0313 -0.0319 -0.0065
16719W        W33193  11.477   3.192   2.894  0.2234 -0.1416 -0.1624
16720W        W33194  13.555  14.417  13.842  0.2018  0.1140  0.3216
16721W        W33195  14.227  14.114   5.724  0.0572  0.1030  0.2957
16722W        W33196  13.696  14.926  13.532  0.0391  0.3430  0.3355
16723W        W33197  16.085   5.887  14.112  0.0958  0.1217  0.0764
16724W        W33198  16.716  15.864   2.890 -0.1616 -0.1192  0.1863
16725W        W33199  14.009  12.233   1.515 -0.1581 -0.1388  0.0003
16726W        W33200   7.194   1.551  16.432  0.0051 -0.0412  0.1129
16727W        W33201  13.513   8.848   1.212  0.0187 -0.0882 -0.0229
16728W        W33202   6.565   5.188  15.946  0.0009 -0.0902  0.1396
16729W        W33203  15.134  14.609  14.358 -0.2353 -0.1421 -0.3942
16730W        W33204   8.028   7.185  11.814 -0.1102 -0.4166 -0.0228
16731W        W33205   0.594  11.694   3.943 -0.3094 -0.0073 -0.0346
16732W        W33206  10.113   0.340   2.365 -0.1183 -0.0338 -0.0114
16733W        W33207  15.144   1.280   4.175 -0.1190  0.2034 -0.2243
16734W        W33208   9.120  11.841   5.724 -0.1811  0.1394 -0.1410
16735W        W33209  12.062   1.367   4.018  0.1665 -0.2579 -0.3401
16736W        W33210   7.453  12.458  15.640 -0.1296 -0.1860  0.0486
16737W        W33211   4.613  13.135   4.343 -0.0328 -0.2241 -0.0204
16738W        W33212   8.552  14.807   5.450  0.0797 -0.0197 -0.3038
16739W        W33213   2.558  12.158  14.233 -0.0672 -0.1062 -0.0062
16740W        W33214  10.191   9.487  15.980 -0.0416  0.1909  0.1075
16741W        W33215  14.206  16.210   1.831 -0.0922  0.1441 -0.0519
16742W        W33216  14.961   5.233   6.337  0.0955 -0.1212  0.2845
16743W        W33217  15.740   4.998  15.995  0.3185 -0.2908  0.3081
16744W        W33218  16.161   9.808   2.807 -0.0210 -0.2543  0.0066
16745W        W33219  10.394   9.814   0.219  0.1330  0.0961  0.0631
16746W        W33220   0.389   6.305   6.165 -0.1518  0.3872 -0.2409
16747W        W33221  16.953   6.386   0.795  0.0590  0.0503 -0.3767
16748W        W33222   0.231   1.734  10.853  0.1789 -0.0975 -0.2857
16749W        W33223  13.119  12.297  12.649  0.0469 -0.3519 -0.1757
16750W        W33224  13.284   4.330   0.906 -0.1814  0.3009  0.1127
16751W        W33225   7.817   8.826   2.416 -0.4050  0.2720  0.1237
16752W        W33226   1.207   7.750   2.671 -0.2305 -0.0998  0.2243
16753W        W33227   6.081  10.043  12.539 -0.1395  0.4926  0.1887
16754W        W33228   3.626   8.889  15.384 -0.0297 -0.0406  0.1771
16755W        W33229  15.333   1.829   3.053  0.2943  0.3478  0.0979
16756W        W33230  11.777   0.431   5.973  0.0858 -0.0626 -0.0102
16757W        W33231   1.793  13.408   1.188  0.2663  0.0727  0.0301
16758W        W33232   7.408  11.988   2.457 -0.0193 -0.2477  0.1213
16759W        W33233   4.478  17.275   1.320 -0.4118  0.0930  0.1187
16760W        W33234  16.959  17.045   0.367 -0.1559  0.0127 -0.1868
16761W        W33235   2.669  15.703  11.756  0.0139  0.0919  0.0157
16762W        W33236   9.970   0.963  14.468 -0.1134 -0.1940 -0.2437
16763W        W33237   7.051   5.416  11.847 -0.2188 -0.2276 -0.0640
16764W        W33238  16.227  10.150   2.445  0.1814 -0.4069 -0.0720
16765W        W33239   2.414  12.680   1.763  0.1150 -0.1297  0.1738
16766W        W33240   4.913   8.390  12.307  0.1824 -0.2740  0.2279
16767W        W33241   9.772   0.186   3.162  0.2160 -0.3237 -0.0609
16768W        W33242  15.978  10.093   5.978 -0.0260  0.0860 -0.1079
16769W        W33243   3.184  15.292   5.777  0.0489  0.1037  0.1691
16770W        W33244  15.534   6.240   0.678  0.1260 -0.0788  0.3392
16771W        W33245  10.065  14.971   3.606 -0.1017  0.0460  0.1585
16772W        W33246   5.538  13.636   2.731  0.1936 -0.1105 -0.0923
16773W        W33247   7.844   8.068  15.667 -0.2840  0.0649  0.0452
16774W        W33248   5.129   4.324   5.542  0.0834 -0.1327  0.2407
16775W        W33249  10.834   8.912  14.382 -0.1949 -0.1138  0.2200
16776W        W33250  16.907   3.299   6.542 -0.1876  0.2134 -0.0970
16777W        W33251  11.077  16.066   2.336  0.0637 -0.1936 -0.0377
16778W        W33252   7.111   3.919  14.071 -0.0454  0.0849  0.1075
16779W        W33253   6.491   5.752  14.586 -0.1326 -0.3038  0.0171
16780W        W33254   0.711  16.092  15.802 -0.2327 -0.0569  0.0816
16781W        W33255  12.628  13.152  13.550  0.1792  0.2790  0.0578
16782W        W33256   6.288   9.259   3.406  0.2080 -0.3157  0.1723
16783W        W33257  14.554   8.750  15.539 -0.0357  0.0266 -0.0954
16784W        W33258   5.331   8.647   1.192 -0.0578 -0.0167  0.1276
16785W        W33259   6.802   0.052  16.142 -0.2192  0.3472  0.1331
16786W        W33260  12.716   5.882  14.744 -0.3503  0.0063 -0.1483
16787W        W33261   5.385  11.110  14.262  0.0906 -0.1841  0.2957
16788W        W33262   3.457   8.855   4.384  0.0250  0.0803  0.0726
16789W        W33263  16.652  12.950  11.483 -0.2272 -0.1153  0.0523
16790W        W33264  13.298  14.779   4.551  0.1157  0.0715 -0.0408
16791W        W33265   9.379  13.264   0.949  0.1914  0.0421  0.0501
16792W        W33266  15.745   4.361  16.082  0.2488  0.0666  0.1969
16793W        W33267  16.349  13.168   0.609  0.0248  0.2245  0.1911
16794W        W33268   5.613   2.513   1.604  0.1121  0.2398  0.2028
16795W        W33269  12.717   9.254  12.028  0.1455 -0.1298 -0.1707
16796W        W33270  17.207   0.730  13.295  0.2413 -0.1746  0.0513
16797W        W33271  10.459  13.949   0.920  0.0294  0.1297  0.0062
16798W        W33272   7.138   0.030  15.267 -0.0408 -0.0883  0.2435
16799W        W33273  12.579   5.761  12.883  0.2090  0.1421 -0.1586
16800W        W33274  12.957  12.976   1.184 -0.3153  0.1141 -0.2847
16801W        W33275  10.804  15.896  16.554  0.3067 -0.4083  0.1835
16802W        W33276   8.394   2.053  13.356  0.0704  0.1246 -0.0010
16803W        W33277  17.484   4.411   1.326 -0.0371  0.4996 -0.0318
16804W        W33278   6.689   3.383   5.046 -0.1674 -0.1730 -0.1155
16805W        W33279   3.054  16.361   0.401 -0.1244  0.0405 -0.4767
16806W        W33280   6.052  12.925  12.867  0.0888  0.1227  0.5023
16807W        W33281   2.185   1.937  14.235 -0.0040  0.0238 -0.1237
16808W        W33282   2.678   6.276  12.419 -0.1273 -0.1594 -0.1790
16809W        W33283   5.869   9.280   4.763 -0.1370 -0.2622  0.0495
16810W        W33284   0.428   6.255   0.325 -0.1387  0.4158  0.3225
16811W        W33285   7.607   3.617  15.136 -0.1716  0.2430 -0.1621
16812W        W33286  11.148  12.860  14.849 -0.0999 -0.0259  0.0373
16813W        W33287   5.444   2.916   5.726  0.2180 -0.0788 -0.0868
16814W        W33288   2.550  12.989  11.749  0.0533 -0.2719 -0.1546
16815W        W33289   5.649   7.370  14.315  0.1351  0.0049  0.2366
16816W        W33290  14.872   5.069  12.257  0.0798 -0.0929 -0.0465
16817W        W33291  17.701   4.532   2.671 -0.0013  0.2452 -0.1046
16818W        W33292   3.181  14.778  15.849 -0.0075 -0.2777  0.0804
16819W        W33293  11.003  15.764   5.298  0.0295  0.2201  0.1591
16820W        W33294  11.539   6.833  12.637  0.0991  0.0930  0.1894
16821W        W33295   2.407  14.228  15.187 -0.2713 -0.2195  0.0197
16822W        W33296   9.526  10.146  14.774 -0.5298 -0.0528  0.0217
16823W        W33297   0.069   8.157  15.166  0.1792  0.1300 -0.1839
16824W        W33298   7.242   3.435  15.876 -0.0870  0.0941 -0.1545
16825W        W33299   3.736   7.693   1.538  0.0247  0.0479  0.4618
16826W        W33300  14.887   5.912  14.172 -0.2198 -0.1916 -0.0121
16827W        W33301   2.735  12.325  12.109 -0.1080  0.0935 -0.0272
16828W        W33302  15.645  14.626   2.277  0.0754  0.2678  0.0338
16829W        W33303   2.085   2.050   0.412 -0.1088 -0.0665  0.0627
16830W        W33304  14.388  11.317  13.875 -0.1463 -0.0270  0.2408
16831W        W33305   3.646   7.571  15.709 -0.3635 -0.2151 -0.0922
16832W        W33306   6.336  11.840  16.255 -0.1081 -0.0377  0.0073
16833W        W33307  13.916   7.264  15.383  0.1200  0.2282 -0.1260
16834W        W33308  13.484   1.876  12.703 -0.2896 -0.0364 -0.0039
16835W        W33309  11.940  15.196  12.952  0.1039 -0.0468 -0.0210
16836W        W33310   4.026   2.063   1.489 -0.2152 -0.0969 -0.1396
16837W        W33311  13.698   8.812  15.224  0.0724 -0.0441 -0.3555
16838W        W33312   8.119   3.938   3.402  0.2294 -0.0292 -0.0801
16839W        W33313   1.106  17.525   1.737 -0.2033  0.1682 -0.2125
16840W        W33314   4.394  13.000   3.899 -0.2995 -0.1162 -0.1809
16841W        W33315  14.086   0.344  12.188 -0.1624 -0.0204  0.0605
16842W        W33316  14.058  11.644  13.714 -0.0542 -0.1037 -0.2016
16843W        W33317   3.033   7.761  11.505 -0.1351 -0.2207  0.2641
16844W        W33318   9.785   3.113   4.098  0.1621  0.1772 -0.1841
16845W        W33319   4.337   0.699  15.514  0.3258  0.1291 -0.0853
16846W        W33320   1.752   8.253   2.095 -0.3184 -0.0560  0.0011
16847W        W33321  10.504   8.022   0.897  0.2197 -0.1784 -0.2317
16848W        W33322  11.584  14.479   2.778 -0.0555 -0.1847 -0.0483
16849W        W33323   7.191  14.029   4.483  0.1011 -0.2856  0.2288
16850W        W33324  10.809  12.422   1.466  0.2552 -0.1436  0.0681
16851W        W33325  10.210  15.717  13.798 -0.0522 -0.1288  0.1034
16852W        W33326   5.077   7.980  13.113  0.1744 -0.1245  0.1471
16853W        W33327   9.303   8.851  16.395  0.2154  0.0864  0.3557
16854W        W33328   7.806   0.498  14.221 -0.2240  0.0340  0.1908
16855W        W33329   6.095  15.061   0.558  0.0428  0.1365 -0.0905
16856W        W33330  16.832   0.370   3.800 -0.0354 -0.0279 -0.0199
16857W        W33331  17.429  12.656   5.474  0.0886  0.0053 -0.0421
16858W        W33332   1.283   0.549   4.055  0.3676  0.1726  0.1553
16859W        W33333   1.087  15.609  12.619 -0.1770  0.2665  0.4150
16860W        W33334   4.614   4.054  15.547  0.1403  0.0301  0.0324
16861W        W33335  17.727  11.774  13.267  0.2102  0.2215 -0.0167
16862W        W33336  14.952  12.969  16.899 -0.0763 -0.1542  0.3441
16863W        W33337  12.231  10.618   5.282  0.1302 -0.0463  0.0516
16864W        W33338   7.502  13.315   2.617  0.1919  0.0553  0.0863
16865W        W33339  16.328  10.201  13.187 -0.1453  0.4516 -0.2124
16866W        W33340   8.140  14.819   3.490  0.0755  0.1425  0.0337
16867W        W33341   9.398   1.628   3.112 -0.0094 -0.3368 -0.1583
16868W        W33342   8.929  15.327  11.259 -0.1179  0.1579 -0.0443
16869W        W33343   9.463   9.648   0.467 -0.0677  0.3526 -0.1537
16870W        W33344   5.424   8.228  15.569  0.1425 -0.0408 -0.2791
16871W        W33345   0.425   6.199  14.183  0.0301  0.1092 -0.1515
16872W        W33346   6.482   1.660   3.687  0.1457  0.0290  0.1774
16873W        W33347   3.887   2.761  13.418 -0.1888  0.0084 -0.0913
16874W        W33348   1.143  13.751  15.576 -0.0094  0.1562 -0.1382
16875W        W33349  15.032  10.427  11.688  0.0184  0.0951 -0.4223
16876W        W33350  13.782  12.282   1.986 -0.1708 -0.2608  0.0261
16877W        W33351  16.984  12.229   4.453  0.0999 -0.1511  0.0766
16878W        W33352   3.165  15.494  13.208 -0.2784 -0.2476 -0.2763
16879W        W33353  16.091  12.936   1.895  0.0523 -0.0765 -0.0064
16880W        W33354   2.433   0.514   3.455  0.1280 -0.1564 -0.1903
16881W        W33355  11.497   0.080   2.864 -0.1030 -0.0138 -0.0585
16882W        W33356  13.750   5.752  14.695 -0.2518  0.0099  0.0712
16883W        W33357   1.955   6.018  16.888  0.1545 -0.2340 -0.0251
16884W        W33358  13.974  15.340   5.154  0.2251  0.0606 -0.3253
16885W        W33359   2.957   9.832  16.153 -0.1609  0.0080  0.0826
16886W        W33360   9.701   4.590   1.038 -0.0927  0.1609 -0.0785
16887W        W33361   5.083   6.110  14.376 -0.1081  0.1990 -0.1630
16888W        W33362  10.280   1.330  15.690  0.0463 -0.2208 -0.0984
16889W        W33363   2.723   0.089  14.218  0.0651 -0.0083 -0.1544
16890W        W33364   3.501   3.618   0.237 -0.1584  0.2902  0.1764
16891W        W33365  14.042  17.521  16.407  0.0310  0.0894 -0.0902
16892W        W33366  12.447  15.006   1.065  0.1206 -0.0309  0.0164
16893W        W33367   3.053  15.344   1.195  0.0457 -0.0722 -0.1552
16894W        W33368  10.173   3.547  16.000 -0.0670  0.2145  0.1212
16895W        W33369   8.974   2.397   2.583 -0.1414 -0.1960 -0.5089
16896W        W33370  12.648   0.782  16.860 -0.0080  0.1760  0.1978
16897W        W33371   8.447   7.033  12.130  0.1732  0.0771 -0.2216
16898W        W33372  12.987   9.716   3.657 -0.1459  0.2238 -0.0887
16899W        W33373  15.894  14.552   0.897  0.2460  0.0627  0.0530
16900W        W33374   9.102  11.415  14.589  0.0971  0.1081 -0.0828
16901W        W33375   7.760   2.861   6.372  0.0196 -0.0665  0.1177
16902W        W33376   5.585   5.278  10.841 -0.1216 -0.0662 -0.1739
16903W        W33377   0.384   6.175  13.236  0.0798 -0.4839  0.2489
16904W        W33378   8.505  14.714   2.665 -0.0987 -0.0357 -0.2213
16905W        W33379  16.536   3.804   2.952  0.0288 -0.0364  0.1959
16906W        W33380   1.095  15.240   1.955 -0.2484 -0.2869 -0.3993
16907W        W33381  17.351   5.024   1.988  0.0130  0.0976 -0.0063
16908W        W33382   6.663  11.310   3.733 -0.0691  0.0351  0.2609
16909W        W33383   1.266   9.901   1.372 -0.1225  0.1402  0.0463
16910W        W33384   4.999   5.089   1.087 -0.1883 -0.2975 -0.2294
16911W        W33385   1.899   4.993   3.819  0.1496  0.0870 -0.2658
16912W        W33386   0.855  15.984   2.477  0.1518 -0.0599 -0.2705
16913W        W33387  17.074  17.667  11.365  0.0140 -0.1305  0.0876
16914W        W33388   5.354   9.732  14.592 -0.0763 -0.0670  0.1402
16915W        W33389   6.606   3.208  14.118 -0.0546 -0.0097 -0.0048
16916W        W33390  17.714   3.184   3.071 -0.0963  0.0541 -0.0936
16917W        W33391   9.543  12.100   5.725  0.2040  0.2373  0.0812
16918W        W33392   3.456   1.917  13.279  0.1961 -0.1433 -0.0290
16919W        W33393  12.488   3.185   5.556  0.3420 -0.1695  0.0347
16920W        W33394  13.911  16.390   4.304  0.1876  0.1436 -0.0728
16921W        W33395  12.561   4.158  14.696 -0.0427  0.2624  0.0540
16922W        W33396   5.562  16.263   2.593 -0.1737  0.0875  0.2627
16923W        W33397   7.867   2.396   2.665 -0.1328  0.2611  0.1367
16924W        W33398  14.644   8.229   6.506 -0.1029 -0.0486  0.0853
16925W        W33399  15.542  17.569  13.207  0.0393  0.1494  0.0727
16926W        W33400  14.888   4.001  13.878 -0.0421  0.4490 -0.1545
16927W        W33401  15.785  13.522  14.777 -0.4060 -0.0950  0.2670
16928W        W33402  12.063   2.379   3.310 -0.0527  0.3289  0.1124
16929W        W33403  16.408   0.854  16.626 -0.1994 -0.0869 -0.2657
16930W        W33404  16.577   1.444  12.925 -0.4005 -0.3316  0.1160
16931W        W33405   5.396  16.986  14.743 -0.1660  0.1987  0.1183
16932W        W33406  12.175  17.104   4.802 -0.1177  0.2419  0.0451
16933W        W33407   7.319  10.973   2.179  0.0880 -0.2656  0.1902
16934W        W33408   6.615   8.227  12.343  0.0618  0.3168 -0.2813
16935W        W33409  12.853   6.443   1.387 -0.0105  0.0486 -0.0522
16936W        W33410   2.525  10.698   1.546 -0.2938  0.0589  0.0861
16937W        W33411  17.415   5.479   2.189 -0.1475  0.0471  0.1695
16938W        W33412  15.067   9.594  16.560 -0.0270 -0.0111  0.0414
16939W        W33413  17.581   2.381  14.805  0.0724 -0.1599  0.2012
16940W        W33414   6.218  16.420  14.822 -0.0957  0.1341 -0.2275
16941W        W33415  16.194  17.663  12.361 -0.0415  0.2468  0.1082
16942W        W33416   9.738  12.493   0.143 -0.0751 -0.1836  0.0127
16943W        W33417  12.953  10.073   1.134 -0.0204 -0.1432  0.0825
16944W        W33418   4.191  11.430  15.505  0.2426 -0.1000 -0.0427
16945W        W33419   2.206  10.540  15.538 -0.2607 -0.2123  0.1687
16946W        W33420   5.791  12.781  13.458  0.0741  0.2021 -0.1475
16947W        W33421   3.176  15.815  14.366 -0.1582 -0.1469 -0.1696
16948W        W33422   3.000  13.252  10.996  0.2786  0.3351  0.0714
16949W        W33423  16.808   8.555   4.640  0.0321 -0.2731  0.0045
16950W        W33424   2.456  14.351   3.992 -0.0656  0.2059  0.0972
16951W        W33425   5.278   7.241   5.687  0.1808  0.2768 -0.0703
16952W        W33426  14.016  17.754   3.768  0.3398  0.1315 -0.0579
16953W        W33427  12.801   3.522   3.472  0.2285 -0.0009  0.1296
16954W        W33428  13.833  17.802  15.127 -0.1969 -0.0362  0.0967
16955W        W33429   0.783  16.132  13.079  0.2596  0.0280  0.2058
16956W        W33430  17.184   4.502  14.979  0.1924  0.1476  0.0196
16957W        W33431  10.364   9.858   1.720 -0.2002 -0.3410  0.4537
16958W        W33432   4.236  17.757   5.079  0.1832  0.1207 -0.0140
16959W        W33433  11.552   3.507  16.886 -0.2197 -0.1366 -0.0309
16960W        W33434   2.675  14.058  11.948 -0.1188  0.0427  0.2678
16961W        W33435   9.017   7.800   1.268  0.0328 -0.0353  0.1560
16962W        W33436  12.444  14.545   2.796 -0.0610  0.0204  0.0360
16963W        W33437  15.432  11.254  12.891  0.1497  0.2065  0.0763
16964W        W33438   8.639   4.408  13.682  0.0888 -0.0652  0.0919
16965W        W33439  14.176   1.808   0.157 -0.0366 -0.1217  0.2581
16966W        W33440   2.411   6.021  16.731  0.1552  0.1737  0.0966
16967W        W33441   1.648  15.044   2.131 -0.0256  0.2037 -0.4090
16968W        W33442   1.297  13.256  15.692  0.0448  0.0823 -0.3274
16969W        W33443   1.469   9.317  15.751  0.2068 -0.2348  0.1118
16970W        W33444  10.893   0.109  11.670  0.1422 -0.0399  0.0468
16971W        W33445  10.768  13.100   2.152  0.2089 -0.1165 -0.0885
16972W        W33446  16.643  16.218   4.593  0.2741 -0.1546  0.4095
16973W        W33447   3.048   1.658   5.627 -0.1472 -0.2367 -0.1980
16974W        W33448   3.761  16.988   4.622 -0.2251  0.0451 -0.0950
16975W        W33449   6.559  17.770  12.097  0.0972 -0.0405  0.0146
16976W        W33450  15.257   2.546  13.458 -0.2139 -0.0369 -0.2693
16977W        W33451  13.744   4.501  14.118 -0.1059 -0.0841 -0.1345
16978W        W33452  16.674   5.212   5.111  0.0953  0.0037  0.0773
16979W        W33453   1.468  14.147  16.615 -0.4380 -0.1543  0.1823
16980W        W33454   7.071  16.807   5.700  0.3811  0.0408 -0.1317
16981W        W33455  12.066  10.277   4.382 -0.3523  0.0216 -0.0567
16982W        W33456   1.631   4.441  13.538  0.0150  0.1351 -0.2364
16983W        W33457   6.784  17.328   1.759 -0.2850  0.0929  0.0555
16984W        W33458   9.824   3.340   2.729 -0.0171 -0.0015  0.1362
16985W        W33459  13.039   4.100  14.041 -0.1620  0.2223 -0.1138
16986W        W33460   8.063   4.021  14.336 -0.0649  0.4612  0.0581
16987W        W33461   4.277  12.341  11.989  0.1673 -0.3740 -0.0218
16988W        W33462  13.976  14.640  16.733  0.2877 -0.1195 -0.2066
16989W        W33463   3.214  14.705   5.674  0.2194  0.0044 -0.1393
16990W        W33464  11.859  17.807   2.136  0.0766 -0.0787 -0.1077
16991W        W33465  10.911  12.357   2.891  0.1851  0.3401 -0.1966
16992W        W33466   1.223  12.863  15.320  0.1493  0.1013  0.0544
16993W        W33467   1.099   9.085  13.623 -0.2606  0.0136  0.0967
16994W        W33468   4.680  13.444  11.825  0.1567  0.0334 -0.2054
16995W        W33469   9.694  15.507  15.938  0.2086 -0.0602 -0.1073
16996W        W33470   4.414  16.405   1.737 -0.1001 -0.1990  0.0220
16997W        W33471   4.411   9.572   2.233  0.0387  0.1551  0.1296
16998W        W33472  10.202   9.707   1.294 -0.0806  0.2715  0.0328
16999W        W33473   1.203   4.302   2.631  0.0496  0.2929  0.0457
17000W        W33474  14.995   6.881   3.932 -0.1103 -0.0298  0.0605
17001W        W33475  10.843   5.715  12.207 -0.0392 -0.2646  0.0327
17002W        W33476  15.219   7.560  15.385  0.1122 -0.0171  0.2354
17003W        W33477   5.656   2.195  13.648  0.0323  0.1140 -0.1391
17004W        W33478   7.519  14.809   2.836 -0.1000 -0.1887  0.0770
17005W        W33479   5.100   3.224  16.470  0.4516  0.1767  0.1182
17006W        W33480  11.976   9.882   5.773 -0.1144  0.3192  0.1707
17007W        W33481  13.977   9.187   2.552  0.0004  0.2109 -0.1475
17008W        W33482  16.110   4.704  11.526 -0.0216  0.1747  0.1472
17009W        W33483   2.189   6.836   3.657 -0.0188  0.1069  0.0738
17010W        W33484   8.852  16.197   5.487  0.2074 -0.0675  0.0566
17011W        W33485  17.113  13.342   0.013  0.0686  0.0563  0.2896
17012W        W33486  14.122  13.381  12.031 -0.0954  0.0781  0.2041
17013W        W33487  16.210   5.161  11.933 -0.0231 -0.0328 -0.3050
17014W        W33488   6.668   2.919   5.701 -0.0179  0.0931 -0.1279
17015W        W33489  14.941  16.568   5.158  0.3567 -0.0038 -0.1206
17016W        W33490   9.278   7.429  11.806  0.1038  0.3278 -0.1575
17017W        W33491  14.877  11.926  14.721  0.0741 -0.1131  0.1027
17018W        W33492  17.399   0.224  13.096 -0.2334 -0.1017  0.1623
17019W        W33493   1.237   2.298   1.160 -0.1164  0.1341 -0.1545
17020W        W33494   5.091  12.850   2.662 -0.2850 -0.0877 -0.0320
17021W        W33495   8.131   0.760   1.771  0.0138 -0.0050  0.1940
17022W        W33496   3.519   7.104   3.117 -0.2330 -0.1376  0.1411
17023W        W33497   0.247   9.922  15.848  0.2311 -0.3072  0.1575
17024W        W33498  17.743   3.008   2.018  0.1608  0.0264 -0.2060
17025W        W33499  15.854   5.152  13.966 -0.1520  0.2893 -0.0801
17026W        W33500  11.672  14.769  14.593  0.0629 -0.0642  0.2712
17027W        W33501  12.121  15.456  11.567  0.0922 -0.1101 -0.0907
17028W        W33502   7.106  12.731   3.021  0.2448 -0.2729 -0.2170
17029W        W33503  17.212   8.995  14.418  0.0101 -0.3512  0.4559
17030W        W33504   4.301  13.083   4.738  0.0529 -0.2067  0.2668
17031W        W33505   4.613  12.072  15.999  0.0406 -0.0619  0.0640
17032W        W33506  14.967   8.882  12.245  0.0094  0.3704  0.0300
17033W        W33507  16.423  12.485   1.274 -0.0503 -0.0751 -0.1580
17034W        W33508  13.825   6.523   0.345  0.3474 -0.3753  0.2154
17035W        W33509   6.739  11.547  11.426  0.0070 -0.1177  0.1072
17036W        W33510   4.786  11.972   2.747  0.1078  0.0310  0.1628
17037W        W33511   7.637   1.500   2.294  0.0245 -0.1242  0.1686
17038W        W33512   4.653   0.455   4.979 -0.1186 -0.0253  0.1604
17039W        W33513  13.113   4.786  13.457 -0.0910  0.1278 -0.1407
17040W        W33514   1.136   5.390   0.454  0.0155 -0.0647  0.1092
17041W        W33515  15.445   8.074  14.327 -0.0204 -0.1054 -0.0711
17042W        W33516  11.301  12.822  14.117 -0.2747  0.1594 -0.1684
17043W        W33517   2.771   7.815  12.498  0.0985  0.2371  0.3841
17044W        W33518   8.315   4.839  12.110 -0.1551 -0.1882 -0.3752
17045W        W33519  14.240   2.909   0.971  0.3583 -0.2045  0.0747
17046W        W33520  11.225   8.593  14.570  0.0294 -0.1414  0.1742
17047W        W33521   6.623   8.481   0.499  0.0999  0.1587  0.0130
17048W        W33522   5.472   8.617   1.973 -0.1679  0.0025 -0.3148
17049W        W33523   0.595   4.988   5.866 -0.0705  0.1194  0.1528
17050W        W33524   4.832   6.581   6.106 -0.1614 -0.1400 -0.1020
17051W        W33525   2.266   7.940  13.646  0.1313  0.2820  0.0833
17052W        W33526  13.662   0.374   2.515  0.0793 -0.1410  0.1638
17053W        W33527  13.698   4.953  12.180  0.1481 -0.2996  0.0446
17054W        W33528  17.414   0.671  14.126 -0.1252  0.0053  0.1076
17055W        W33529  14.470   2.740  16.880  0.0425 -0.0399 -0.3796
17056W        W33530   7.790   7.349   4.287 -0.1236 -0.2122 -0.0516
17057W        W33531   0.566   2.799   1.998 -0.0463 -0.0184  0.2241
17058W        W33532   5.466   5.613   0.652 -0.2722 -0.1574  0.1440
17059W        W33533  10.741   4.598   4.826  0.0474  0.0731 -0.1312
17060W        W33534  10.328   0.848   1.194 -0.1854 -0.2254 -0.0524
17061W        W33535  11.626  15.398   2.067 -0.0578 -0.1672  0.1442
17062W        W33536   4.038  17.622   0.054 -0.1620 -0.2227 -0.2659
17063W        W33537   3.050   5.960  11.570  0.3452 -0.2104  0.0186
17064W        W33538   1.306   9.517   3.858  0.3401  0.0040 -0.2547
17065W        W33539   2.634   7.280   0.394 -0.1333 -0.3302 -0.3453
17066W        W33540  11.178  16.195  12.989  0.2088  0.0220  0.4603
17067W        W33541   6.473  13.515  13.380  0.0252 -0.2809  0.0177
17068W        W33542   4.936   8.823  16.907  0.2964 -0.0401 -0.1240
17069W        W33543   1.536   3.446  14.743 -0.0525 -0.2839  0.3832
17070W        W33544  13.281  17.424   4.560 -0.0772 -0.2568  0.1027
17071W        W33545   5.784   0.555   3.417  0.0191 -0.0036 -0.0075
17072W        W33546  16.462   8.029   1.311  0.1447 -0.0496  0.0905
17073W        W33547   2.196   2.716   4.018  0.1803 -0.0921  0.1015
17074W        W33548   2.252   3.219   4.930  0.2542  0.1929 -0.0364
17075W        W33549   3.850   7.050  16.563  0.0630 -0.2180 -0.1598
17076W        W33550   9.007   1.420  12.921  0.0778 -0.0428  0.0404
17077W        W33551  12.261   6.627  14.692 -0.0062 -0.0376 -0.0397
17078W        W33552  11.172   1.808   3.899 -0.0841 -0.1597 -0.3014
17079W        W33553  12.941   6.679  13.083 -0.0082  0.1246 -0.0496
17080W        W33554  12.819   6.983  13.561 -0.0541 -0.1131  0.0912
17081W        W33555  12.268   1.806  13.332 -0.1905 -0.2161 -0.4252
17082W        W33556  16.476  12.245  14.616  0.0371 -0.0536  0.0356
17083W        W33557   3.269   8.351  14.718 -0.1635  0.2135 -0.0027
17084W        W33558   6.763   6.285   0.414  0.1687  0.0064  0.0044
17085W        W33559   9.606   2.567  15.657 -0.0028 -0.0560  0.0198
17086W        W33560  15.231   4.260  15.634 -0.1026  0.3759  0.0767
17087W        W33561   2.081  11.461   1.296  0.0005  0.0602 -0.0730
17088W        W33562  11.927   3.104  16.808  0.0959  0.1371  0.1499
17089W        W33563  12.946  10.399  15.325 -0.2793 -0.1278 -0.0664
17090W        W33564  16.782  11.726   5.155 -0.2410  0.3072 -0.2357
17091W        W33565  17.057  11.061  14.700  0.1461  0.1656  0.1716
17092W        W33566   6.160   1.566  16.193  0.0445 -0.1200  0.3199
17093W        W33567  15.890   5.591   2.371  0.0788 -0.0024 -0.3334
17094W        W33568  10.183  15.087  13.138 -0.0673  0.1109 -0.0379
17095W        W33569   8.982  10.946  14.607  0.0744 -0.2311 -0.1860
17096W        W33570   4.653   7.955   3.183 -0.3549  0.2502 -0.0287
17097W        W33571   4.281  15.688   4.745 -0.4395  0.0649 -0.0931
17098W        W33572  16.691  12.826   0.821  0.3310 -0.0729  0.0081
17099W        W33573   1.302  15.391   0.419 -0.1890 -0.1726 -0.2913
17100W        W33574  15.084   6.479   5.176  0.4031  0.3455 -0.2153
17101W        W33575  12.482   1.467  13.704 -0.1802  0.1702  0.0291
17102W        W33576   9.757   9.031  12.915  0.0066  0.0779  0.3346
17103W        W33577   3.044   6.358  13.546 -0.0539  0.1076 -0.1308
17104W        W33578   3.037   8.072   2.663 -0.1095 -0.1129 -0.0093
17105W        W33579   9.640   9.246  14.947  0.1127  0.1833  0.0311
17106W        W33580  10.634   1.878  14.924 -0.1757 -0.0737 -0.1319
17107W        W33581   6.512   6.291  14.252 -0.1939 -0.3065 -0.1369
17108W        W33582  15.143  12.931   3.186 -0.0104  0.0200  0.1005
17109W        W33583   8.601   9.310  14.731  0.0812  0.0592  0.0204
17110W        W33584   6.630   6.845   3.914  0.0728 -0.0151  0.0447
17111W        W33585   6.464  16.014   1.631 -0.0581 -0.1749 -0.2581
17112W        W33586  13.367   4.959  15.134  0.0261 -0.1041  0.1092
17113W        W33587   9.430  17.361   5.114 -0.1586  0.2621 -0.3263
17114W        W33588   4.902  13.408  14.694 -0.2623  0.0661  0.0365
17115W        W33589  12.577   9.189  12.470  0.1113 -0.0309 -0.0405
17116W        W33590   6.882  14.822   1.564  0.0762  0.0596  0.1587
17117W        W33591   8.962   5.069  12.826 -0.1810  0.2100 -0.3972
17118W        W33592  12.902   9.271   1.540 -0.0872  0.0957  0.4082
17119W        W33593  13.672   9.589  11.699  0.1277  0.1176 -0.2837
17120W        W33594  15.155   0.380   1.712  0.1681  0.2925 -0.0483
17121W        W33595   9.810  17.598  14.023  0.0829  0.1403 -0.2086
17122W        W33596   5.222   4.863   4.299  0.1276  0.1604  0.0302
17123W        W33597   9.418   9.706   3.193  0.0031  0.1718 -0.2492
17124W        W33598  12.507  10.417   4.113  0.2516  0.2178 -0.0980
17125W        W33599   6.169  11.145   0.819 -0.3736  0.2993 -0.3571
17126W        W33600  14.030   3.257   6.337 -0.3577 -0.4290 -0.0642
17127W        W33601  13.949  15.451  15.833 -0.0873  0.2957 -0.0323
17128W        W33602  14.782   1.158   4.945  0.3749 -0.0754  0.0839
17129W        W33603   7.864   4.727  11.796  0.1474  0.1696 -0.0953
17130W        W33604   8.323   1.732  12.966 -0.3469 -0.2816 -0.0019
17131W        W33605  16.712   8.701  16.197 -0.1356 -0.1722  0.1526
17132W        W33606   4.491   8.388  16.447  0.1051  0.0225  0.3283
17133W        W33607  15.907   0.881  15.268  0.1037 -0.0268  0.1119
17134W        W33608  10.854  12.501  16.358  0.0182 -0.0288  0.1182
17135W        W33609   3.443   1.387   0.880 -0.0826 -0.2091 -0.1045
17136W        W33610   9.572  17.063   4.546 -0.1618  0.1901 -0.0898
17137W        W33611   4.248   7.116   2.727  0.0216  0.1258 -0.0960
17138W        W33612  14.514  13.218   0.142 -0.1387 -0.5019 -0.2290
17139W        W33613   0.616   0.087   2.307  0.0357  0.0728 -0.1772
17140W        W33614  10.178  12.118  14.602 -0.2000 -0.0807  0.1955
17141W        W33615  10.395  10.024   2.210  0.1955  0.0276 -0.1527
17142W        W33616   2.020   9.111  11.919  0.0148  0.1433 -0.0757
17143W        W33617  11.624  12.591  13.140  0.1247 -0.2658  0.2428
17144W        W33618   5.984   0.316  13.131 -0.1060  0.1378 -0.1603
17145W        W33619   6.016   7.513   1.567 -0.0068 -0.1113  0.0017
17146W        W33620   7.498  15.965  11.530  0.1484 -0.0207 -0.2254
17147W        W33621   7.987   4.263  11.622 -0.0107  0.0275 -0.1557
17148W        W33622   8.697  12.717   5.434  0.2160 -0.0355  0.1057
17149W        W33623   5.134  16.182   1.324  0.2043  0.4574 -0.2509
17150W        W33624   2.135  12.393  15.404 -0.3084 -0.0024 -0.2331
17151W        W33625   0.394   2.222   3.174 -0.3751 -0.1459 -0.1293
17152W        W33626   4.028   3.286  15.136  0.0115 -0.1026 -0.0636
17153W        W33627   1.202   1.436   5.676  0.2422 -0.2100  0.1933
17154W        W33628  14.706  14.191   2.278  0.0009 -0.1669  0.2864
17155W        W33629   7.062   4.478  15.562 -0.1148  0.0191 -0.0844
17156W        W33630  10.479  10.426  13.187  0.3280  0.0121  0.1644
17157W        W33631  11.939  14.906   0.816 -0.1303  0.1612  0.0662
17158W        W33632   1.038   3.988   3.379  0.2673  0.1641 -0.1812
17159W        W33633   7.201  12.943   0.466 -0.3683 -0.0826 -0.3373
17160W        W33634   1.177  10.266   4.559  0.1473  0.0321  0.3661
17161W        W33635  15.201   6.829  13.909 -0.3356  0.0737 -0.3557
17162W        W33636   1.500   6.308  14.197 -0.0264  0.1727  0.1455
17163W        W33637  15.410   6.215  15.693  0.0450 -0.5089 -0.2258
17164W        W33638   8.823  11.777  13.491  0.1158 -0.0282  0.0111
17165W        W33639  15.715   5.504  12.486  0.2209 -0.1063 -0.1865
17166W        W33640   6.801  14.972   3.150 -0.0545 -0.2204  0.0031
17167W        W33641  15.157   0.625   3.037 -0.1175 -0.2901 -0.1659
17168W        W33642  17.226  15.256  12.374 -0.1609  0.0581  0.2653
17169W        W33643   4.535  16.739   1.044 -0.3315 -0.0563 -0.0658
17170W        W33644   4.343  17.075   5.672  0.1011 -0.2693  0.2942
17171W        W33645   4.286   2.868  15.228  0.1797  0.1990 -0.0100
17172W        W33646  16.625  12.944  12.619 -0.2582  0.1282  0.0794
17173W        W33647  13.748  10.605   1.632  0.1245 -0.2446 -0.5471
17174W        W33648   3.007  12.700   4.081  0.3812  0.1651  0.1338
17175W        W33649  16.447   9.499   4.794  0.1334  0.4274 -0.0418
17176W        W33650  12.580  15.839  10.669  0.2261  0.2457 -0.0049
17177W        W33651   6.167  16.825   1.032  0.4892 -0.0895 -0.0519
17178W        W33652  11.881   4.404   3.888 -0.1875 -0.1592 -0.2086
17179W        W33653   0.139   4.347   1.706  0.1375  0.2129 -0.1147
17180W        W33654  12.695  15.266  15.340 -0.0620 -0.1592 -0.2657
17181W        W33655  17.484   8.635   0.497  0.1511 -0.2615 -0.0889
17182W        W33656  16.170   6.907   1.144  0.2493  0.2346 -0.1804
17183W        W33657  10.371  10.373   4.553  0.1046  0.0195 -0.2787
17184W        W33658   4.940   1.421   1.951 -0.2218 -0.1347 -0.0148
17185W        W33659   6.398   2.181   5.571  0.2770 -0.0020 -0.0433
17186W        W33660   3.247  15.893   0.900 -0.0033  0.1137 -0.0851
17187W        W33661   8.968  17.000   2.432 -0.1414  0.1494  0.0567
17188W        W33662   7.659  16.812   3.033 -0.3307  0.0511  0.1251
17189W        W33663  10.916   5.782   0.861 -0.2738  0.1752 -0.0247
17190W        W33664   8.746   6.329   3.482 -0.2207 -0.2855  0.2271
17191W        W33665  14.896   5.680  12.030 -0.0766 -0.3778 -0.3610
17192W        W33666  12.188   6.302  12.175 -0.0434 -0.2044 -0.1371
17193W        W33667  17.622  10.908  11.399  0.1419  0.2271  0.2525
17194W        W33668  13.447   2.682  13.773 -0.4112 -0.2035  0.1441
17195W        W33669   8.614  15.350   2.437  0.1448  0.1597  0.1880
17196W        W33670   6.830   8.595   4.962  0.0272 -0.1052  0.2493
17197W        W33671   0.091   3.959  11.730  0.0945 -0.0101 -0.2907
17198W        W33672  12.957  13.110   0.247  0.0794  0.1723 -0.0057
17199W        W33673  15.629  11.256  11.977  0.0200  0.0268  0.0132
17200W        W33674  14.059   4.777   3.024 -0.1049  0.1752  0.1810
17201W        W33675  12.580   7.119   1.919  0.0070 -0.3436 -0.0527
17202W        W33676  14.080   5.331  16.483  0.3577  0.0998 -0.1776
17203W        W33677   5.236   3.551  15.031  0.0106 -0.0368  0.0598
17204W        W33678   3.721   3.759  15.286 -0.1197  0.2842 -0.2761
17205W        W33679   3.820  11.038  15.748 -0.1506  0.2403 -0.1530
17206W        W33680   1.958  11.566  11.775  0.0163 -0.2096 -0.0759
17207W        W33681  15.494   0.075   1.988  0.0304 -0.1300 -0.0427
17208W        W33682  14.254   2.459  15.673  0.0310 -0.3307  0.0875
17209W        W33683   1.725  16.212   3.465  0.2697 -0.2256  0.1955
17210W        W33684  15.742  15.715  14.405  0.1293 -0.1021 -0.1794
17211W        W33685   5.125   0.463  15.375 -0.0976  0.1381  0.0518
17212W        W33686  13.452   7.653   3.085  0.1196  0.0726 -0.0389
17213W        W33687   8.334   7.272   5.115 -0.3371  0.1813  0.0174
17214W        W33688   0.148  16.728  14.891  0.2216  0.0433  0.4227
17215W        W33689  12.481  11.012   2.001  0.1457  0.0962 -0.1036
17216W        W33690  13.062   1.075  16.547 -0.0100 -0.1403  0.0233
17217W        W33691  15.218   1.059  13.951 -0.1587  0.0086  0.2594
17218W        W33692  12.671   0.575   5.596  0.0329 -0.2109 -0.2528
17219W        W33693  11.635   0.266  15.618 -0.1450 -0.2902 -0.1141
17220W        W33694   5.961   3.730   4.872 -0.0551 -0.1588 -0.0441
17221W        W33695   4.509  17.738  15.806  0.0357  0.1443  0.1577
17222W        W33696  16.059  14.035  11.735 -0.2015 -0.0273 -0.0426
17223W        W33697  14.106  13.106  11.345 -0.0183 -0.0857 -0.0737
17224W        W33698   5.258   0.548   2.252  0.1948 -0.2453  0.0374
17225W        W33699  16.624   4.912  16.035 -0.0515  0.0436  0.3309
17226W        W33700   5.017   8.187   0.730  0.0635 -0.1362 -0.0761
17227W        W33701   3.309   6.386  11.758  0.2672 -0.0347  0.1243
17228W        W33702   1.671  16.389   2.979  0.1843 -0.4300 -0.3151
17229W        W33703  13.700  17.075  11.284 -0.0362 -0.0521 -0.1674
17230W        W33704  17.764  13.877   2.047  0.0325  0.0727  0.1200
17231W        W33705  15.861  13.545  16.626  0.3862 -0.0269 -0.0231
17232W        W33706  10.063   1.587   0.634 -0.1528 -0.0527 -0.0779
17233W        W33707   4.243   4.390   5.016 -0.1085 -0.5181 -0.3491
17234W        W33708  14.723  14.808   3.769  0.1791  0.0688 -0.1914
17235W        W33709  10.051   2.373  12.644 -0.0568 -0.3187  0.1082
17236W        W33710  11.267  12.870  16.340 -0.0764  0.1893  0.2619
17237W        W33711  16.244   6.716   1.642 -0.0135  0.1128 -0.3116
17238W        W33712  11.517   4.357  13.666 -0.1371  0.0953 -0.0469
17239W        W33713   1.276   0.118  14.166  0.1249  0.2573 -0.1776
17240W        W33714   4.952  16.283   5.792  0.1113 -0.1283 -0.2884
17241W        W33715  10.166   0.831  12.825 -0.3128  0.1809  0.1302
17242W        W33716   0.110   7.163   0.584 -0.0986 -0.1230  0.4836
17243W        W33717  15.195  14.375  14.902  0.0598  0.1104 -0.0600
17244W        W33718  16.343  10.801   4.545  0.5119  0.3746  0.0153
17245W        W33719  11.416  13.324  12.664 -0.1320  0.1075  0.0860
17246W        W33720   8.550   6.739  12.543 -0.3081  0.2619 -0.0698
17247W        W33721  11.021   4.628  12.890  0.1365  0.0168 -0.0343
17248W        W33722   1.705  10.398   2.697  0.4931  0.0463  0.0027
17249W        W33723  14.491   1.424  13.631  0.1212 -0.0188  0.1001
17250W        W33724   3.563  11.901   1.039  0.1808 -0.5806 -0.1204
17251W        W33725   0.140  16.939  13.597  0.1398  0.0169  0.0798
17252W        W33726   0.407   6.976   4.385 -0.0796 -0.0935  0.3554
17253W        W33727  11.169  10.683   2.077  0.3383 -0.3120 -0.1007
17254W        W33728   2.884   3.333   2.879 -0.1150 -0.1421  0.0134
17255W        W33729   0.032   5.364  16.414  0.0223 -0.1185 -0.0856
17256W        W33730   3.311  11.608   5.254 -0.1314  0.0253 -0.4118
17257W        W33731   3.503   3.976   0.586 -0.1380 -0.1655  0.3026
17258W        W33732   8.241  16.115   4.696 -0.0091 -0.1634  0.0569
17259W        W33733   0.775   8.450  15.638 -0.0423  0.0692 -0.0233
17260W        W33734  11.125  10.003   4.826  0.0110  0.4258  0.0844
17261W        W33735   9.977  17.202   3.691  0.1013 -0.2998 -0.0058
17262W        W33736   2.529  16.185  11.703 -0.1066 -0.1664  0.1945
17263W        W33737   4.500  16.373   5.466 -0.0041  0.2556 -0.3121
17264W        W33738   6.848  10.083  14.905  0.0918 -0.1203 -0.0656
17265W        W33739   0.999   0.318   5.393  0.1286 -0.0896 -0.5237
17266W        W33740  16.122   3.102   1.331 -0.2828 -0.0151 -0.2626
17267W        W33741  17.445   0.820  16.664  0.0647  0.2105  0.0903
17268W        W33742   0.373   5.323   0.081 -0.0147  0.1066 -0.2149
17269W        W33743  13.273  14.662  13.519 -0.2947 -0.1246  0.0409
17270W        W33744   8.414  16.327   1.409  0.1612  0.0402  0.1833
17271W        W33745  16.069   6.607  14.746 -0.1670 -0.4363 -0.2156
17272W        W33746   3.273  15.109  14.875  0.0611  0.0228  0.0471
17273W        W33747   7.395   3.694  12.344 -0.0370  0.3156  0.0750
17274W        W33748   1.708   8.317  12.914 -0.1027 -0.0349  0.2630
17275W        W33749   8.872   0.523  13.560 -0.3200 -0.0065 -0.1497
17276W        W33750  13.525  14.205  14.753  0.1565  0.2896 -0.0729
17277W        W33751  13.420  17.598  11.730  0.1090 -0.1251  0.1184
17278W        W33752  11.943   5.389  14.964  0.1539  0.0365  0.0185
17279W        W33753   0.362   0.838   0.568  0.1232  0.1915 -0.1195
17280W        W33754   1.082   0.371   2.415 -0.0764 -0.1525 -0.0561
17281W        W33755  13.318  12.533  15.754  0.1311  0.0705 -0.0387
17282W        W33756  13.776   8.237  13.216  0.2653 -0.1253  0.1701
17283W        W33757   6.149   8.990  12.583 -0.4090 -0.0179  0.1231
17284W        W33758  11.640   7.159   5.751  0.0040  0.0673 -0.4729
17285W        W33759   0.090  15.070  13.586  0.2002  0.1109 -0.0805
17286W        W33760   1.992   2.943   5.258 -0.1142  0.0808  0.0980
17287W        W33761  13.289   1.964   2.303 -0.0009  0.0558  0.2601
17288W        W33762  15.978  14.553   2.658  0.2061 -0.0576  0.3061
17289W        W33763  13.479   9.732   2.767  0.1936  0.1978  0.0127
17290W        W33764  11.617  11.385   3.730  0.0002  0.2038  0.0779
17291W        W33765  11.449  11.991   1.013  0.0622  0.2488  0.0896
17292W        W33766   4.236  13.228  15.608  0.0110  0.0708 -0.2056
17293W        W33767   8.552   6.177  14.845 -0.0858 -0.1047  0.2314
17294W        W33768   2.144  12.459  11.955  0.1170 -0.0907 -0.1274
17295W        W33769   4.894  12.632   2.076 -0.0905 -0.1224  0.2354
17296W        W33770  13.576   7.490   0.432 -0.3715 -0.0291 -0.1816
17297W        W33771   0.457  14.030   4.466  0.0729  0.0281  0.0995
17298W        W33772   8.286   9.049  15.984 -0.0142  0.1310 -0.0989
17299W        W33773  14.705   4.670   1.232  0.4024 -0.0102 -0.0961
17300W        W33774   9.744   5.363  15.993 -0.0137  0.1335  0.1307
17301W        W33775  14.254   1.829  14.145 -0.2891 -0.0512  0.0184
17302W        W33776   2.659   2.525   0.228  0.0618 -0.0435  0.0356
17303W        W33777  14.700   7.301  15.166  0.1369 -0.0122 -0.0586
17304W        W33778  13.204  12.430  13.157  0.1176 -0.1969  0.2653
17305W        W33779   2.568   1.703   5.760 -0.2515 -0.0500  0.1079
17306W        W33780  14.082  13.282  16.096 -0.2770  0.2404 -0.2743
17307W        W33781  16.823   1.373   4.444 -0.3373 -0.0799  0.2469
17308W        W33782  10.762   6.185  11.985 -0.3198  0.5081 -0.0715
17309W        W33783  14.930  17.115  13.592 -0.0733  0.0930  0.0016
17310W        W33784   3.272  11.556  14.424 -0.0329  0.0074 -0.0881
17311W        W33785  12.738   8.637   4.732 -0.0742  0.0693 -0.0163
17312W        W33786   7.813  14.235  14.885  0.1427 -0.0148 -0.3151
17313W        W33787  11.779   1.936  16.539 -0.1967  0.0565 -0.0755
17314W        W33788   9.911   0.059  14.567 -0.1635  0.1160 -0.1239
17315W        W33789   6.784  17.815   5.536 -0.0970 -0.0948  0.0336
17316W        W33790   1.695  14.707   1.298 -0.0761  0.0525  0.3287
17317W        W33791  16.016   0.080   1.896 -0.0927  0.1770 -0.3204
17318W        W33792   7.146   7.409   4.447 -0.0458 -0.0052 -0.1817
17319W        W33793  14.434   2.091   3.704  0.0416 -0.0323 -0.2406
17320W        W33794   0.637  16.350   5.414  0.0482  0.0808 -0.1874
17321W        W33795  12.680  16.491   0.234 -0.1498 -0.3359  0.0309
17322W        W33796  14.614   2.850  13.141 -0.0292  0.0134  0.0549
17323W        W33797   3.377   7.489   1.847 -0.0522  0.0346  0.2264
17324W        W33798  13.726  11.906   0.109  0.2252 -0.2940 -0.0103
17325W        W33799  16.022   0.484   5.110  0.2925  0.2520  0.1580
17326W        W33800   9.439   4.017   0.161  0.1278  0.0788  0.2399
17327W        W33801  12.878  10.293   0.371  0.0108  0.2641  0.0718
17328W        W33802   6.605   6.511   1.438 -0.3296  0.3527  0.2021
17329W        W33803   0.057  11.049   4.235  0.1214 -0.1065 -0.0403
17330W        W33804  11.362  15.484   1.669  0.3836  0.1638 -0.0460
17331W        W33805  13.368   5.267   0.924 -0.1592 -0.0120  0.2804
17332W        W33806  12.124   2.620  15.871  0.0953 -0.1334 -0.1529
17333W        W33807   2.962   9.162  16.786  0.0798  0.2654  0.2369
17334W        W33808  17.007   0.890  12.038 -0.0038  0.2087  0.0619
17335W        W33809   8.934   4.815  13.783  0.3074 -0.1721 -0.0508
17336W        W33810   0.413   4.430   0.426 -0.0929 -0.1407 -0.0329
17337W        W33811  11.328  14.905   1.591 -0.0279 -0.1596  0.0101
17338W        W33812  14.607   3.998  16.686  0.0141  0.1478  0.0908
17339W        W33813   4.110   7.905  11.572  0.0615  0.0812  0.3389
17340W        W33814  12.753  10.978   1.592  0.0867  0.1967  0.0957
17341W        W33815   6.923   2.845  11.893  0.1722  0.1108  0.2368
17342W        W33816   6.164   8.852  16.245  0.2346  0.1977 -0.2400
17343W        W33817  17.149   6.390  15.141  0.0652  0.0472  0.0629
17344W        W33818  11.723   0.073   0.580  0.2786 -0.1007 -0.2505
17345W        W33819   4.980  14.707  14.309 -0.0340  0.2600 -0.3595
17346W        W33820   7.201   6.044  14.229 -0.1622 -0.0869  0.1131
17347W        W33821   2.057  15.243  13.684 -0.3069  0.2083 -0.4373
17348W        W33822  10.042   2.531   3.966  0.0701 -0.0856 -0.1011
17349W        W33823   3.404   0.921   3.355  0.0002  0.2811  0.0988
17350W        W33824  12.566   6.549   2.745  0.0968  0.0080  0.0191
17351W        W33825   6.683  11.142   5.376  0.2527 -0.2955 -0.0377
17352W        W33826   6.186  13.066  15.183 -0.0385  0.1144 -0.1370
17353W        W33827   9.052  13.866  16.751  0.1946 -0.1974  0.0958
17354W        W33828   0.393   1.954  14.959 -0.1122  0.1661  0.0258
17355W        W33829   8.400  17.276   1.757  0.1138 -0.0327 -0.0361
17356W        W33830  12.856   0.106  16.720 -0.4019  0.0902  0.2715
17357W        W33831  12.284   9.480  14.348  0.1502  0.1469  0.0171
17358W        W33832   4.143  16.162  16.322  0.0142  0.3209  0.0908
17359W        W33833   7.366  15.746  11.979  0.1058 -0.1742  0.0019
17360W        W33834   3.990  13.344   3.392  0.0088 -0.0514  0.0300
17361W        W33835   4.483   6.537  12.773  0.0321  0.1060  0.3374
17362W        W33836   4.175  10.416  12.476 -0.0990  0.1209 -0.0608
17363W        W33837   3.835   3.682   3.317  0.3102  0.0045 -0.3550
17364W        W33838  11.153  10.326  12.086 -0.4304  0.0688  0.1653
17365W        W33839  17.456  14.464  16.054 -0.1739  0.0896  0.0700
17366W        W33840  14.948  11.076   4.409 -0.0559  0.0695 -0.1619
17367W        W33841   0.340   9.842   0.823 -0.1219  0.1935  0.2423
17368W        W33842   2.660   9.981  13.924  0.1070 -0.1024 -0.0845
17369W        W33843   0.621   8.142   5.421  0.0956 -0.0598 -0.0225
17370W        W33844  12.369   1.258  14.802 -0.1298 -0.2497  0.0408
17371W        W33845  15.499   8.416  15.532 -0.2400 -0.1226  0.0865
17372W        W33846   3.096  17.705   4.232 -0.1443 -0.0210 -0.0108
17373W        W33847   6.657   4.242  12.698 -0.1616  0.2113  0.0900
17374W        W33848  16.537  12.806   1.735  0.1660  0.0353 -0.0150
17375W        W33849   8.518   9.383  12.531 -0.1387  0.0177 -0.3023
17376W        W33850   1.756  14.658  11.852  0.0653  0.0045  0.1302
17377W        W33851  13.742   0.483  12.526  0.0338 -0.0617  0.3039
17378W        W33852  11.266  15.695  13.118 -0.1334 -0.0869 -0.0622
17379W        W33853  13.369   4.228  14.404  0.0468  0.1387  0.0887
17380W        W33854   8.993   9.948   0.569  0.1355 -0.1427  0.1685
17381W        W33855   9.776   8.502  12.643 -0.1785 -0.0331  0.2751
17382W        W33856  17.590   7.601   4.288 -0.2913 -0.3349 -0.3262
17383W        W33857  11.487   2.265  16.837  0.3642 -0.2038  0.0188
17384W        W33858   3.104  14.415   0.369 -0.2372 -0.3109  0.2031
17385W        W33859   3.811   3.348   5.692 -0.0975 -0.0002 -0.3188
17386W        W33860  17.579   2.119   4.725  0.0693 -0.0024  0.1601
17387W        W33861  15.240   8.800   0.405  0.3531  0.3600 -0.2083
17388W        W33862   6.651   1.141   3.486 -0.0199 -0.1000  0.1144
17389W        W33863   2.032  15.853  13.555  0.1262 -0.1175  0.0320
17390W        W33864   4.433  15.336   1.127  0.0398 -0.1370 -0.1399
17391W        W33865   8.659   6.607   5.944 -0.1773 -0.0656 -0.0503
17392W        W33866   9.077  10.173  16.610 -0.3240 -0.1712  0.0924
17393W        W33867  16.082   2.830   3.284 -0.1701 -0.0215  0.1559
17394W        W33868   4.061  16.409   5.085  0.1342 -0.1483  0.5036
17395W        W33869  15.556   1.363  16.607  0.3555  0.2157  0.0324
17396W        W33870   7.657  11.485   3.158  0.2703 -0.2404  0.1330
17397W        W33871   0.710   8.897   2.211 -0.1055 -0.1779 -0.4741
17398W        W33872  12.948   2.925  14.733 -0.4101 -0.0495 -0.2189
17399W        W33873   5.470  11.001   0.089  0.1805  0.0687  0.0471
17400W        W33874  13.736  14.319   2.706 -0.1646 -0.0878  0.3338
17401W        W33875   2.053   0.452   1.918 -0.0783  0.2246 -0.0018
17402W        W33876  16.757  13.471   2.602  0.2605  0.0481  0.1725
17403W        W33877   1.923   4.777  13.327  0.0465  0.1669  0.1359
17404W        W33878   2.592   3.350   0.766  0.1861 -0.0043 -0.0908
17405W        W33879  10.183  17.497   4.435 -0.1371 -0.0220  0.0768
17406W        W33880   4.546   3.475   1.991 -0.1776  0.0695  0.0823
17407W        W33881   7.178  13.469   5.673 -0.0001 -0.1927  0.0528
17408W        W33882  14.993  11.599  15.092  0.0183 -0.1326 -0.1106
17409W        W33883   3.600   6.184  15.385  0.1101  0.0919 -0.1377
17410W        W33884  12.685  17.066   4.662 -0.1894 -0.2053  0.0193
17411W        W33885  10.073   7.157  14.715 -0.2195 -0.1347 -0.1204
17412W        W33886   0.345   7.272   2.767 -0.1406 -0.1915 -0.1805
17413W        W33887  16.772   3.965   4.913 -0.1615  0.0144  0.1282
17414W        W33888   8.111  13.290   1.981  0.0006  0.2225 -0.0667
17415W        W33889   8.666   1.411   3.236  0.2785  0.0883  0.3009
17416W        W33890  15.341   3.836   3.881 -0.2785 -0.1270 -0.2240
17417W        W33891  12.376  11.894   2.163  0.3485  0.0815  0.2770
17418W        W33892   4.607   7.183  14.328 -0.1132 -0.0345  0.0642
17419W        W33893   0.874  14.119  14.277  0.0317 -0.0371 -0.1924
17420W        W33894   1.933  10.021   2.401 -0.0815  0.0276  0.1816
17421W        W33895  15.074   9.923  14.934 -0.4537 -0.1041 -0.1604
17422W        W33896   5.068   9.008   5.198  0.1668  0.1156 -0.0196
17423W        W33897   4.483  10.731  14.378  0.0608 -0.2746 -0.0383
17424W        W33898   5.740  17.547   3.014  0.0060  0.2125  0.0116
17425W        W33899   9.374  14.882   0.951  0.0803 -0.0796 -0.0103
17426W        W33900   5.267   0.870  13.024  0.1382 -0.2758  0.2499
17427W        W33901  11.988  11.762  16.826  0.0453 -0.0124  0.1532
17428W        W33902  11.816  11.286  16.900 -0.0133 -0.2710 -0.0427
17429W        W33903  12.820  11.857   3.028  0.1098  0.3526 -0.0196
17430W        W33904   2.355  12.696   0.068  0.2623  0.0144 -0.0767
17431W        W33905   0.434   6.326   4.404  0.1862 -0.1369  0.1518
17432W        W33906   9.211   4.604   1.047 -0.0873 -0.0733  0.2570
17433W        W33907   9.655   7.903   0.430  0.0705  0.1686 -0.1154
17434W        W33908  17.125  14.581   5.566 -0.0195  0.2156 -0.0998
17435W        W33909  12.841  12.449   5.908 -0.0226  0.0646  0.0750
17436W        W33910  17.667   1.962  15.932 -0.0141  0.1527  0.1250
17437W        W33911  10.213   0.863  14.071  0.0792  0.0934 -0.0513
17438W        W33912   3.337  13.612  16.451  0.1080 -0.0858  0.0682
17439W        W33913   7.363  14.396  15.166 -0.1914 -0.2554 -0.1567
17440W        W33914   2.982  11.024   1.443  0.4085 -0.0043  0.0828
17441W        W33915   3.973   6.234  13.899  0.1888 -0.1175 -0.0242
17442W        W33916  11.472   8.944   4.704 -0.0445 -0.0351  0.1917
17443W        W33917   9.489   5.696   3.060  0.2398  0.4204  0.1657
17444W        W33918   5.002   3.803   0.609 -0.0047 -0.0677 -0.1000
17445W        W33919   9.961   0.657  15.280 -0.0926  0.0227  0.1296
17446W        W33920  13.475   5.154   2.444  0.0169 -0.1164 -0.2308
17447W        W33921   0.211   6.027   3.068  0.1472  0.0498  0.2613
17448W        W33922   3.215  12.419  15.738  0.1024  0.1171 -0.3158
17449W        W33923   1.053   0.373   0.427 -0.1258  0.0920 -0.1553
17450W        W33924  11.376  14.151   1.363  0.1317  0.0149 -0.1254
17451W        W33925  14.684   3.260   0.942  0.0905  0.1284  0.2655
17452W        W33926  14.465  14.114  15.928 -0.0306 -0.0199  0.2521
17453W        W33927   6.134  11.557  13.887  0.1989 -0.0958 -0.0308
17454W        W33928   2.253   6.537   4.713 -0.1606  0.2459 -0.0525
17455W        W33929   7.156   4.942  14.137 -0.1106 -0.1320 -0.2633
17456W        W33930  12.088  17.281   0.236 -0.0584 -0.0933  0.0517
17457W        W33931   5.202   8.814  12.346 -0.0135 -0.0338 -0.1624
17458W        W33932  14.550   0.840  12.293 -0.0433  0.3728  0.2356
17459W        W33933   0.851   7.679   0.766 -0.1309  0.0006 -0.0375
17460W        W33934  11.876  15.378   1.626 -0.0616  0.2264  0.1068
17461W        W33935   4.185   1.117   5.654 -0.2855 -0.0484  0.0428
17462W        W33936   5.351  14.949  11.987  0.2984  0.1957  0.1766
17463W        W33937   6.892   2.978   1.066 -0.0642 -0.0495 -0.0302
17464W        W33938   6.414   3.675   5.378  0.1840  0.2557  0.0677
17465W        W33939  16.437   6.229  14.520  0.1742  0.3738 -0.0539
17466W        W33940   1.215  14.300  15.819 -0.3118 -0.1518 -0.2493
17467W        W33941  17.483   5.767   1.308 -0.3724 -0.2980 -0.0117
17468W        W33942  16.062  13.091   3.683 -0.1066  0.0457 -0.0998
17469W        W33943  15.905   5.264  12.885  0.0443 -0.0875  0.0567
17470W        W33944  12.980   8.057   0.970 -0.1458  0.4014 -0.1322
17471W        W33945  15.304  16.003   1.208 -0.1758 -0.2596  0.1846
17472W        W33946   3.713  10.082  16.831  0.1810  0.2012 -0.0259
17473W        W33947   8.300  14.040   3.771  0.1525  0.2859  0.1483
17474W        W33948  16.447   8.964  13.778 -0.2908  0.5717  0.0044
17475W        W33949   1.889   0.539   0.596  0.1393 -0.1644 -0.2189
17476W        W33950  14.291   8.076   5.682  0.2622  0.2718  0.1183
17477W        W33951   7.610   8.333  13.543 -0.1009 -0.0378  0.1008
17478W        W33952   6.609   4.369  13.354 -0.1485  0.0123 -0.1708
17479W        W33953   5.439   4.749   0.250  0.0479  0.0276 -0.0640
17480W        W33954   1.977  16.473  16.926 -0.3229  0.2456  0.1385
17481W        W33955  15.507  16.611  14.938  0.1842  0.2474 -0.0453
17482W        W33956  11.690   9.589  15.263  0.2092  0.1765  0.2123
17483W        W33957   1.551   6.552  12.342 -0.1535 -0.1077 -0.0986
17484W        W33958  13.620  12.936  12.698 -0.2062 -0.3345 -0.0253
17485W        W33959  13.392   7.297   1.903  0.0943  0.0466 -0.0550
17486W        W33960  10.200   6.610  15.714  0.0275  0.0951  0.1412
17487W        W33961  10.517   4.364  16.622  0.0460 -0.0907 -0.1832
17488W        W33962  15.032   8.221  13.052  0.1410  0.1842 -0.1084
17489W        W33963   2.499  17.053  16.170  0.1915  0.3759  0.1604
17490W        W33964   4.048   8.709  15.633  0.3872  0.0303 -0.2395
17491W        W33965   5.590  15.087   3.832 -0.0544  0.2070 -0.2303
17492W        W33966   4.415  10.272   4.036 -0.2203  0.2730 -0.0901
17493W        W33967   5.654   6.716   4.015 -0.3306 -0.0803  0.1240
17494W        W33968  11.442  16.678  14.671 -0.0043  0.1194  0.2067
17495W        W33969   4.081   2.279  14.497  0.1327  0.1460 -0.0150
17496W        W33970  14.460   6.708  16.146  0.0371 -0.0153  0.1329
17497W        W33971   6.755  11.911  14.727 -0.2640  0.0262  0.0137
17498W        W33972   5.383  14.282  14.551 -0.1266 -0.2226 -0.1138
17499W        W33973   3.500   0.157  16.290  0.2386  0.0855  0.1130
17500W        W33974   4.774  10.807   4.760  0.0015 -0.0672 -0.3825
17501W        W33975   1.140  14.915   0.505 -0.1258 -0.1777 -0.1107
17502W        W33976   6.667   8.312  13.740  0.1167 -0.1101 -0.0425
17503W        W33977  16.595   3.405  12.541 -0.1210 -0.0055 -0.1382
17504W        W33978  16.295   8.859   1.011  0.0774 -0.1887 -0.4876
17505W        W33979   5.018  17.025  13.933  0.1177 -0.0917  0.1581
17506W        W33980  16.553  12.353   1.891  0.1181 -0.0743 -0.2074
17507W        W33981  14.419   5.699  15.637  0.4009  0.0892 -0.3630
17508W        W33982  10.560  10.412  12.650  0.0058  0.0295 -0.0614
17509W        W33983   6.548   0.482   4.466  0.3183  0.1323  0.0176
17510W        W33984   8.551   0.207   1.079 -0.1776  0.1866 -0.0539
17511W        W33985  17.663   9.531  15.180  0.0739  0.0940  0.1016
17512W        W33986  16.135   6.710  16.515 -0.3287 -0.0422 -0.2415
17513W        W33987   4.842   4.743  14.302 -0.1033  0.0187 -0.1261
17514W        W33988  17.111  17.827   1.756  0.0007 -0.2700  0.0932
17515W        W33989  10.266  15.293   1.862  0.4229 -0.2208 -0.2321
17516W        W33990  11.782  16.646   0.771  0.0098  0.2922 -0.1223
17517W        W33991  11.839   9.287  14.391  0.2189  0.0693  0.0274
17518W        W33992   5.629  11.139   0.568 -0.0528 -0.1962  0.0527
17519W        W33993  13.385  10.482   2.181  0.1912  0.1236  0.2820
17520W        W33994   2.712   2.345   5.347 -0.0075  0.0626 -0.0873
17521W        W33995  17.578  10.989   1.290 -0.2887  0.1505  0.2623
17522W        W33996   2.483  16.408  15.107 -0.0993  0.1757 -0.2004
17523W        W33997  11.438   5.517  15.048 -0.2100  0.0022 -0.0691
17524W        W33998   5.239  11.414   3.537 -0.0388 -0.2740  0.0771
17525W        W33999   9.427  14.671   3.861  0.1271 -0.0923  0.3210
17526W        W34000  12.567   3.170   4.294  0.2979 -0.0682 -0.3545
17527W        W34001  13.707   6.817  15.511 -0.3095  0.0483 -0.0703
17528W        W34002  10.514  17.112  11.792  0.2444 -0.1472 -0.2179
17529W        W34003   3.161   5.462   1.017 -0.0669  0.0393 -0.0976
17530W        W34004   1.735  12.538  11.654 -0.0010  0.0235 -0.1524
17531W        W34005   0.855  11.988   5.395 -0.3545  0.3249  0.0269
17532W        W34006   1.643   6.000   2.792  0.2247 -0.3467  0.1684
17533W        W34007   7.909   5.816  12.155  0.2228 -0.1797  0.0833
17534W        W34008  13.379   6.318  11.816  0.0606 -0.1114 -0.1340
17535W        W34009  16.415  13.156  16.202  0.2782  0.2936 -0.0749
17536W        W34010   0.805   4.298  16.613  0.1354  0.2268 -0.1276
17537W        W34011  11.343  15.273   0.742 -0.2475 -0.0443 -0.1230
17538W        W34012  10.063   4.451   2.790  0.0478 -0.1095  0.0398
17539W        W34013   4.896  15.953   3.041 -0.0246  0.2314 -0.2958
17540W        W34014   9.048   1.877   4.878 -0.0760 -0.1024 -0.0397
17541W        W34015   9.722  15.858   3.446 -0.0286  0.0480 -0.0835
17542W        W34016  16.066  17.179   1.126 -0.0969 -0.0653 -0.2642
17543W        W34017   1.698  15.536  13.260  0.2820  0.0263 -0.1084
17544W        W34018   9.047   2.528   4.219  0.5050 -0.1943  0.1797
17545W        W34019   1.684   8.804  12.233 -0.0244 -0.1215  0.1080
17546W        W34020   0.310   2.487   0.101 -0.1032  0.3181  0.2557
17547W        W34021  13.925  16.405  16.006 -0.2188 -0.0671  0.1001
17548W        W34022   0.673   7.999   4.207  0.0411 -0.0014  0.2314
17549W        W34023   3.664   0.580   1.114  0.0591 -0.0032  0.1426
17550W        W34024  10.939   8.018   0.644  0.1460 -0.0986 -0.1245
17551W        W34025  13.374   4.697  16.707  0.1047  0.1752 -0.1681
17552W        W34026  13.090   8.747   3.998 -0.1113  0.1271  0.1893
17553W        W34027   4.403  13.063  13.669 -0.0966  0.1608  0.0576
17554W        W34028  17.675  12.756   0.545 -0.1291  0.0010 -0.3328
17555W        W34029  15.600  12.096   4.576 -0.2123 -0.1907  0.2868
17556W        W34030   8.023   8.439  13.865 -0.0478  0.1670  0.2274
17557W        W34031  17.056   6.273   1.887  0.1308 -0.2490  0.0968
17558W        W34032  11.607  13.329   4.775 -0.0370  0.2167 -0.1338
17559W        W34033  12.210  15.954   3.184 -0.0387  0.2705  0.1285
17560W        W34034   4.607   2.692   5.771  0.2109 -0.0598  0.2413
17561W        W34035   7.440  13.800   0.934  0.1510 -0.0911 -0.1106
17562W        W34036   9.765   4.475   0.168 -0.1054  0.1487  0.1043
17563W        W34037  10.027   7.165  12.784 -0.0630 -0.0826  0.3490
17564W        W34038   1.938  10.676  13.337 -0.1393 -0.0713  0.0399
17565W        W34039   0.027   3.828  13.421  0.0340  0.1034  0.2447
17566W        W34040  11.580  13.196   3.774  0.1144 -0.4494  0.1714
17567W        W34041  12.564  15.180  16.201  0.0120  0.0591  0.2150
17568W        W34042  17.647   6.402  12.765 -0.1134  0.2918  0.0144
17569W        W34043  14.441  13.332  13.303  0.2452  0.0144 -0.0656
17570W        W34044  10.292  14.082  15.606  0.2760  0.0546 -0.2910
17571W        W34045  14.665  17.241   0.067  0.1641 -0.0833  0.2429
17572W        W34046  15.771  12.683  16.001 -0.0053  0.0843 -0.0662
17573W        W34047  10.868  11.053  14.383 -0.2120  0.3053 -0.3061
17574W        W34048   2.948  10.494   4.068  0.5850  0.2274  0.0499
17575W        W34049  15.049  12.379   4.469 -0.0759  0.0771  0.0923
17576W        W34050  17.483  15.886  10.632 -0.1789  0.0716  0.0250
17577W        W34051  11.670   1.299   2.478  0.0569  0.1819 -0.1761
17578W        W34052   2.183   8.035  12.288 -0.0546 -0.0810  0.0837
17579W        W34053   4.132  14.880  14.505 -0.1612  0.1900  0.1264
17580W        W34054   3.877   7.049  11.885 -0.0038 -0.2211  0.0022
17581W        W34055   7.788   4.750   0.433 -0.1568  0.1028  0.1253
17582W        W34056   1.939  13.611  12.282 -0.1865 -0.1226  0.1488
17583W        W34057  14.847   1.054   2.897 -0.0310 -0.2971  0.2313
17584W        W34058   3.808   8.608   1.632  0.1426  0.0609 -0.1968
17585W        W34059  17.658   8.860   2.249 -0.2375  0.2197  0.0458
17586W        W34060  14.793   0.785   1.083 -0.4844  0.1076 -0.0240
17587W        W34061   5.920  11.678  15.423 -0.0886  0.0694  0.0867
17588W        W34062   0.040   0.883   3.137  0.1665 -0.1670  0.0377
17589W        W34063  17.412  11.361  11.613  0.1046 -0.1951  0.0804
17590W        W34064   5.858  12.640  15.804  0.1410 -0.1214  0.4310
17591W        W34065  12.069   9.715  12.130  0.0778  0.1334  0.0030
17592W        W34066   5.720   8.284   3.844 -0.4077 -0.1409  0.1905
17593W        W34067   8.793  12.099  16.121  0.5650 -0.0324  0.0798
17594W        W34068   0.906  12.359  11.226  0.0341 -0.1101  0.2208
17595W        W34069   4.144   2.781   0.876 -0.1775  0.0492  0.0506
17596W        W34070  12.034   6.076  14.133  0.0530  0.1886 -0.0014
17597W        W34071  15.487   1.627   5.013 -0.0528 -0.3840  0.1612
17598W        W34072   9.773  10.950   5.460 -0.0386 -0.2262 -0.0963
17599W        W34073   2.572   9.312   1.695 -0.0479 -0.0158  0.0091
17600W        W34074  12.140   1.773   6.157 -0.1361 -0.1461  0.1451
17601W        W34075  16.027  10.712  15.721  0.2053 -0.0119  0.1707
17602W        W34076  10.840   7.499   1.597 -0.0004  0.1306  0.2816
17603W        W34077   6.546  12.624  16.382 -0.1485 -0.0557  0.0881
17604W        W34078  14.381   0.786   6.018 -0.1863  0.1864  0.0022
17605W        W34079   9.944   1.442   5.199 -0.0101 -0.0942 -0.0040
17606W        W34080   8.109  11.692  16.218  0.0994 -0.1718  0.0291
17607W        W34081  12.660  17.572  12.308 -0.0501  0.3446 -0.2814
17608W        W34082  13.707  11.338   0.250 -0.1316  0.1005 -0.0184
17609W        W34083  17.345   3.788   0.746 -0.0525  0.2385  0.0007
17610W        W34084   9.878   8.256  11.717  0.0441 -0.0275  0.0990
17611W        W34085   7.188  13.935   1.359 -0.0895 -0.2653 -0.0978
17612W        W34086  14.320  16.866  12.348 -0.0690 -0.0169 -0.2125
17613W        W34087   5.240   0.885  15.056 -0.0547 -0.0341  0.0216
17614W        W34088   0.242   8.732   2.456 -0.0641  0.3605  0.1812
17615W        W34089   4.047   9.119   0.942 -0.0696  0.1137  0.2480
17616W        W34090  16.939  16.037  14.730  0.2246  0.1696 -0.0792
17617W        W34091  11.036   8.104  14.616  0.0759 -0.0368 -0.3020
17618W        W34092  16.892  10.890  11.849  0.3130 -0.0971  0.0843
17619W        W34093   7.935   6.736  16.417 -0.2330 -0.4201  0.1752
17620W        W34094   7.026   1.788   0.506  0.2370  0.0167 -0.1074
17621W        W34095   6.012   9.623   0.914  0.1034  0.0008  0.1650
17622W        W34096   4.479   3.595   3.148  0.1406 -0.0611  0.0402
17623W        W34097  11.472   1.002   2.856 -0.2393 -0.0435  0.1583
17624W        W34098   7.194   8.331  12.825 -0.0442 -0.2439  0.1333
17625W        W34099   1.898   2.129   3.238  0.0165 -0.0253 -0.0357
17626W        W34100   8.503  10.905  15.323  0.1363 -0.0609 -0.1068
17627W        W34101  12.864   7.753  14.235  0.0438  0.0767 -0.0340
17628W        W34102   5.010  12.390  16.085  0.0356  0.0095 -0.0673
17629W        W34103   5.493   5.476   0.151  0.0334  0.2408 -0.2105
17630W        W34104  13.940  10.590   2.156  0.0495 -0.1351 -0.1374
17631W        W34105  11.775  10.723  16.084  0.3902  0.1935 -0.1528
17632W        W34106  14.638  17.546  11.607  0.2102 -0.0248 -0.1454
17633W        W34107   5.570   1.661   5.308 -0.0588 -0.3334 -0.0438
17634W        W34108   6.335  11.755  14.429 -0.0515  0.1281 -0.0141
17635W        W34109   1.992   1.839  15.150 -0.0588 -0.3846  0.0901
17636W        W34110   3.761   2.043  16.254  0.2253  0.0178 -0.2238
17637W        W34111  13.395  12.628   2.055  0.2934 -0.1484  0.0881
17638W        W34112   0.235   7.048  13.325 -0.0786 -0.0590  0.1246
17639W        W34113  12.041   6.084   2.700  0.0893  0.0740 -0.1321
17640W        W34114   9.315  12.944  12.242 -0.1463  0.0908  0.0085
17641W        W34115   7.769   5.701   1.759 -0.0254  0.0875 -0.1989
17642W        W34116  13.679   4.862  16.092 -0.1468  0.1369  0.1554
17643W        W34117   8.801   5.711   5.524 -0.1796  0.0381  0.0638
17644W        W34118   3.850   5.587   5.071  0.3632 -0.0384 -0.1842
17645W        W34119   7.658   8.622   4.219 -0.0314  0.3818  0.0083
17646W        W34120  15.986   8.155  12.586 -0.1743 -0.0163  0.0550
17647W        W34121   2.293  12.993  16.265 -0.2675 -0.0286 -0.1413
17648W        W34122  17.230   3.237   5.888 -0.1635  0.0911  0.1794
17649W        W34123   7.402  12.209   5.372 -0.0351 -0.2707  0.0865
17650W        W34124   7.816  10.186  13.156  0.3783 -0.0997  0.1412
17651W        W34125   4.527  17.179   2.432 -0.0465  0.0542 -0.4087
17652W        W34126  15.485   4.944   3.426  0.0453  0.0665  0.0213
17653W        W34127  16.786  13.730   3.264  0.0554 -0.1698 -0.1883
17654W        W34128   5.344   1.991   0.695  0.1681  0.4958 -0.5878
17655W        W34129   7.550  17.094  11.636  0.3213 -0.0815  0.2512
17656W        W34130  14.869   9.305  14.310  0.1661  0.0735  0.2780
17657W        W34131   7.189  14.782   0.606 -0.1646  0.0022  0.0007
17658W        W34132   8.104  12.796   0.774  0.0714  0.0174  0.0544
17659W        W34133  17.717   8.337  12.119 -0.0698  0.0688 -0.2230
17660W        W34134  16.788  17.562   0.411 -0.2319  0.0319 -0.0756
17661W        W34135  15.226  11.041   0.236  0.1244 -0.0041  0.2417
17662W        W34136   2.119  13.591   0.875  0.1099 -0.1952 -0.0172
17663W        W34137   6.986  15.398   4.422 -0.1836 -0.2831 -0.1380
17664W        W34138   7.190  17.222  12.579  0.0253 -0.1070  0.0040
17665W        W34139   3.187   5.269   2.043  0.0181 -0.0857  0.0295
17666W        W34140  17.505  12.081   4.584 -0.1485 -0.2617  0.1956
17667W        W34141   3.004  10.682  12.681  0.1445  0.0060  0.0074
17668W        W34142   6.635   1.334   1.509  0.0340  0.2179 -0.0859
17669W        W34143  10.022  10.342   3.167  0.1517  0.0063  0.1403
17670W        W34144   5.977   0.868  14.487  0.0189  0.1610  0.0403
17671W        W34145  12.348  16.639   4.997 -0.1002 -0.2272 -0.3191
17672W        W34146  15.474  14.422  15.709  0.2262  0.2314 -0.3066
17673W        W34147   9.192  16.470  11.477  0.1627 -0.2686 -0.1779
17674W        W34148  13.540  12.265   1.006 -0.0496  0.2816 -0.1635
17675W        W34149   8.829   9.835  12.482 -0.1138 -0.1248  0.0826
17676W        W34150   6.049  14.813   3.829  0.0350 -0.1505  0.2186
17677W        W34151   5.470   7.881  12.596 -0.2493 -0.1112  0.4257
17678W        W34152  10.213   3.060   2.888  0.0557  0.0994  0.2168
17679W        W34153   1.458   4.842  13.108  0.3759  0.0155  0.0273
17680W        W34154   6.470  16.370  12.735  0.1736 -0.2397 -0.1789
17681W        W34155  14.577   7.168   5.566  0.1791 -0.1593  0.0561
17682W        W34156  15.064  16.549  13.355 -0.3064 -0.1398  0.2814
17683W        W34157   5.070  17.618   5.892  0.2324  0.1846 -0.3762
17684W        W34158  13.734   0.468  16.346  0.0025 -0.0474  0.0749
17685W        W34159   8.438  14.475  12.358  0.1177  0.0589  0.2493
17686W        W34160  17.330   0.223   3.531  0.0521  0.1384 -0.0491
17687W        W34161  16.372  16.169   0.239  0.2137 -0.0132  0.0781
17688W        W34162   8.325  15.121  11.379 -0.6060 -0.0182 -0.1299
17689W        W34163  16.902  13.126   1.650 -0.0248  0.1311  0.3279
17690W        W34164  12.481   2.181  14.838  0.2531  0.2743  0.0666
17691W        W34165   3.314   1.761  14.202 -0.5114 -0.2511  0.0614
17692W        W34166   6.831  15.334  15.475 -0.1485  0.1143  0.1693
17693W        W34167   6.733   2.767  14.368  0.0332 -0.2581 -0.0743
17694W        W34168   7.786  14.139  12.109  0.2675  0.0725 -0.1154
17695W        W34169   0.399   3.880  14.991 -0.1003  0.0709 -0.0469
17696W        W34170   3.818   1.447  13.940 -0.0152  0.1053 -0.0356
17697W        W34171  14.024   1.043   1.065 -0.0464 -0.4455 -0.0118
17698W        W34172  17.728  12.635  13.450 -0.3085 -0.0209  0.1166
17699W        W34173  15.913   7.891   1.215 -0.1520  0.0177 -0.0776
17700W        W34174   6.458  12.783   3.893  0.0213  0.0616  0.1188
17701W        W34175   0.743   8.265  16.870  0.2034  0.0179 -0.1514
17702W        W34176   3.617  11.633   1.876 -0.1109  0.0487  0.0307
17703W        W34177  16.400   1.348  14.942  0.0561  0.1696  0.1783
17704W        W34178  10.340   3.975  13.831 -0.0433 -0.1732 -0.3090
17705W        W34179  14.214  11.788   1.730 -0.1723 -0.0155 -0.0570
17706W        W34180   0.639  11.921  14.208 -0.2110  0.0798 -0.1930
17707W        W34181  16.829  11.226   1.903 -0.1834 -0.0954 -0.2075
17708W        W34182   5.122   7.927   3.311  0.0256  0.3045  0.2726
17709W        W34183   7.640   1.849   5.128 -0.1737  0.1651 -0.3392
17710W        W34184  11.787   9.363  11.446  0.1732 -0.0329  0.3144
17711W        W34185  13.641  15.900   6.596 -0.1759  0.1552  0.1914
17712W        W34186  11.565  15.776   2.449  0.2312 -0.1630  0.1537
17713W        W34187  17.272  11.999  16.604 -0.1905  0.2457 -0.0246
17714W        W34188   4.719   8.513  14.754 -0.0930 -0.1353 -0.1074
17715W        W34189   0.605  10.657  11.051 -0.0495 -0.0553 -0.1356
17716W        W34190  11.164   3.656  15.604  0.0145  0.0827  0.0514
17717W        W34191  11.546   5.067  14.250  0.0669 -0.0985 -0.1603
17718W        W34192  17.191  12.960   5.066 -0.1842  0.2094 -0.0251
17719W        W34193   3.737   9.063  15.901 -0.2471  0.1413 -0.1118
17720W        W34194   5.451  12.347   3.510  0.0520 -0.0347 -0.0136
17721W        W34195  11.208   6.482  12.509 -0.0460  0.1248 -0.0113
17722W        W34196   4.657   1.820  16.545 -0.0184 -0.1021  0.1374
17723W        W34197   6.403  15.166  12.718 -0.0954 -0.2920 -0.0954
17724W        W34198  12.888  10.300   2.180  0.2664  0.0828  0.2811
17725W        W34199  15.982  11.314  13.009 -0.2770  0.3952  0.1449
17726W        W34200   8.503  10.100   4.489 -0.2122 -0.0463 -0.0337
17727W        W34201  12.525  17.601  11.682 -0.0216  0.3100 -0.1231
17728W        W34202  12.272  12.085   3.536  0.0022 -0.0024  0.0704
17729W        W34203  17.082  11.721   2.752 -0.0046  0.1705 -0.0688
17730W        W34204  10.035   2.572  14.324 -0.0397 -0.4179  0.1304
17731W        W34205  12.179   2.336  16.367  0.1894 -0.2170 -0.2591
17732W        W34206   4.452   1.173   1.766  0.0671 -0.1676  0.2249
17733W        W34207   9.916   4.887  12.885  0.0727 -0.0716 -0.1308
17734W        W34208   4.730   4.734  14.963  0.0315 -0.0360  0.2730
17735W        W34209  15.170   4.118   5.627 -0.3930 -0.1593 -0.0448
17736W        W34210   2.328   4.759  16.844  0.1712  0.0247 -0.2352
17737W        W34211   2.748  10.999   1.892 -0.2108 -0.0043  0.1572
17738W        W34212   0.524   4.753  13.325  0.0932 -0.4442  0.0240
17739W        W34213  14.118   8.003   4.458  0.1724 -0.3740  0.4061
17740W        W34214   5.646   6.316   4.389 -0.0927 -0.0297  0.1517
17741W        W34215   1.935  14.905  12.279  0.1915  0.3376 -0.0958
17742W        W34216   0.017   5.140  14.041 -0.1892  0.2044  0.1603
17743W        W34217  10.582  12.806   1.747 -0.3303  0.1806 -0.1341
17744W        W34218   6.434  16.151   5.444  0.0369 -0.2406  0.1503
17745W        W34219   5.796   5.161  12.962  0.0760 -0.1227 -0.0546
17746W        W34220   3.571  10.945  11.009 -0.0157  0.0148  0.1887
17747W        W34221  12.115   1.238   1.869 -0.1618  0.1640  0.0564
17748W        W34222  13.762   6.030   4.152  0.1984  0.0278  0.1786
17749W        W34223   6.250   2.705   5.549 -0.0086  0.1893  0.2085
17750W        W34224   7.242   0.290   3.384 -0.4777  0.0143  0.2822
17751W        W34225   3.790  16.576   4.247 -0.2582  0.1473 -0.2617
17752W        W34226   1.736  12.677  14.631 -0.0937  0.0396  0.2339
17753W        W34227   6.594   8.531  10.741  0.0428 -0.2505 -0.1216
17754W        W34228  13.486   4.561  12.440  0.1383  0.0301  0.3601
17755W        W34229  10.513   7.287   0.210  0.0255 -0.0849 -0.0832
17756W        W34230  17.725  12.270   1.484 -0.0688  0.1637  0.2734
17757W        W34231   6.723   1.440   5.873 -0.1909 -0.0387 -0.1658
17758W        W34232   0.975  17.001  12.577  0.0609 -0.0927  0.0927
17759W        W34233  11.126   6.964  11.804  0.0427  0.1274  0.1702
17760W        W34234  16.545   5.070  12.282 -0.2857  0.1424  0.1639
17761W        W34235  13.972   7.258   5.405 -0.0226 -0.0037  0.4381
17762W        W34236   3.394   4.933  12.411  0.1176  0.0928  0.0404
17763W        W34237   6.172   7.804   6.400 -0.1103  0.3423  0.0445
17764W        W34238   2.560   8.030  14.031 -0.1177  0.0863 -0.0399
17765W        W34239  17.719  17.782   5.223  0.4506  0.2569 -0.1701
17766W        W34240  13.100  16.506  15.284  0.0606  0.0671  0.2005
17767W        W34241   9.318   0.525  13.798 -0.1338  0.2375 -0.0266
17768W        W34242   6.688   6.870   2.267  0.1477  0.3942  0.0691
17769W        W34243  11.053  15.445  14.288 -0.1815 -0.0997 -0.0033
17770W        W34244   8.251   5.454  15.419  0.1535 -0.0099 -0.0952
17771W        W34245  17.346   8.291   1.723  0.1010  0.1573  0.0360
17772W        W34246  10.421  13.031   3.256 -0.0413 -0.1520 -0.0129
17773W        W34247  11.539  10.756  16.616  0.1362 -0.0402  0.0960
17774W        W34248  16.071   5.935  16.398 -0.1486 -0.2096 -0.1085
17775W        W34249   0.222   2.505   1.108 -0.3144 -0.0362 -0.0446
17776W        W34250  12.880   1.250  14.469 -0.3374  0.1148 -0.2230
17777W        W34251   8.553  14.771   5.942  0.2125  0.2347  0.2003
17778W        W34252  12.502   7.367   1.067 -0.0273  0.1141  0.1438
17779W        W34253   7.070  15.669   3.898  0.1172 -0.0784  0.2443
17780W        W34254  17.393   2.043   0.289  0.1234 -0.2202 -0.1425
17781W        W34255   0.112   3.753  16.698 -0.2201 -0.1054  0.1428
17782W        W34256   2.935   8.688  14.587 -0.1859 -0.0254  0.0092
17783W        W34257  17.193   9.424   5.830  0.0817  0.4404  0.3171
17784W        W34258  11.484   1.257  11.740 -0.0152  0.2626  0.1945
17785W        W34259   2.752  12.868  11.321  0.0142  0.0697 -0.1013
17786W        W34260  13.317  12.673  11.611 -0.0384 -0.1595 -0.3223
17787W        W34261   7.936   4.596   4.164  0.0055 -0.2362 -0.2624
17788W        W34262   7.860  15.898  12.396 -0.0328  0.2398  0.0689
17789W        W34263   0.502  15.478   4.868  0.0882  0.2084 -0.0182
17790W        W34264  10.927   9.248   1.657  0.2708  0.1754  0.0561
17791W        W34265  15.880  15.486  16.659  0.1581  0.0669  0.0080
17792W        W34266   6.050  16.133   2.538 -0.0027 -0.0692 -0.4487
17793W        W34267   7.145  11.988   4.970  0.2329 -0.3878  0.3383
17794W        W34268  15.141   8.064  12.575 -0.4404 -0.1101 -0.1686
17795W        W34269  17.143   8.188  13.927 -0.1042  0.1120  0.2517
17796W        W34270  14.279   4.460  15.945  0.0938  0.0928 -0.0306
17797W        W34271  13.421  15.875   4.081 -0.1281  0.0887 -0.1117
17798W        W34272   2.301  15.585   1.831 -0.2450 -0.1289  0.0817
17799W        W34273  14.030  17.051  12.724  0.3705 -0.0289  0.1050
17800W        W34274   3.162  12.222   2.561 -0.0777 -0.0966  0.2242
17801W        W34275  14.792  11.759   0.596  0.1057  0.3595  0.2013
17802W        W34276   8.680   9.854  11.631 -0.2319  0.1220  0.0111
17803W        W34277  11.282   4.710  14.691  0.0448  0.2118 -0.1346
17804W        W34278  14.946   6.149  12.547 -0.0833  0.1174 -0.0516
17805W        W34279   5.684   2.944   2.584 -0.2489  0.1898 -0.1066
17806W        W34280   6.089  13.633  13.672 -0.0275  0.0163  0.2754
17807W        W34281   9.216   8.465  16.794  0.1752 -0.1639 -0.0511
17808W        W34282  15.231   6.986   3.496 -0.3658  0.0230 -0.2001
17809W        W34283   5.258   2.704  15.746  0.0002 -0.0078 -0.3012
17810W        W34284  12.279  12.327  15.735 -0.0552 -0.2932  0.0296
17811W        W34285   2.663   4.674  15.462  0.1949  0.1808  0.0841
17812W        W34286  16.965  12.948   3.092 -0.3186  0.1784 -0.0231
17813W        W34287   2.822  14.215  14.828 -0.2541 -0.2033 -0.3051
17814W        W34288   1.810  16.834  15.676  0.1138  0.2687 -0.0189
17815W        W34289   6.352  10.172   5.348  0.0140  0.0312  0.1715
17816W        W34290   1.871  13.559   5.070  0.0270 -0.3399 -0.1364
17817W        W34291  14.050   9.436   1.623  0.0516  0.1591  0.0111
17818W        W34292   8.386   7.299  15.788 -0.2772  0.0134 -0.0096
17819W        W34293  12.412  13.098   5.716 -0.1150  0.1723  0.0347
17820W        W34294  10.844   4.119   4.024 -0.2748  0.1254  0.2288
17821W        W34295   1.681   0.517  15.225  0.2661  0.0229 -0.2465
17822W        W34296   0.415   2.332   2.694  0.0803  0.1732  0.0167
17823W        W34297  12.580   7.096  16.792  0.0659 -0.1623  0.0717
17824W        W34298   8.065  11.357  11.807  0.3331 -0.1342 -0.0130
17825W        W34299   2.344   0.124   1.589  0.0349  0.0470  0.2644
17826W        W34300   0.775   5.553  16.647 -0.0437  0.1464  0.1125
17827W        W34301  12.441  10.599   0.277 -0.0275 -0.1746  0.1009
17828W        W34302  12.723   4.176  12.321 -0.2194 -0.1309  0.1886
17829W        W34303  12.131  15.292  10.604 -0.1665  0.1067 -0.3757
17830W        W34304   1.414   1.247   4.547  0.1941 -0.1473 -0.0129
17831W        W34305   8.749  10.019   2.863  0.0680 -0.0409  0.0926
17832W        W34306  17.777  10.491   3.146 -0.0237  0.0702  0.2065
17833W        W34307   7.055  13.939   3.761 -0.1335  0.1668 -0.3535
17834W        W34308   5.604  13.357  16.902  0.2264 -0.1355  0.0310
17835W        W34309   7.241   4.316   3.451  0.3769 -0.2062 -0.0832
17836W        W34310  16.935  16.679  11.727  0.2933 -0.0866 -0.2860
17837W        W34311   9.732  15.835   0.812  0.4417 -0.0822  0.0294
17838W        W34312   2.585   1.720   3.645 -0.0742 -0.2087 -0.2106
17839W        W34313  16.520  12.372  15.224  0.0773  0.1187  0.0374
17840W        W34314   7.780   9.690   1.827  0.2119  0.0304 -0.0288
17841W        W34315  16.382   4.729  11.952  0.0799  0.2857  0.0902
17842W        W34316   3.465   5.804  16.534 -0.2252  0.1282  0.4220
17843W        W34317   6.359   6.233   1.793  0.0853 -0.1817 -0.0079
17844W        W34318   7.730   2.419   2.152 -0.1761 -0.1713 -0.3522
17845W        W34319   8.576   8.242   2.561 -0.0017  0.2433  0.1253
17846W        W34320  14.377   1.756   4.640  0.2009  0.1722 -0.1396
17847W        W34321  15.091  11.796  12.938  0.0859 -0.3047  0.1590
17848W        W34322   2.721   7.745   0.086 -0.0489 -0.1202 -0.0025
17849W        W34323   9.758   6.868   5.498  0.0578  0.0354  0.1386
17850W        W34324  17.492  13.775  11.279 -0.1680  0.0777 -0.0075
17851W        W34325   7.118   2.468  12.155 -0.0898  0.2061 -0.1894
17852W        W34326   1.284  17.482   3.681 -0.1112  0.2086 -0.0024
17853W        W34327   1.858   7.349  12.682 -0.2970 -0.0938  0.1255
17854W        W34328   4.142  14.677  16.099  0.2035  0.0338  0.0483
17855W        W34329  10.839  10.501   4.130  0.1436 -0.1464 -0.1017
17856W        W34330   3.186  10.780  16.223  0.3081 -0.4967 -0.0138
17857W        W34331  10.077  11.374   5.561  0.1032 -0.3142  0.0499
17858W        W34332   8.801  11.566  11.802  0.0877 -0.2648 -0.0847
17859W        W34333  15.296  17.763   2.545 -0.1095  0.0257  0.2081
17860W        W34334  12.661   8.513   3.752  0.0386  0.0085  0.0868
17861W        W34335   0.165   0.907  13.393  0.0687 -0.0890 -0.1774
17862W        W34336  12.663  14.347   3.456  0.0503 -0.0565  0.0438
17863W        W34337  16.724   5.887  15.624  0.0327 -0.0810  0.1733
17864W        W34338   5.430  17.602   4.860  0.2671 -0.2236  0.0593
17865W        W34339  16.068   1.104  12.918  0.0006 -0.0023 -0.3194
17866W        W34340   2.810   3.412  14.853 -0.0362  0.1512  0.0559
17867W        W34341  16.814   6.197  16.084  0.1597  0.0741 -0.1489
17868W        W34342  11.453   4.067   5.247  0.2158 -0.0050 -0.0530
17869W        W34343   2.071   0.402  15.509  0.3442  0.0393  0.1721
17870W        W34344  15.800  16.693   3.826  0.1006  0.0916  0.1217
17871W        W34345   7.103  12.449  16.871  0.0350 -0.2415  0.2814
17872W        W34346   0.077   8.571  14.942 -0.0899  0.2088  0.0548
17873W        W34347   9.985  13.916   0.735  0.0083 -0.0932 -0.0048
17874W        W34348   6.322   1.213   3.966 -0.0008 -0.0568  0.2812
17875W        W34349   8.700  17.490   0.238  0.0343 -0.1781  0.0980
17876W        W34350  14.576   3.193   0.035  0.1100 -0.0108 -0.1961
17877W        W34351   8.164   5.676   4.074 -0.0047  0.2361 -0.1158
17878W        W34352   8.369   1.960   0.088 -0.1625 -0.0078 -0.2397
17879W        W34353   7.204   6.359   0.147  0.1056  0.0308  0.2023
17880W        W34354   9.177  15.931   4.497 -0.1737 -0.2313  0.0556
17881W        W34355   0.308  13.158  15.643 -0.1725  0.1363  0.0562
17882W        W34356   5.001   2.896   0.873  0.0130  0.0516  0.1101
17883W        W34357   3.494   6.683  12.116 -0.0764  0.1007 -0.2738
17884W        W34358   4.416   5.026  14.690 -0.3760  0.3304  0.0856
17885W        W34359   0.453   4.754   4.705  0.0992  0.3036  0.0082
17886W        W34360   8.744  11.904  16.582 -0.3768  0.0548  0.2305
17887W        W34361  15.608  11.798  12.050  0.1392  0.2055 -0.0070
17888W        W34362  14.702  16.070  12.555  0.1924  0.0602 -0.0543
17889W        W34363  14.487   5.683  13.877 -0.0703  0.0430  0.1304
17890W        W34364  17.433   0.487   2.983  0.2008  0.1354  0.0787
17891W        W34365  13.484   0.827  14.080  0.1036  0.0214  0.3015
17892W        W34366   6.649  13.436   3.057  0.2149  0.2159  0.0874
17893W        W34367  17.457  16.189  15.326 -0.1877  0.0077 -0.0780
17894W        W34368  10.383  13.796  16.134 -0.1795 -0.1548  0.2880
17895W        W34369   8.128  16.506   4.935 -0.2959 -0.0447 -0.0503
17896W        W34370  17.802   3.539   5.464 -0.1688 -0.0854  0.2494
17897W        W34371   0.456  10.135  12.476  0.1337 -0.0426 -0.0806
17898W        W34372   0.934  13.334  13.675 -0.2820 -0.1070 -0.0234
17899W        W34373  16.760  10.276  13.632 -0.0547 -0.1752  0.2723
17900W        W34374  15.336  16.097   5.068  0.0996 -0.0830  0.0604
17901W        W34375  13.202   8.348  12.688  0.0757  0.0205  0.1442
17902W        W34376   9.429   4.883  12.550 -0.0586 -0.1607  0.0634
17903W        W34377  16.185  16.425  16.707 -0.0804  0.2516  0.2074
17904W        W34378  12.249  13.122  16.167 -0.0065  0.1472  0.1873
17905W        W34379   3.344   4.191  16.337  0.2243 -0.0016  0.0242
17906W        W34380  11.739   6.766  14.395  0.1715 -0.0065  0.2924
17907W        W34381   8.655  10.624  13.458  0.1736  0.3057 -0.4242
17908W        W34382  17.580   4.557   3.237  0.0112 -0.3855  0.0013
17909W        W34383  15.746   8.785   0.553  0.3765  0.3005 -0.0527
17910W        W34384  13.136  16.141   0.616  0.2873 -0.1024  0.2858
17911W        W34385   5.452  14.087  10.895  0.0197 -0.0321 -0.2086
17912W        W34386   9.306   9.419  14.317 -0.1043 -0.0138 -0.3015
17913W        W34387  10.097   7.055  15.332  0.1643 -0.0136  0.1473
17914W        W34388  12.920   0.378   0.706  0.1118  0.1404  0.0890
17915W        W34389   7.414   0.122   0.869 -0.2197 -0.0178  0.0005
17916W        W34390  11.058  15.255  15.882  0.2033 -0.1128  0.0336
17917W        W34391   5.988   6.490   0.270 -0.1104 -0.0118  0.1107
17918W        W34392   9.034   9.414  12.696 -0.1241  0.2347 -0.1445
17919W        W34393  13.288  13.409  15.409  0.1640  0.1791  0.2152
17920W        W34394   2.104  12.124  16.677 -0.1563  0.1806 -0.2081
17921W        W34395   6.142  12.075  12.101 -0.2460 -0.2236  0.0919
17922W        W34396   6.326  14.701   2.386 -0.0434 -0.1600 -0.2736
17923W        W34397   5.918   6.607   5.286 -0.0352  0.4728 -0.0287
17924W        W34398  16.857   2.446  12.904  0.1976  0.0521 -0.0842
17925W        W34399  15.777   9.333   1.924  0.0825 -0.2329  0.3029
17926W        W34400  11.284   4.812  16.251 -0.0824 -0.1959 -0.1675
17927W        W34401   5.575   3.175   2.120  0.0966 -0.0316 -0.0752
17928W        W34402  16.378  11.036  14.177  0.0987 -0.1325  0.0199
17929W        W34403  14.866  15.997   5.348  0.2333  0.2012 -0.0824
17930W        W34404  12.210   9.340  11.222  0.1173 -0.0613 -0.3332
17931W        W34405   0.868   3.458   4.272  0.1936 -0.0728 -0.2189
17932W        W34406  11.475   8.184   4.459 -0.2150  0.0149  0.1464
17933W        W34407   2.128   2.478   3.541  0.2394 -0.2596 -0.0407
17934W        W34408  14.447   5.741   2.886  0.0505 -0.0983  0.1845
17935W        W34409   6.508   0.895  16.912  0.1358 -0.0739  0.0320
17936W        W34410   5.112  15.501   2.884  0.3728  0.0574 -0.2682
17937W        W34411  16.545  14.475  14.391 -0.3582 -0.1398  0.1762
17938W        W34412  12.719   9.005   4.329  0.0825  0.2253  0.2101
17939W        W34413  11.503  14.823   5.045  0.4411 -0.2641 -0.2085
17940W        W34414  16.687  14.387   5.485 -0.0993 -0.2461 -0.0914
17941W        W34415   2.636  17.512   1.911 -0.1542 -0.0626  0.2823
17942W        W34416  14.357  12.457   3.630  0.1539  0.1537  0.0409
17943W        W34417   1.878  10.325   0.177  0.0922 -0.0024  0.0856
17944W        W34418  11.919  11.046   1.257  0.1161  0.2164  0.2008
17945W        W34419   0.854   2.675   0.780  0.1611 -0.2471  0.1027
17946W        W34420  17.041   9.048  14.948 -0.1579 -0.1431  0.4600
17947W        W34421   6.075  14.562   4.310 -0.1711  0.0917  0.2952
17948W        W34422   2.127  12.831  13.455  0.1250  0.1635  0.0763
17949W        W34423   2.240  10.776   0.051  0.2461 -0.1594  0.0240
17950W        W34424  13.282   9.605  15.712  0.0304  0.1206  0.0391
17951W        W34425  14.945  17.479  12.696 -0.1025  0.2887 -0.1379
17952W        W34426   2.447   3.090   4.179 -0.0504 -0.0432  0.1211
17953W        W34427  17.808  17.412   0.476  0.1228 -0.0154 -0.1470
17954W        W34428   7.817   1.654  15.819  0.2563  0.2347 -0.0376
17955W        W34429  17.781   0.854   3.942  0.2512  0.0687 -0.3520
17956W        W34430   5.168  13.387   2.940 -0.1899  0.1317 -0.1230
17957W        W34431  17.815   3.773  14.731 -0.2203 -0.0388 -0.0007
17958W        W34432  13.467   9.273   2.529  0.1521 -0.2635 -0.0838
17959W        W34433   9.176   1.398  13.413 -0.2364 -0.0336 -0.4047
17960W        W34434   0.703   9.121  14.965 -0.1372 -0.1793  0.3792
17961W        W34435  10.508   2.157  12.831 -0.3705 -0.0237 -0.0044
17962W        W34436   8.596   0.745   2.416  0.0120  0.1051 -0.2431
17963W        W34437  11.948   6.131  13.630 -0.0368  0.0267  0.0238
17964W        W34438   6.262   0.368  12.170 -0.1210  0.2244 -0.1308
17965W        W34439  10.723   5.721   3.927 -0.1133  0.3048 -0.2865
17966W        W34440   2.729  14.209  16.044  0.3430  0.0319  0.1603
17967W        W34441   6.210   6.651  14.033  0.3972 -0.0735  0.1545
17968W        W34442   6.812  16.526   0.440  0.1950 -0.2087  0.0486
17969W        W34443   3.388  12.639  11.094  0.0711 -0.2591  0.3029
17970W        W34444  14.048   5.074  13.576 -0.0397  0.0797  0.0307
17971W        W34445   8.886   7.737   0.118  0.1417 -0.3079 -0.1886
17972W        W34446   1.004  11.205  12.564  0.3513 -0.1924  0.0467
17973W        W34447   6.434   8.489  15.930 -0.0176 -0.1553 -0.2835
17974W        W34448   3.627  17.496  13.962  0.0667  0.1809  0.2479
17975W        W34449   7.931  11.672  12.818 -0.2151 -0.0759 -0.3726
17976W        W34450   2.891   4.698   3.089 -0.2041  0.1778  0.0250
17977W        W34451  17.447  10.118   3.022 -0.1099 -0.0153  0.0665
17978W        W34452  12.525   0.408  13.595 -0.1821  0.0880  0.1668
17979W        W34453  16.178   3.088   2.517 -0.1422 -0.0733  0.0210
17980W        W34454  16.092   5.058   5.106  0.2117 -0.0255  0.3757
17981W        W34455  13.956   1.939   0.610  0.2370  0.1583  0.0249
17982W        W34456  17.825  13.431  11.244 -0.0320 -0.0949 -0.0493
17983W        W34457   6.102  14.732  12.053  0.2384 -0.1867 -0.0057
17984W        W34458  11.119   5.790   3.026  0.0503 -0.2694 -0.3729
17985W        W34459   2.914   7.056   2.552  0.0038  0.2411 -0.2294
17986W        W34460   9.775  17.691   5.213  0.2493 -0.1620 -0.0049
17987W        W34461  13.842   3.199   2.187  0.0844 -0.0582 -0.1194
17988W        W34462  11.153  12.830   1.929 -0.4206  0.0182 -0.0629
17989W        W34463  15.815  12.803   2.469 -0.0751 -0.2880  0.0742
17990W        W34464  17.520  13.340   4.950  0.0261  0.0384 -0.0626
17991W        W34465  12.251   8.230  16.350 -0.3013 -0.1490 -0.0704
17992W        W34466   2.629   9.312   2.373 -0.1630 -0.3327 -0.0904
17993W        W34467   0.048   2.020   2.873 -0.0908  0.1295  0.1071
17994W        W34468  17.792  16.745  12.606 -0.1317 -0.2508  0.1752
17995W        W34469  10.019   1.725   4.347 -0.0638 -0.0176  0.0150
17996W        W34470  12.358   6.121   5.089 -0.2129 -0.2505 -0.0364
17997W        W34471  11.877   1.409  12.070  0.0690  0.1165 -0.1073
17998W        W34472  11.898  17.297  16.221  0.1225 -0.1737  0.2179
17999W        W34473   9.116  12.425   1.363 -0.1515 -0.3534  0.0866
18000W        W34474   9.691  12.432  13.736  0.0486 -0.1052 -0.1369
18001W        W34475  15.791   5.870   5.894  0.1173 -0.1889 -0.0509
18002W        W34476   8.349  17.133  16.080 -0.2162  0.1197  0.1140
18003W        W34477   1.208   3.944  11.960  0.2551  0.1473  0.0811
18004W        W34478  10.931   2.696   3.910 -0.3755 -0.1017  0.1929
18005W        W34479  15.738   4.282  14.325 -0.2789  0.0298 -0.0397
18006W        W34480   2.118   1.974  12.989  0.2660  0.1565 -0.1469
18007W        W34481  13.528  13.375   4.813  0.0872  0.4127 -0.1592
18008W        W34482  15.219   7.783   0.709  0.3249  0.2541 -0.0414
18009W        W34483   7.392  16.567   5.951  0.0498  0.2837 -0.1192
18010W        W34484   1.597   3.151  13.909 -0.1089  0.1357 -0.2283
18011W        W34485   1.266   7.871  11.350  0.1941 -0.1276  0.2172
18012W        W34486  14.336   4.548  12.680  0.0966  0.0625 -0.0079
18013W        W34487  15.132   8.243   4.331  0.1126 -0.0655 -0.2906
18014W        W34488   2.851  16.218   2.938  0.0753  0.2578 -0.0163
18015W        W34489   3.255   8.627   2.758 -0.0977  0.0931 -0.1437
18016W        W34490   4.309  10.837  14.955  0.3605 -0.2917  0.0205
18017W        W34491   6.765  14.786   5.773 -0.0280  0.1815  0.1020
18018W        W34492  12.253   8.777  13.662 -0.1066 -0.1443 -0.2095
18019W        W34493   0.211  11.334   5.746  0.1589  0.0247 -0.0081
18020W        W34494   7.327   9.283  13.313  0.0177  0.2216 -0.0063
18021W        W34495   1.330   1.672  15.967 -0.0904  0.1188 -0.1723
18022W        W34496  13.613   4.545   0.657 -0.2529  0.1167  0.3678
18023W        W34497   3.341   3.937  14.354 -0.1895 -0.0153 -0.1181
18024W        W34498   5.544  12.480  15.474 -0.0088 -0.1985 -0.2726
18025W        W34499  16.880   3.342   3.756  0.1736 -0.2011  0.0488
18026W        W34500  11.181  15.056  13.839 -0.0873 -0.1852 -0.1220
18027W        W34501  15.863  12.803   0.513 -0.0747  0.2373  0.4183
18028W        W34502   5.808   1.805   2.326  0.0572 -0.1911 -0.0340
18029W        W34503  14.565   2.270   0.251  0.3166  0.0980 -0.2234
18030W        W34504   0.624   4.926  15.289 -0.1249  0.0834  0.0346
18031W        W34505   6.749  14.446   2.501 -0.2042  0.0591  0.0213
18032W        W34506   0.577  14.152  16.466  0.1026  0.1097  0.0651
18033W        W34507  16.443  14.354  11.962 -0.0148 -0.2360 -0.4288
18034W        W34508   4.869  17.333   5.482  0.0499  0.1181 -0.2088
18035W        W34509  10.348  14.034  14.009 -0.0717 -0.0682  0.2060
18036W        W34510   7.256  13.872  13.059 -0.4690  0.2161 -0.0342
18037W        W34511   4.463   0.924   3.482  0.0026 -0.1156 -0.2647
18038W        W34512  10.760   1.733  16.592  0.0768 -0.1737 -0.1292
18039W        W34513  16.525  10.319   1.179 -0.0390  0.2604  0.0534
18040W        W34514  10.999  10.098  13.735  0.0201 -0.2822 -0.2359
18041W        W34515  15.415   2.891   0.790 -0.3332  0.0004 -0.0079
18042W        W34516  14.699   4.837   3.537  0.1614  0.0499  0.0286
18043W        W34517   5.126   9.784   4.795  0.0035 -0.1029  0.0631
18044W        W34518  15.467  17.505   0.765 -0.2310 -0.1389 -0.1878
18045W        W34519  13.239  16.931  12.696 -0.0611 -0.0164 -0.3669
18046W        W34520   9.749   8.594   5.165  0.1571  0.1634 -0.1381
18047W        W34521   4.663   2.217  16.862 -0.3033 -0.2011 -0.0213
18048W        W34522   6.652   4.733  12.661 -0.1954  0.2766 -0.3227
18049W        W34523   7.054  14.260  13.766 -0.0815 -0.1991  0.0000
18050W        W34524   7.133   7.871   0.938  0.2084  0.2868  0.1253
18051W        W34525   2.220   1.280  16.277  0.0920  0.0184  0.1732
18052W        W34526   5.512   1.821  13.296  0.2224  0.2370  0.0716
18053W        W34527   5.231   1.696  15.036  0.0690 -0.0998 -0.1352
18054W        W34528   3.803   5.383  14.172  0.0870 -0.0808  0.1717
18055W        W34529   1.335   2.469  13.318  0.2189 -0.0766  0.2883
18056W        W34530  13.389   6.242  13.561 -0.1887 -0.1832  0.1057
18057W        W34531   0.384  14.896  13.224 -0.0601 -0.1610 -0.1332
18058W        W34532  14.800   4.014  13.288 -0.3518  0.0926  0.0617
18059W        W34533   4.960   0.622   4.599 -0.1602  0.0460  0.2292
18060W        W34534   6.478   7.741  12.494 -0.3989 -0.0540  0.1388
18061W        W34535   0.365   1.533   2.900 -0.1811  0.1731  0.0368
18062W        W34536  17.133   9.160   4.684 -0.2533  0.1996 -0.2513
18063W        W34537   5.809   5.494  14.190  0.2655 -0.0396 -0.0298
18064W        W34538  14.222   4.417  16.838 -0.0047 -0.0611  0.1739
18065W        W34539  11.718  10.789  12.047  0.1408 -0.2271 -0.2010
18066W        W34540  13.004   5.037  16.550 -0.0443 -0.2496  0.2937
18067W        W34541   9.772   6.158  16.357  0.1009 -0.0735  0.0860
18068W        W34542   5.552   0.159  12.662  0.0484  0.0130 -0.1207
18069W        W34543   7.440   2.075   1.938 -0.0748  0.0703 -0.1986
18070W        W34544  13.642   3.586   1.940  0.0278 -0.1205  0.0768
18071W        W34545   1.140  11.064   1.180 -0.1602 -0.2171  0.1418
18072W        W34546   3.784  11.798  15.550  0.0473  0.4381 -0.0671
18073W        W34547  10.403  12.031  15.933 -0.1582 -0.1939  0.0725
18074W        W34548  14.924   1.470   1.841 -0.1424  0.1533 -0.0903
18075W        W34549  15.494   3.689   1.331  0.1121 -0.4043  0.0177
18076W        W34550   5.457   2.524   5.389 -0.2015 -0.1904  0.4208
18077W        W34551   6.035   4.267  11.557  0.0382 -0.1558  0.0296
18078W        W34552   8.918  15.944  11.930  0.1802  0.1231  0.0664
18079W        W34553  17.541   8.378  12.572  0.1241  0.1526 -0.1472
18080W        W34554   7.642  15.073   0.748 -0.0640  0.0266  0.0026
18081W        W34555   8.103   8.369   5.081  0.1148 -0.4121 -0.3546
18082W        W34556  11.596   9.767  16.422  0.1159 -0.1425  0.0855
18083W        W34557   0.525  12.839   5.352 -0.2130 -0.2865  0.0022
18084W        W34558  16.802  12.162   1.394  0.0157 -0.2196 -0.0020
18085W        W34559   2.738  14.844  16.638  0.1528 -0.1379  0.0360
18086W        W34560  14.646  16.558  16.614 -0.0582  0.2754 -0.1154
18087W        W34561   8.277   2.025  15.777 -0.1971  0.1106 -0.1211
18088W        W34562   1.869  14.400   3.794  0.1822  0.2505 -0.0914
18089W        W34563   5.771  13.572   3.170 -0.1576 -0.2634  0.0272
18090W        W34564   8.796  15.839   4.127  0.0042 -0.5978 -0.0415
18091W        W34565  13.748   6.577  11.596  0.2347 -0.1932  0.0884
18092W        W34566  16.923   2.320   3.867 -0.0523 -0.2428  0.0386
18093W        W34567   7.487   1.922  13.319  0.0801  0.4616 -0.1467
18094W        W34568   7.601  14.488   4.147  0.0264  0.1958 -0.2077
18095W        W34569   2.580   2.024   4.481  0.0703  0.3552  0.1015
18096W        W34570  16.270  13.561   2.664  0.2460 -0.1845  0.2169
18097W        W34571   9.545   5.841   1.800 -0.0772 -0.1358  0.0809
18098W        W34572   2.833  16.943  15.771 -0.1036  0.0239  0.2197
18099W        W34573  14.688   9.130  13.245  0.1204  0.1733 -0.3299
18100W        W34574  13.736  13.605  11.876 -0.3519 -0.2421  0.0222
18101W        W34575   9.325   9.658   4.409  0.1372 -0.0773  0.0083
18102W        W34576  17.007  12.036  15.998 -0.1406 -0.1581 -0.0182
18103W        W34577  13.641  14.637   0.689 -0.1294  0.4640  0.2599
18104W        W34578   3.305  14.846  16.561  0.0203  0.2127  0.0482
18105W        W34579   7.552  16.152  15.231 -0.0767 -0.0173 -0.0881
18106W        W34580  15.994  17.093  14.470 -0.0917  0.2791  0.1229
18107W        W34581   9.397  12.465   6.429 -0.0460 -0.0007 -0.4088
18108W        W34582   8.928  16.768  16.229  0.0894 -0.0446 -0.1891
18109W        W34583  12.120   7.403   0.517  0.2385  0.0269  0.2458
18110W        W34584   2.562   9.911   4.210 -0.2918  0.2134 -0.2082
18111W        W34585  10.639   5.868  16.886  0.0883  0.0772 -0.1685
18112W        W34586  17.476  12.597  11.633 -0.0471 -0.4897  0.1196
18113W        W34587   1.281   0.640   5.704 -0.0328 -0.0422  0.2068
18114W        W34588  17.606  14.023  16.203 -0.1058 -0.0316 -0.1829
18115W        W34589  11.194   8.176  12.620 -0.0371  0.2405  0.1563
18116W        W34590  13.321  16.689  13.918  0.1386  0.1147  0.0006
18117W        W34591  17.558   6.298   2.050  0.2433 -0.2799  0.1911
18118W        W34592   4.081  17.453  15.232  0.0447  0.1449  0.2854
18119W        W34593  15.037   3.066   3.757  0.1607 -0.2429  0.2838
18120W        W34594  14.610  14.699  13.447  0.0153 -0.2129  0.0331
18121W        W34595   3.369  10.494  14.036 -0.0570  0.1046 -0.1131
18122W        W34596   5.873   4.876  15.957 -0.0285 -0.0122 -0.0972
18123W        W34597   7.064   2.506  15.632  0.0368  0.3495 -0.2145
18124W        W34598  15.703   3.707   6.151  0.4584  0.1063  0.2175
18125W        W34599  12.903  15.131   4.638  0.1143  0.0396 -0.3355
18126W        W34600   4.477   8.641   3.906 -0.2018 -0.3334 -0.1032
18127W        W34601  16.165  14.709  14.052  0.2224  0.2293 -0.0904
18128W        W34602   9.960  12.663  15.235 -0.0832  0.0616  0.0573
18129W        W34603   4.544  11.820  13.473  0.1163 -0.1863 -0.0887
18130W        W34604   1.907   8.326  13.813  0.4591  0.0809 -0.0128
18131W        W34605   4.334  12.671  12.867 -0.0600  0.0035  0.1146
18132W        W34606  13.284  12.776  12.332  0.2198 -0.1402 -0.0760
18133W        W34607   1.503   1.457   1.218 -0.1159 -0.0504  0.2262
18134W        W34608  16.386   7.484  16.303  0.0016  0.1396  0.3285
18135W        W34609  13.223  11.691  15.373 -0.0382  0.0020 -0.3107
18136W        W34610   9.264   1.584  16.609  0.0276 -0.0303  0.1276
18137W        W34611   4.566   8.829   0.329  0.0768 -0.2591 -0.3106
18138W        W34612   3.782  10.636  11.536 -0.1966  0.0597  0.1045
18139W        W34613   3.544   8.299  15.305  0.0693 -0.0190 -0.0119
18140W        W34614   3.871  11.725   2.291 -0.2470 -0.0143 -0.0712
18141W        W34615  14.325  11.874   4.356  0.3147 -0.0682 -0.0636
18142W        W34616   4.443   2.502   2.134  0.0661  0.0576  0.3912
18143W        W34617  13.682  10.829   5.498  0.1704  0.1761 -0.0188
18144W        W34618  10.586  16.013   2.581  0.1772  0.2282 -0.2969
18145W        W34619  12.499   6.668  13.850 -0.2143 -0.1436 -0.0440
18146W        W34620   6.870  12.077   1.606 -0.2449 -0.1181 -0.0350
18147W        W34621   7.443   2.471  15.977 -0.2733 -0.2798 -0.4197
18148W        W34622   3.827  15.979   0.869  0.0882 -0.2354  0.0831
18149W        W34623   2.686  10.882  16.188 -0.3051  0.1798  0.0871
18150W        W34624  14.299   4.053  15.662  0.1260  0.1773  0.2583
18151W        W34625   2.156  16.312  13.008  0.0073 -0.1303  0.2134
18152W        W34626   5.832  13.540   5.924 -0.0069 -0.1069 -0.0674
18153W        W34627  17.584   9.637   3.183  0.1640  0.0650  0.1881
18154W        W34628   2.538  11.665   1.135  0.0134  0.0153 -0.0986
18155W        W34629   9.118  10.228  12.457 -0.1736 -0.2733  0.4555
18156W        W34630   0.852  14.774  12.212 -0.1238 -0.0999 -0.1306
18157W        W34631   8.008  11.335   1.400 -0.3114 -0.2100 -0.0399
18158W        W34632   8.662  13.969   5.032  0.1053 -0.1524 -0.1614
18159W        W34633  13.342  15.371   2.285 -0.0544 -0.0472 -0.0653
18160W        W34634  13.710   4.363  15.108 -0.0817 -0.1032 -0.1234
18161W        W34635  16.686  10.775   5.800  0.0737  0.1251  0.0800
18162W        W34636  11.023   3.297   4.932 -0.2899  0.2709  0.1049
18163W        W34637  11.492  12.469   0.146 -0.3657  0.1148 -0.0039
18164W        W34638  14.719   1.226   5.428  0.3350  0.1828  0.0250
18165W        W34639  13.689   6.234  12.813 -0.0394 -0.3048  0.0017
18166W        W34640   1.285  10.266   3.620 -0.0728  0.1746 -0.0565
18167W        W34641   4.146  10.392   1.948  0.1923  0.1273 -0.1906
18168W        W34642  15.983  17.759  13.335  0.0609 -0.1233  0.0030
18169W        W34643   1.910   3.820   1.176 -0.0153  0.3142  0.3704
18170W        W34644  14.847  15.092  14.297  0.0992  0.4419 -0.0604
18171W        W34645  17.123   1.288  14.223 -0.0516 -0.1274  0.1732
18172W        W34646   7.780   3.827  11.534 -0.1238  0.2756  0.2207
18173W        W34647   9.453   5.997   5.025  0.0006 -0.0073 -0.0177
18174W        W34648   4.828   0.072  16.576  0.4121  0.0449 -0.2331
18175W        W34649   0.255   9.597   2.895  0.0343  0.2774 -0.3483
18176W        W34650  10.855   6.108  13.550  0.0890 -0.0292  0.3468
18177W        W34651  10.282  11.853   3.959  0.0295 -0.1198  0.1139
18178W        W34652   1.844   1.259   2.159 -0.2562  0.1862 -0.0030
18179W        W34653   8.208   9.688  14.319 -0.0990 -0.1688  0.1438
18180W        W34654   7.254   6.437   2.867 -0.1570  0.1722 -0.1351
18181W        W34655  10.112   9.409  12.703  0.1455  0.0087  0.1858
18182W        W34656   5.478  10.072   1.531 -0.1730 -0.1933  0.0678
18183W        W34657  14.234  13.020   1.030  0.0969 -0.0148  0.1475
18184W        W34658   5.017   1.720  16.910  0.1338  0.1425 -0.0098
18185W        W34659  15.693   1.641   1.356 -0.0088 -0.1686  0.1289
18186W        W34660   5.543   9.547   5.877 -0.2078 -0.1866 -0.1430
18187W        W34661   2.338   0.749   0.358  0.2391  0.2834 -0.1057
18188W        W34662   4.345  12.364  15.639 -0.0201 -0.1323  0.2825
18189W        W34663  17.463   4.787   5.383 -0.0669 -0.0086  0.1191
18190W        W34664  13.736   5.292  15.416 -0.1970  0.0654  0.2009
18191W        W34665  12.463   1.261   4.338  0.1038  0.0879 -0.2973
18192W        W34666   5.365  12.695   3.129  0.0260  0.0455 -0.2446
18193W        W34667   8.188  14.069  13.461 -0.2110 -0.4452  0.0019
18194W        W34668  14.518   9.508   2.633 -0.1621  0.0728  0.0456
18195W        W34669  13.439   3.075   1.898  0.0422  0.0047 -0.3677
18196W        W34670   9.843  16.377   0.097  0.0550  0.1662 -0.2143
18197W        W34671   7.997   1.128  16.688 -0.0411 -0.0078 -0.2301
18198W        W34672  10.124   6.810  13.575  0.0081  0.2092 -0.0028
18199W        W34673  17.161   2.444  16.066  0.2495 -0.0501  0.4292
18200W        W34674  16.571  13.174  13.816  0.0926 -0.0114 -0.1535
18201W        W34675   3.079   6.756  13.237 -0.1736 -0.0335  0.1917
18202W        W34676   3.642  13.202   1.581 -0.2486 -0.1939  0.1389
18203W        W34677   8.768  14.847  11.356  0.3556 -0.1547 -0.0880
18204W        W34678  13.147  13.968   2.345 -0.0839  0.0871 -0.1395
18205W        W34679   2.448   9.783  11.574  0.0885  0.0814  0.1097
18206W        W34680  12.156  15.231  12.005 -0.0412  0.3411  0.0168
18207W        W34681  11.776   2.103   3.584 -0.1109  0.2804  0.2756
18208W        W34682   0.312   7.202  16.279  0.2499  0.2103  0.2582
18209W        W34683  13.801   5.692  15.728 -0.2582  0.2816 -0.0500
18210W        W34684   4.074   9.156  13.675  0.0789 -0.0593 -0.1866
18211W        W34685  12.124  11.735  15.948 -0.1726  0.2442 -0.0023
18212W        W34686   8.496   7.668   1.230  0.0873 -0.0284  0.0524
18213W        W34687   3.377   3.725   3.905 -0.0025  0.0547 -0.3777
18214W        W34688  13.689   3.668   2.446 -0.0997  0.0607  0.1885
18215W        W34689  10.836  16.686  14.374 -0.4271  0.2137  0.0580
18216W        W34690  14.219   2.605  16.468  0.0698 -0.0542  0.2929
18217W        W34691  15.064  11.718  16.769 -0.2541 -0.2135 -0.4051
18218W        W34692   1.143   3.830  13.971  0.2171  0.2980 -0.0369
18219W        W34693   5.849  11.527   3.123  0.0848 -0.1042 -0.0508
18220W        W34694   9.534  13.178   1.377 -0.0747  0.1264 -0.2674
18221W        W34695   1.779   1.361  14.803  0.1419  0.3601 -0.2688
18222W        W34696   4.902   6.665   1.538 -0.3533  0.2536  0.1631
18223W        W34697  13.736   8.756  14.357  0.1684  0.1213 -0.0072
18224W        W34698   5.973   8.143   0.667 -0.0435 -0.1205 -0.3762
18225W        W34699  16.408   0.734   5.114 -0.0468 -0.0965 -0.0983
18226W        W34700   3.404   9.141   1.097  0.0218 -0.0961 -0.1427
18227W        W34701   7.023  10.715   0.740  0.0422  0.0483  0.0598
18228W        W34702   7.537   3.313   1.195  0.1727 -0.2451 -0.1010
18229W        W34703   2.098   5.647  14.255  0.0418  0.2034  0.2336
18230W        W34704   0.403  12.464   1.208  0.0555  0.0655  0.0792
18231W        W34705   2.671   9.118   3.676 -0.0380 -0.0239  0.2699
18232W        W34706   6.938  11.274   1.442 -0.1657 -0.1053  0.0544
18233W        W34707   4.586   3.650  14.217  0.0726 -0.1167  0.0549
18234W        W34708  16.024  16.304   2.643  0.2178 -0.0622 -0.0802
18235W        W34709   9.906   0.971   0.861 -0.2101  0.0224  0.1472
18236W        W34710   6.212   3.833  13.419 -0.2921 -0.0592  0.1861
18237W        W34711   1.219  10.371  14.558 -0.1888  0.0343 -0.2023
18238W        W34712  10.377  16.464   3.164  0.0453  0.1145 -0.0881
18239W        W34713   0.591  14.745  12.649 -0.2265  0.0035  0.1396
18240W        W34714   6.099   6.529   4.306 -0.1662  0.1712 -0.0574
18241W        W34715  15.583   6.897  14.714 -0.0503  0.1322  0.0939
18242W        W34716   7.838  16.461   1.402  0.0268  0.0527  0.1222
18243W        W34717   9.136  10.651   2.824 -0.2852  0.0964 -0.0803
18244W        W34718  12.433  15.981  14.431  0.1600  0.3233  0.1048
18245W        W34719  17.313   8.009   4.313  0.1653 -0.3269  0.3413
18246W        W34720   4.885  16.400   3.839 -0.0478  0.0596 -0.3008
18247W        W34721   7.568  16.526  15.555 -0.0600  0.1050  0.1014
18248W        W34722  16.580   9.495   1.253  0.1807  0.2926  0.2038
18249W        W34723   6.061   7.375   5.968  0.0678  0.3166 -0.1344
18250W        W34724  14.062   8.112   1.447 -0.0813  0.0107  0.0532
18251W        W34725  12.833   9.438  16.612 -0.0487  0.1740 -0.1337
18252W        W34726  12.908   8.144   4.617  0.2723  0.2386  0.0945
18253W        W34727   7.838   5.701   2.667 -0.2746 -0.1889  0.2697
18254W        W34728   3.460   1.741   4.006  0.0478 -0.2098 -0.3151
18255W        W34729   2.683   1.893   0.940  0.0978  0.3836 -0.1044
18256W        W34730  13.055   7.167  13.124  0.0336  0.0414  0.3565
18257W        W34731  17.026  12.561  13.379 -0.3877  0.1285  0.0287
18258W        W34732  15.975   7.734   0.491  0.2682  0.2713  0.0391
18259W        W34733   1.657   2.114   0.910 -0.1477 -0.1633  0.1192
18260W        W34734   2.260   1.473  14.722 -0.1414 -0.0957  0.3223
18261W        W34735   4.521  15.547  12.220 -0.2655 -0.0677 -0.0611
18262W        W34736  12.488   6.077   5.551  0.0544 -0.3733 -0.0289
18263W        W34737   0.536  15.096   1.550  0.4120  0.0496  0.4712
18264W        W34738   9.556  11.322  11.772  0.3126  0.0917 -0.2716
18265W        W34739   8.666   2.450  13.307 -0.1284 -0.3383  0.1806
18266W        W34740  11.346   5.262   2.032 -0.1485 -0.3495  0.2023
18267W        W34741   7.711   9.502   5.227  0.0296  0.1392 -0.0917
18268W        W34742  15.225   3.710  12.093 -0.0035 -0.0291 -0.3109
18269W        W34743   7.773  15.612  14.720 -0.0229  0.0713 -0.0027
18270W        W34744   0.391   1.759  15.930  0.1589  0.1826  0.0422
18271W        W34745  14.973   8.552  15.344  0.0468  0.0558 -0.0588
18272W        W34746   0.716  12.553   1.816  0.1609 -0.1237 -0.2727
18273W        W34747  13.778  14.338   5.358  0.2066 -0.2511  0.0286
18274W        W34748  17.762  12.826   3.267  0.1088  0.0183  0.1894
18275W        W34749   6.061   3.043  13.929 -0.1830  0.0505 -0.0863
18276W        W34750  14.525  11.507   2.663  0.1557 -0.1539  0.0464
18277W        W34751   3.962   0.455  14.720 -0.0729 -0.1555 -0.1262
18278W        W34752  13.899  17.705   1.375 -0.0722  0.1154 -0.2710
18279W        W34753   4.115  11.347  12.684 -0.0253 -0.2702  0.1052
18280W        W34754  13.277   1.205  14.861 -0.0533  0.0439  0.0636
18281W        W34755   4.201   2.575   3.174  0.1740 -0.0014  0.0074
18282W        W34756   5.442   7.209   0.686  0.0438 -0.1753  0.5089
18283W        W34757   6.795  10.221  13.580  0.0355  0.1901  0.3622
18284W        W34758  13.608   8.694  13.495 -0.0885 -0.0963  0.1080
18285W        W34759   8.937  16.496  12.937  0.2306  0.0409 -0.1865
18286W        W34760  12.906  12.816  13.327 -0.1981 -0.0506 -0.1216
18287W        W34761   3.934  11.937  11.825 -0.0522  0.2709  0.2892
18288W        W34762  16.068   3.220   0.374  0.0991 -0.2201 -0.2620
18289W        W34763  16.803  12.516   2.312 -0.5742  0.1885  0.0847
18290W        W34764  10.442   4.587  14.573  0.3123 -0.1111 -0.0088
18291W        W34765  16.189  16.133   3.682  0.1915 -0.0220 -0.1964
18292W        W34766   6.606   3.214  12.136  0.0007  0.0461 -0.1167
18293W        W34767   1.644   3.335   3.629 -0.0218  0.3465 -0.0792
18294W        W34768  17.304   1.693   2.113  0.1887 -0.2167  0.0918
18295W        W34769   8.434   9.287  16.364 -0.2544 -0.2578 -0.0904
18296W        W34770   8.117   1.334   5.370 -0.2831  0.0416  0.2207
18297W        W34771  15.906  10.903   1.931 -0.0758 -0.1766  0.0519
18298W        W34772   7.724  15.815   2.840  0.3432 -0.2738  0.2152
18299W        W34773   9.272  14.234   3.858  0.0635  0.0496 -0.1358
18300W        W34774  15.467   4.219  12.209  0.0564  0.0245 -0.0416
18301W        W34775  15.605   0.295  10.766  0.0539  0.3772  0.0131
18302W        W34776   6.425   1.633  12.952 -0.0708  0.1429 -0.0251
18303W        W34777  17.680  15.845   5.158  0.0550  0.0571  0.0271
18304W        W34778   1.520   8.475   0.541 -0.0442 -0.2108 -0.0543
18305W        W34779   0.278   5.862   2.590  0.1205 -0.1281 -0.4065
18306W        W34780   2.006  15.619  14.506 -0.1409 -0.0237  0.0764
18307W        W34781   5.280   4.265  16.717  0.0745  0.2623  0.1550
18308W        W34782   0.107  14.273   1.758  0.2356  0.1976 -0.1988
18309W        W34783  12.549   5.268  12.509 -0.2257 -0.0335 -0.1332
18310W        W34784   9.524   3.865  13.946  0.1246  0.0260 -0.0135
18311W        W34785   3.343  14.399  16.864  0.0298 -0.0404 -0.1748
18312W        W34786  17.345  11.129   5.131 -0.0811 -0.1194 -0.5513
18313W        W34787  12.149  10.439  15.850 -0.1710  0.2184 -0.1630
18314W        W34788   3.270   9.015   3.049  0.2559 -0.1117  0.0702
18315W        W34789   4.930  15.672  12.604  0.1206  0.3765 -0.3706
18316W        W34790   6.522   1.935  11.656 -0.3083 -0.1871  0.4032
18317W        W34791  12.939  11.456  12.999 -0.1688 -0.2069  0.0742
18318W        W34792  14.797  17.482  14.152 -0.1129 -0.0719  0.1468
18319W        W34793  11.880   5.398   3.150  0.2677  0.0624 -0.1256
18320W        W34794  17.263   1.453   4.229  0.1111 -0.0241  0.1238
18321W        W34795   3.785  11.369  15.151  0.1135 -0.0898  0.0669
18322W        W34796  17.655   5.633   4.377  0.1688  0.1155  0.0356
18323W        W34797   4.048   2.138  15.559 -0.0045  0.2409 -0.0189
18324W        W34798   4.485  11.873   4.170 -0.0141  0.0615 -0.2563
18325W        W34799  10.008  15.330  12.343  0.0847  0.1900  0.1597
18326W        W34800  15.516   1.809  16.428  0.1551 -0.0304 -0.0657
18327W        W34801   1.587  11.040  13.374  0.2196  0.1692 -0.0106
18328W        W34802   2.525  16.836  13.750  0.1661  0.0721  0.0107
18329W        W34803   2.678  15.336  12.115 -0.0145 -0.0214 -0.1032
18330W        W34804   2.123  12.209   1.661 -0.2099 -0.1931 -0.1764
18331W        W34805  16.799   5.418  16.504 -0.1992  0.3213  0.0673
18332W        W34806  13.708   6.689  15.982 -0.0621  0.2058  0.1073
18333W        W34807   0.737   3.641  15.808 -0.1110 -0.0907  0.0646
18334W        W34808  15.710   3.740  14.443  0.2521  0.0190 -0.3302
18335W        W34809   2.979   9.111   2.657  0.3065 -0.0128 -0.1061
18336W        W34810   1.546   6.031   0.781 -0.4716  0.2026  0.3582
18337W        W34811   9.410  11.009  12.896  0.1529  0.0028  0.0635
18338W        W34812   9.885   8.456   1.275  0.1348  0.1172 -0.1109
18339W        W34813  11.141  17.068  13.081 -0.0556  0.4109  0.1361
18340W        W34814   7.483   8.793   0.079 -0.0091  0.1386  0.1427
18341W        W34815  14.080  16.345  13.761  0.0070 -0.1059 -0.0951
18342W        W34816  13.537   8.380   1.519  0.0396 -0.2432 -0.1046
18343W        W34817   5.762  15.905   4.662  0.2041  0.1749 -0.2904
18344W        W34818   2.037  15.219  15.783  0.0268 -0.1325 -0.4311
18345W        W34819   2.341   7.053  16.090 -0.1436  0.1987 -0.1664
18346W        W34820   2.143   7.416  15.798 -0.0474 -0.0575 -0.4713
18347W        W34821  12.226   5.014   3.226  0.1863 -0.0361 -0.0400
18348W        W34822   6.540   1.302  12.489  0.0873  0.1692  0.2039
18349W        W34823  10.122  16.713  14.333  0.2366  0.0648 -0.0856
18350W        W34824  10.634  12.151  11.982  0.1663 -0.2187 -0.3992
18351W        W34825   4.071  12.347  14.921  0.1473  0.0721 -0.0040
18352W        W34826   1.234  16.130   0.528 -0.0083 -0.1906  0.1524
18353W        W34827   0.051  15.194  15.213 -0.3353  0.0186 -0.1814
18354W        W34828   3.734   7.764   3.338 -0.0997 -0.1464 -0.0251
18355W        W34829  14.101   7.757   5.025  0.0903  0.0745 -0.0718
18356W        W34830   0.493  13.921   0.014 -0.1667 -0.0139  0.2208
18357W        W34831   5.847   3.272   0.595 -0.1100 -0.0002 -0.1772
18358W        W34832   0.950   0.155  16.558 -0.2655 -0.2433  0.1667
18359W        W34833   7.015   8.117  15.521 -0.0340 -0.3057 -0.0974
18360W        W34834   9.746   0.264   0.586  0.0224  0.2165 -0.2124
18361W        W34835  12.930   9.859  14.083 -0.1772  0.0972 -0.1898
18362W        W34836  15.491   1.388   2.359  0.0818 -0.3175 -0.1272
18363W        W34837   2.926  13.225  13.680 -0.2962 -0.3568  0.1023
18364W        W34838  11.788  15.995  14.027 -0.1027 -0.1162 -0.0348
18365W        W34839   0.491   5.289   0.596 -0.2102  0.1864 -0.3679
18366W        W34840  11.935  17.532  13.168 -0.1873 -0.2867  0.0308
18367W        W34841   6.465   8.626   2.083  0.0411  0.0859  0.4179
18368W        W34842   9.291  17.057  11.191  0.0560 -0.0431 -0.2981
18369W        W34843   5.660   3.041   1.568  0.4192 -0.0225 -0.1544
18370W        W34844   3.246   4.327  14.653  0.1941 -0.1531 -0.3213
18371W        W34845  15.721  10.046  13.797 -0.0733  0.3810  0.3731
18372W        W34846   7.800  14.125  14.386  0.2715  0.1049  0.0338
18373W        W34847   7.977  13.208   1.539  0.1199 -0.0214  0.1636
18374W        W34848   4.737  16.764   5.592  0.0848  0.2624 -0.1118
18375W        W34849  14.002   1.908   5.672  0.5035 -0.1332  0.1992
18376W        W34850   5.479  14.209   3.756  0.2371  0.2277 -0.1422
18377W        W34851   6.877  15.661  12.219 -0.0704 -0.3106 -0.1800
18378W        W34852   2.625  16.620   4.773  0.0733  0.1623 -0.1220
18379W        W34853   8.191   6.352   0.324  0.0615  0.0595 -0.1984
18380W        W34854   2.759   6.950   3.883 -0.2403  0.1208  0.1130
18381W        W34855   1.587   2.698  14.558 -0.0927  0.1795  0.2476
18382W        W34856  15.234   8.666  16.748 -0.0298 -0.3251 -0.1874
18383W        W34857   1.339   5.996   4.351 -0.0625  0.0693  0.1979
18384W        W34858   1.204   9.282  14.900  0.0339  0.2326 -0.1733
18385W        W34859  11.316  13.348  15.993 -0.0407  0.1930 -0.0279
18386W        W34860   7.793   7.990  12.196 -0.0156 -0.0697 -0.1201
18387W        W34861  10.015   9.078   3.657  0.2025  0.2244  0.1094
18388W        W34862   1.844   6.071   1.426  0.2366 -0.0034  0.0068
18389W        W34863   5.344   1.552   0.314 -0.1447  0.1150  0.0369
18390W        W34864  14.731   1.659   5.727  0.0297  0.2346 -0.1674
18391W        W34865   0.772  15.064   4.674  0.1220  0.0508 -0.1889
18392W        W34866   4.784  10.651   5.957  0.0823  0.0369 -0.1404
18393W        W34867   4.873  11.808   1.724 -0.0781  0.1693 -0.0986
18394W        W34868  12.496   4.548   2.542  0.0267  0.3360 -0.1978
18395W        W34869   9.939  14.988  12.654  0.2520  0.0602  0.0582
18396W        W34870   0.341   3.393  15.039 -0.0198 -0.1118 -0.1618
18397W        W34871  10.776   7.418  13.654 -0.0521 -0.0619  0.1392
18398W        W34872  12.320   4.173  16.911 -0.0359  0.1166 -0.2401
18399W        W34873   9.421   0.285  12.146 -0.0570 -0.1123 -0.1019
18400W        W34874  12.886  16.001   0.176  0.1716  0.0208  0.0868
18401W        W34875   3.214   8.564   1.809 -0.3938  0.3014  0.2747
18402W        W34876   5.040  10.781  12.259 -0.3290  0.0325 -0.0294
18403W        W34877  15.893  11.090  11.613  0.1564  0.1046 -0.0096
18404W        W34878   6.316   6.546  12.577  0.1794  0.0533 -0.0085
18405W        W34879  12.203   0.629   1.295 -0.0115 -0.0926  0.2315
18406W        W34880  13.905  12.901  16.805 -0.1537  0.2006  0.2785
18407W        W34881  11.081   3.353  13.834 -0.0988 -0.0802 -0.1180
18408W        W34882   3.668  16.834  16.178 -0.1087 -0.0212  0.1094
18409W        W34883  14.611   0.221  13.245 -0.2013  0.1586 -0.0415
18410W        W34884   1.480   6.484   5.913 -0.0176  0.2268  0.4918
18411W        W34885  11.995   4.110   0.387 -0.1554  0.0144 -0.2668
18412W        W34886   6.582  12.028   3.448 -0.2628  0.0914 -0.2482
18413W        W34887  14.507  11.304  16.656  0.0719  0.2236 -0.3861
18414W        W34888   3.578  10.448  11.036 -0.0501 -0.0761 -0.4137
18415W        W34889   8.900   5.512  15.473 -0.1437 -0.0617  0.0460
18416W        W34890   6.593   4.660   1.737 -0.3853 -0.1514 -0.0767
18417W        W34891  16.518   4.122  13.391 -0.0427 -0.0247 -0.1378
18418W        W34892   9.627   5.447   0.417  0.2502 -0.2892 -0.0766
18419W        W34893  16.008   5.077   1.142 -0.1171  0.1849 -0.0633
18420W        W34894   0.413   4.114  14.410 -0.0277  0.2415  0.2935
18421W        W34895   3.480  16.093   4.139 -0.0210 -0.1141  0.0990
18422W        W34896   6.465  15.537   1.414  0.1111  0.2601  0.0197
18423W        W34897  10.485   0.915  15.009  0.0166  0.0018 -0.2352
18424W        W34898  15.766  10.096   5.072  0.1845 -0.2437 -0.3370
18425W        W34899   1.531   4.302  16.914 -0.2651  0.0744  0.0703
18426W        W34900   9.324  17.153  12.551  0.3046  0.1171  0.3028
18427W        W34901  15.975   2.183  15.636 -0.0879  0.1230 -0.0520
18428W        W34902  13.751  15.415  12.565  0.2701  0.1001  0.0378
18429W        W34903   9.831   7.737  13.302  0.0122 -0.1617  0.0362
18430W        W34904  10.892   6.854  13.728  0.1025  0.0645  0.1142
18431W        W34905  10.790   5.947   2.233  0.1175 -0.1846 -0.0936
18432W        W34906  14.131   4.034   4.769 -0.0376 -0.2743  0.2393
18433W        W34907   2.765  15.617   2.658 -0.0066 -0.1351 -0.0758
18434W        W34908  12.614  15.794   0.586 -0.2669 -0.0325 -0.2617
18435W        W34909   7.153  15.283  16.911  0.2228 -0.2003 -0.2059
18436W        W34910   1.947   0.315  13.620 -0.0585 -0.0450  0.1544
18437W        W34911   1.488   8.591  13.737 -0.0161  0.0075 -0.0195
18438W        W34912   2.217  12.843  14.760  0.2565 -0.0344  0.0196
18439W        W34913  10.484  13.463  12.552  0.0575  0.2125  0.1720
18440W        W34914  16.537   3.181  12.990  0.1609 -0.1727  0.3523
18441W        W34915   1.885  10.418  13.743  0.0397 -0.0400  0.3591
18442W        W34916   8.373  15.583  11.698  0.2086  0.0438  0.0564
18443W        W34917   2.980   9.703  11.297 -0.0529  0.1915  0.0643
18444W        W34918   0.241  14.708   1.431  0.0368 -0.5106 -0.0767
18445W        W34919   8.780   3.639  15.709  0.2706 -0.2518 -0.0844
18446W        W34920   8.786  15.690   5.583 -0.0821  0.0292 -0.0388
18447W        W34921   9.758  14.120   3.643  0.2634  0.2168 -0.0968
18448W        W34922   2.617   2.877  14.781 -0.0059  0.2473 -0.1151
18449W        W34923  15.674   0.787  13.777 -0.3089 -0.1142 -0.1654
18450W        W34924   1.517  11.967   4.821  0.0446 -0.0989  0.2033
18451W        W34925  17.026  14.518   1.741 -0.3263  0.1170  0.1464
18452W        W34926   7.670  11.008  11.621 -0.1163  0.0191 -0.0571
18453W        W34927   6.670  13.116   0.356 -0.1126 -0.1004 -0.1069
18454W        W34928  14.796  16.572   3.920 -0.1301 -0.0499  0.0565
18455W        W34929   4.023   7.557  13.443  0.1491  0.1451  0.1163
18456W        W34930  16.216   7.170  13.532  0.1341  0.3164 -0.1398
18457W        W34931  11.606  15.553  12.809 -0.1773  0.3388 -0.0771
18458W        W34932   1.081   5.810  12.372 -0.2909 -0.0430 -0.0160
18459W        W34933   0.820  15.221  14.548 -0.2092  0.0818 -0.3051
18460W        W34934   8.510   0.417  13.091  0.0596  0.1081  0.0526
18461W        W34935   5.356   3.094  15.434 -0.2974 -0.0653  0.0481
18462W        W34936   7.050   2.682   1.431 -0.0374  0.1367  0.1658
18463W        W34937   1.768   4.452   0.403 -0.0703 -0.2072 -0.0788
18464W        W34938   6.681   2.956  15.912 -0.1887  0.1789  0.0763
18465W        W34939   8.687  14.236  12.013 -0.1484  0.3207  0.2275
18466W        W34940   0.800  15.987   2.011  0.1993 -0.1409 -0.0094
18467W        W34941  14.140   2.937  13.184 -0.1452  0.4322 -0.1522
18468W        W34942  14.021   0.498  15.049  0.2944  0.1055  0.2522
18469W        W34943   0.839  16.445   1.777 -0.2025 -0.1198  0.2211
18470W        W34944  10.340  15.533   5.675  0.1103 -0.0719 -0.0151
18471W        W34945  15.242  13.231   2.682 -0.1387 -0.1197  0.0882
18472W        W34946   3.836  10.980  16.301 -0.1575  0.3537 -0.2671
18473W        W34947   7.890  16.931   4.563  0.2294 -0.0722 -0.2287
18474W        W34948   7.572   3.091  12.316  0.4202 -0.0186 -0.0313
18475W        W34949   4.105   4.120  13.152 -0.1335  0.0233 -0.0123
18476W        W34950   1.119   0.827   2.217  0.2783  0.1806 -0.0925
18477W        W34951   1.394  11.796  10.646  0.0403 -0.0410 -0.0488
18478W        W34952   8.645   6.093  16.625 -0.0742 -0.3161  0.3107
18479W        W34953   3.093   3.931   5.804  0.2072  0.0955 -0.0646
18480W        W34954   7.103  15.365   5.703 -0.0222  0.0151  0.0852
18481W        W34955   4.087  12.344  10.381  0.1150 -0.2028 -0.1714
18482W        W34956  15.549   6.652   2.744  0.2144  0.0791 -0.2826
18483W        W34957   1.274   4.285   4.590 -0.3573  0.2153  0.0159
18484W        W34958   4.736   7.496   1.472  0.1176 -0.0106 -0.1268
18485W        W34959   8.803   4.009   2.108 -0.2796  0.3523 -0.0126
18486W        W34960  11.004   7.139   0.562  0.0175 -0.2234  0.1499
18487W        W34961  17.428   1.557   3.498  0.2134  0.1334 -0.0415
18488W        W34962  14.550   7.549   5.235 -0.0221 -0.1050 -0.2074
18489W        W34963   9.848  14.411   4.068 -0.2834 -0.0076  0.0241
18490W        W34964   0.870  12.423  14.213 -0.1435 -0.0006 -0.0131
18491W        W34965  10.194  11.599   5.998  0.1662 -0.0863  0.0868
18492W        W34966  10.788   5.150  15.290  0.1450  0.0757 -0.0178
18493W        W34967   9.545   8.300   4.751  0.1223  0.1031  0.2485
18494W        W34968   4.799  17.110   5.965 -0.0681  0.2261  0.0700
18495W        W34969  11.775  12.798   3.042 -0.1172 -0.1205  0.0384
18496W        W34970   8.995   2.713   0.646  0.0938  0.1275 -0.0194
18497W        W34971   2.593  14.140   2.520  0.0296  0.1506  0.1526
18498W        W34972   8.417   7.162  13.496 -0.2110  0.1946 -0.2718
18499W        W34973   9.186   2.053   5.780  0.1532 -0.2429  0.1896
18500W        W34974   2.158  16.548   2.379  0.3192 -0.0773  0.0731
18501W        W34975   6.558  10.628  15.590  0.0443 -0.0249  0.2035
18502W        W34976   2.700  12.905  16.559  0.0961 -0.0008 -0.3329
18503W        W34977   1.424   5.575   5.116 -0.0602  0.0358  0.1795
18504W        W34978   2.622  13.381   3.118  0.1526  0.0793  0.1563
18505W        W34979  16.199   6.609   0.229  0.3001 -0.1071 -0.1588
18506W        W34980   7.996   6.412  15.208  0.0435  0.2168 -0.1106
18507W        W34981   6.874  16.711   6.229 -0.1137 -0.2212 -0.0378
18508W        W34982   2.335   3.510   0.337 -0.1125 -0.0568 -0.0079
18509W        W34983  16.760  14.892  12.347 -0.0638 -0.2484 -0.0141
18510W        W34984   9.414  10.099  12.871 -0.0693  0.0177  0.1155
18511W        W34985  15.097   1.384   6.180 -0.4229  0.2924  0.0143
18512W        W34986   2.454   6.349  13.801  0.0650 -0.1814  0.3625
18513W        W34987   9.941   6.807   4.045  0.0856 -0.2213  0.0762
18514W        W34988   4.762   4.282  10.917  0.1087 -0.0524 -0.1290
18515W        W34989  17.750   5.230  12.047  0.1692 -0.2967  0.1436
18516W        W34990   0.564  13.479   5.354  0.0186 -0.2794 -0.0000
18517W        W34991  17.183  11.921   0.533 -0.0258  0.0216  0.1515
18518W        W34992  11.266   7.503   1.264 -0.3290 -0.0274 -0.0045
18519W        W34993   4.414  11.105  12.988  0.0374 -0.0333  0.2490
18520W        W34994  11.126   7.395   2.098  0.1939  0.1216 -0.0059
18521W        W34995   4.699  11.762   5.155 -0.1046  0.0950  0.1549
18522W        W34996   4.400   1.438   2.171 -0.1284 -0.1047 -0.2647
18523W        W34997   2.352   8.582   2.360 -0.0072  0.1044 -0.2048
18524W        W34998  17.601   2.010  11.696  0.1375 -0.0431  0.1674
18525W        W34999   3.439  14.306  14.602 -0.0574  0.2067 -0.1151
18526W        W35000  10.833   2.130   4.171 -0.2135  0.1859  0.0975
18527W        W35001   2.970   2.195   4.883 -0.2460 -0.1095  0.0991
18528W        W35002  13.485  10.880  12.378 -0.0595  0.1311 -0.0071
18529W        W35003   5.534   8.357  11.433 -0.1008 -0.0710 -0.3357
18530W        W35004  11.587  14.151   0.037  0.1924 -0.1108  0.0122
18531W        W35005  14.185   7.320  13.194 -0.3539 -0.2778  0.2935
18532W        W35006   7.063   1.302   3.152  0.0912 -0.0207  0.0424
18533W        W35007  17.005  10.558   3.370  0.2351  0.2477  0.0190
18534W        W35008   5.119  12.522   4.344  0.0430  0.1811 -0.1628
18535W        W35009  16.753  13.973  11.180  0.1653 -0.0126 -0.0065
18536W        W35010   6.754  12.170  14.266  0.1343  0.3062 -0.0905
18537W        W35011   6.343  16.604  13.413  0.2121  0.0599 -0.1502
18538W        W35012   7.814   6.433   5.079 -0.3134 -0.2903 -0.0989
18539W        W35013  13.276  14.221  16.607 -0.0540 -0.0802  0.0492
18540W        W35014  11.983   5.129  14.519  0.0893  0.0198 -0.0869
18541W        W35015  12.588   2.441  13.946  0.0232  0.2911  0.0105
18542W        W35016  16.025  12.822   5.312  0.0381  0.0199 -0.0913
18543W        W35017   8.090  17.667   1.543 -0.2040 -0.0325  0.1755
18544W        W35018   0.706  11.452   4.866 -0.2052 -0.1592 -0.1458
18545W        W35019  10.260   8.056  12.502  0.1596  0.0185 -0.1601
18546W        W35020  15.458   4.771  13.656  0.1208  0.0509 -0.1219
18547W        W35021  17.311   5.601  13.084 -0.2467 -0.0005 -0.2203
18548W        W35022  15.360   0.530  14.030 -0.2211 -0.0554 -0.1139
18549W        W35023  12.470  15.439  12.857  0.3184 -0.0452 -0.0061
18550W        W35024   9.439  13.168  13.658  0.3283 -0.2292  0.5510
18551W        W35025   4.286  15.043   3.573  0.2467 -0.0115  0.0820
18552W        W35026  12.708   7.076   2.818 -0.1195  0.2660 -0.1222
18553W        W35027  12.462   9.476  14.910  0.5056 -0.0812  0.2786
18554W        W35028  14.420  13.207   3.184 -0.0560 -0.0561 -0.4520
18555W        W35029   7.735   5.977  11.618  0.0776  0.3245  0.0888
18556W        W35030   8.454   1.785   4.227  0.0860 -0.0202  0.1016
18557W        W35031   6.154   0.381   2.367 -0.1067  0.3749  0.4070
18558W        W35032   2.242   5.734  13.713  0.3214  0.0394 -0.0712
18559W        W35033   1.956  12.477   1.105 -0.1695 -0.1732  0.1042
18560W        W35034   0.378   5.634   1.905 -0.1619  0.2088 -0.2867
18561W        W35035   1.209   1.179   1.527  0.0577  0.1626 -0.1031
18562W        W35036  15.413   2.394   3.870  0.0942 -0.0560  0.0137
18563W        W35037  15.028   0.822   5.300 -0.0501 -0.2841 -0.0035
18564W        W35038   0.987   5.779  12.866  0.0742 -0.1727 -0.0552
18565W        W35039   7.025  12.298   2.067  0.2140 -0.2759 -0.2360
18566W        W35040  15.105   0.381   3.948 -0.4179 -0.1030 -0.0678
18567W        W35041  12.536   6.895  14.405 -0.0474 -0.0028  0.1381
18568W        W35042  12.802  16.126   4.437 -0.0953  0.1919 -0.1534
18569W        W35043  11.451   9.834   5.898  0.2083 -0.0451  0.0140
18570W        W35044   8.204  15.728   0.309 -0.1534  0.1320 -0.0373
18571W        W35045  17.824   4.371   2.176 -0.1085 -0.0909 -0.1341
18572W        W35046  11.287  15.070  15.502 -0.0658 -0.1207  0.3638
18573W        W35047   9.562   1.380  14.836  0.3324  0.1414  0.0949
18574W        W35048  11.049   2.637  12.268  0.0756  0.0679 -0.1873
18575W        W35049  16.970   1.970   3.061 -0.5360  0.1234  0.0226
18576W        W35050   3.070  13.567  15.164 -0.0273 -0.0322 -0.2248
18577W        W35051   3.127   8.847   5.003  0.1451 -0.0580 -0.0764
18578W        W35052   6.893  13.768  14.644  0.3589  0.0460  0.1630
18579W        W35053  14.452  11.770  11.807 -0.1605 -0.1392 -0.3202
18580W        W35054   5.946   0.188   3.013 -0.1259 -0.2717 -0.2460
18581W        W35055   0.026   6.301   0.589  0.2443 -0.1556  0.0968
18582W        W35056   8.640  12.345  15.663 -0.0880 -0.0536  0.1715
18583W        W35057  17.132  13.093  12.539  0.2017  0.1244 -0.1777
18584W        W35058  16.911   7.800   4.626 -0.0174 -0.2195  0.1157
18585W        W35059  15.853   7.399  13.237  0.0683 -0.3296  0.0572
18586W        W35060  10.678  13.102   4.716  0.2265  0.1380 -0.2981
18587W        W35061   1.767   2.294  12.791  0.2487 -0.0400  0.1620
18588W        W35062  10.551   1.815  12.030 -0.0110 -0.2119  0.0703
18589W        W35063   7.987   8.141  14.272 -0.2147  0.3381 -0.0693
18590W        W35064  12.521   6.585  15.827  0.2172 -0.0655  0.0384
18591W        W35065  13.373  11.138   3.470  0.0838  0.0167  0.0050
18592W        W35066   9.626  16.300  15.630 -0.2065  0.1179  0.0589
18593W        W35067   4.559   9.320  11.134 -0.1889 -0.1631  0.1005
18594W        W35068   0.966  14.943  11.433 -0.3167  0.2030  0.2609
18595W        W35069   0.365   3.078   2.849 -0.0772 -0.3021  0.1265
18596W        W35070   3.946   9.175  12.714  0.1426  0.0674 -0.4437
18597W        W35071   8.155   9.293   1.749 -0.2296  0.1641 -0.6864
18598W        W35072  16.495   9.831   5.180 -0.1213 -0.0106  0.3815
18599W        W35073  10.759  14.050  16.919  0.3794  0.1485 -0.0098
18600W        W35074   8.104   7.892   0.109 -0.0027 -0.4065 -0.0417
18601W        W35075  13.800   1.048   0.108  0.0244 -0.1571  0.2502
18602W        W35076   7.320  10.966  13.327  0.3073  0.0676  0.1666
18603W        W35077   3.949   1.158   1.927  0.0449 -0.1032  0.0877
18604W        W35078   2.085   4.308  12.508 -0.4191  0.3854 -0.1852
18605W        W35079   1.997   9.131   4.119 -0.1091 -0.0324 -0.2898
18606W        W35080  11.199   8.967   2.660  0.1280  0.3855  0.0106
18607W        W35081  15.348   6.082  16.161 -0.0814  0.3062  0.2130
18608W        W35082   8.175   6.534  12.829 -0.1432 -0.1185  0.0342
18609W        W35083   1.513  15.736  12.804 -0.3445 -0.2215  0.0369
18610W        W35084  13.547   3.264   4.607  0.4427  0.1134 -0.0205
18611W        W35085   1.379   6.247   1.673 -0.0922 -0.0587 -0.0643
18612W        W35086  11.570   2.029   2.173 -0.3342 -0.1350 -0.0466
18613W        W35087  12.230   6.915   4.429 -0.1625 -0.2705  0.2966
18614W        W35088   1.059  15.841  12.151  0.1287 -0.3905  0.1392
18615W        W35089  11.562   1.344  14.064  0.1980 -0.0696  0.1172
18616W        W35090  16.864  12.563  13.917  0.3475  0.0129 -0.0898
18617W        W35091   7.085   1.751  13.568  0.2594  0.2074 -0.2966
18618W        W35092   5.964   4.091  16.339  0.0929  0.1144 -0.0150
18619W        W35093  15.135   8.310  14.030 -0.1158 -0.2610  0.1176
18620W        W35094   7.623   0.477   5.602 -0.2781  0.1972 -0.0158
18621W        W35095   6.301  11.242  12.569 -0.1588 -0.0988  0.2820
18622W        W35096  13.617  13.686  16.113 -0.2253  0.1075 -0.1764
18623W        W35097  11.546  13.754  13.694  0.1265  0.1623  0.0847
18624W        W35098   8.677   4.926  16.373 -0.1098 -0.0490  0.2193
18625W        W35099   5.446  11.285  13.422 -0.0704 -0.3628  0.2114
18626W        W35100  15.700  13.109  12.777  0.0513  0.1295 -0.1132
18627W        W35101   7.688  12.136  16.040 -0.2567 -0.0651 -0.0060
18628W        W35102   5.443  14.599  14.133  0.0596 -0.0688 -0.0423
18629W        W35103   1.129   2.838   5.621  0.2599 -0.0822  0.1255
18630W        W35104   4.573   6.061  15.257 -0.0449 -0.0650 -0.0327
18631W        W35105   0.514   6.447  16.005 -0.1970 -0.0807 -0.1198
18632W        W35106   8.699  15.019  15.347 -0.1311  0.3154  0.0851
18633W        W35107   1.920   5.726  15.323  0.0937 -0.0239 -0.1808
18634W        W35108  17.739   2.725  13.343  0.0079  0.0168  0.0082
18635W        W35109  12.566  12.737  16.893 -0.0477  0.2662  0.0574
18636W        W35110   1.884   0.543  12.304  0.0373  0.0630 -0.0155
18637W        W35111  14.719   1.738  14.460  0.0201 -0.0733 -0.0021
18638W        W35112   0.381   7.500   0.228 -0.2233  0.1969 -0.3026
18639W        W35113   9.612   7.650   0.874  0.0846  0.1200 -0.1459
18640W        W35114  12.515  13.659  13.518 -0.0191  0.0475  0.2478
18641W        W35115  16.840   2.039   0.042  0.2377  0.1524 -0.0417
18642W        W35116  13.592   3.152   2.736  0.3450 -0.2333 -0.0041
18643W        W35117  12.154  12.292  16.223  0.1202  0.2996  0.0426
18644W        W35118   6.232  13.071  12.390 -0.0480  0.0266  0.1275
18645W        W35119   0.116  16.318   5.276 -0.0512 -0.0104  0.0256
18646W        W35120   5.183   1.945  13.673  0.1141 -0.1236  0.0997
18647W        W35121  17.429   4.906  13.859  0.0188 -0.3515 -0.0871
18648W        W35122   8.621  15.922  12.413  0.3010  0.2210  0.0083
18649W        W35123   1.332   2.585  12.782  0.3219 -0.0230  0.0360
18650W        W35124  12.126   2.736   2.197 -0.2191  0.0072 -0.1854
18651W        W35125  11.335  11.091  14.533  0.2887 -0.2714 -0.2442
18652W        W35126  15.805   9.185   4.449  0.0288 -0.1243 -0.2839
18653W        W35127   4.898   0.617   5.899  0.0527 -0.1807 -0.0798
18654W        W35128  13.530  14.263   1.557 -0.0434  0.0051 -0.0501
18655W        W35129  11.129   2.051   5.349  0.2277 -0.2275  0.3735
18656W        W35130  11.257   3.491  14.634  0.0662  0.0730  0.1162
18657W        W35131   1.385   1.825  13.818  0.2109  0.0949  0.1165
18658W        W35132   7.529  12.742  13.619 -0.0868 -0.1187  0.0650
18659W        W35133  12.297  13.463   2.159 -0.1341  0.1706  0.0006
18660W        W35134  15.486   1.294   0.153 -0.2130  0.0377  0.2140
18661W        W35135  17.551   4.583  12.712 -0.1195  0.1750 -0.0782
18662W        W35136  17.520   6.200   4.987 -0.1068 -0.1230 -0.0971
18663W        W35137  17.436  14.507   3.932  0.3685  0.1915  0.1197
18664W        W35138   1.370  16.987   4.703 -0.2090 -0.0262 -0.1009
18665W        W35139   3.329  11.931  15.697  0.2216  0.1910  0.0428
18666W        W35140  11.898  16.969  11.648 -0.0579  0.2125 -0.1706
18667W        W35141  10.653   5.019   5.160 -0.1468  0.1899  0.0398
18668W        W35142   6.409  15.294   4.971  0.0044 -0.1589  0.3307
18669W        W35143   1.692  14.986   4.919 -0.3095 -0.0334  0.0722
18670W        W35144   9.201   0.898  12.837 -0.0033 -0.2355  0.2883
18671W        W35145   9.739   8.910   1.495  0.1214  0.3051 -0.0868
18672W        W35146  13.187  13.759  16.324  0.2309 -0.2563 -0.1159
18673W        W35147  13.616  14.443  11.618 -0.0366  0.1762  0.2045
18674W        W35148  10.109  15.900   5.399 -0.0476  0.1577 -0.0906
18675W        W35149  10.056  16.190   4.950  0.0493  0.0522 -0.0764
18676W        W35150   7.375   3.432  14.170 -0.2157  0.1677 -0.1550
18677W        W35151   3.965   4.108   2.810  0.0451  0.2606 -0.1572
18678W        W35152   8.665  16.241   4.404 -0.2560  0.0088  0.2761
18679W        W35153  11.720   5.025   3.355 -0.2311  0.0871  0.0583
18680W        W35154  12.333  14.939   5.170 -0.1776  0.3050 -0.2645
18681W        W35155   9.277   6.154   3.913 -0.0551  0.1017 -0.1165
18682W        W35156   7.296  12.411  13.901 -0.5640 -0.0204 -0.0870
18683W        W35157   9.981  13.301  16.695  0.2084  0.0436  0.1335
18684W        W35158  14.338  15.120   2.465  0.2055  0.2731  0.1335
18685W        W35159   5.893   3.605   4.371 -0.0700  0.1354 -0.5765
18686W        W35160  10.619   4.961   5.657 -0.3543  0.1912  0.2365
18687W        W35161   7.476  10.072   0.350  0.0280 -0.0018  0.0119
18688W        W35162  10.966  16.355  14.706  0.0711  0.0222  0.0100
18689W        W35163   8.594   4.303  16.926 -0.0000 -0.1832  0.1426
18690W        W35164  10.300   5.980   5.612 -0.0346  0.0377 -0.0042
18691W        W35165   7.869  12.753   1.231 -0.0776 -0.0227  0.0615
18692W        W35166  14.293  14.970   4.050 -0.0796  0.1000 -0.0606
18693W        W35167   3.393  14.676   1.256  0.2368  0.3068 -0.2760
18694W        W35168  14.961   5.012   4.202  0.1697  0.3269 -0.0516
18695W        W35169   1.231   2.782   2.919 -0.0021  0.0792  0.1194
18696W        W35170  15.007   8.045  16.379  0.2856 -0.0282  0.0646
18697W        W35171   1.940  17.331   0.594  0.2439  0.3438 -0.1071
18698W        W35172  15.495   4.108   6.093 -0.0056 -0.2833 -0.1303
18699W        W35173  13.114  10.948   3.861 -0.0855 -0.1039  0.1143
18700W        W35174  12.204  17.173  16.708  0.0540  0.0368 -0.2340
18701W        W35175   0.507   6.089   2.042  0.0401  0.1073  0.1941
18702W        W35176   5.865   6.299   1.865  0.2492 -0.1102  0.2354
18703W        W35177   4.886   0.401  15.831 -0.0704 -0.0103 -0.0790
18704W        W35178  16.964   2.131  12.513 -0.0177 -0.0619  0.0491
18705W        W35179   3.839  17.479   4.962 -0.0816  0.1759  0.2647
18706W        W35180  11.178  17.204   2.803 -0.2820  0.0704 -0.0861
18707W        W35181  17.142   8.437  16.887 -0.2919  0.2366  0.0993
18708W        W35182  10.828   1.765   4.965  0.1582 -0.2712  0.4250
18709W        W35183   0.609  14.369  15.122  0.0196  0.1496  0.1006
18710W        W35184   6.468  17.481  13.716 -0.0054  0.3887  0.3181
18711W        W35185   9.960   8.883  14.113 -0.0033 -0.0774  0.2194
18712W        W35186   7.345  11.445   0.236  0.0084  0.1032 -0.1088
18713W        W35187  17.279  17.678   4.882 -0.0929 -0.1910 -0.0843
18714W        W35188   0.688   7.787  14.949  0.0276  0.4900  0.0546
18715W        W35189   8.279  10.394   1.430 -0.3215  0.0502 -0.1023
18716W        W35190   7.629  13.900  16.493 -0.0379 -0.0105 -0.0187
18717W        W35191  12.898   7.501  15.633  0.2965 -0.1299 -0.0286
18718W        W35192  16.431   4.769  14.603 -0.2407 -0.1408  0.1773
18719W        W35193   0.204  10.922   3.313  0.3713  0.1027  0.0598
18720W        W35194  17.251   7.824   0.773  0.2782 -0.1630 -0.0127
18721W        W35195  14.951  10.247  14.484  0.0842 -0.1061 -0.0066
18722W        W35196  14.703   4.566   4.330  0.2542  0.0979 -0.1097
18723W        W35197  16.876  17.167  12.392  0.0389 -0.0376  0.0230
18724W        W35198   7.829   6.221  16.424  0.0669 -0.1137 -0.2194
18725W        W35199  13.478   5.398  14.139 -0.1329  0.0646  0.0003
18726W        W35200   0.486   6.717  16.424  0.0597 -0.0524 -0.0107
18727W        W35201   1.125   7.194   5.144  0.1214  0.1995  0.1606
18728W        W35202  13.983   6.035   1.435 -0.0689  0.2413 -0.2257
18729W        W35203   9.167   7.545   2.987 -0.2246 -0.0065  0.0619
18730W        W35204  16.009   9.609  16.611  0.1036 -0.1439  0.0230
18731W        W35205   2.729   7.255  12.215  0.0055 -0.1230  0.0858
18732W        W35206   3.658   2.896  13.933  0.0373  0.0994  0.0130
18733W        W35207  10.279   7.958   2.085 -0.1138 -0.1657  0.1556
18734W        W35208  15.230   3.788  12.634  0.0213 -0.2040 -0.0089
18735W        W35209  13.604   5.686  16.801 -0.2262 -0.0276  0.1793
18736W        W35210  13.877   3.768   4.442 -0.0345 -0.0951  0.0261
18737W        W35211  11.510  17.783  12.990  0.3064 -0.0654  0.1372
18738W        W35212  16.959   3.456   0.547  0.3302 -0.4166 -0.0095
18739W        W35213  12.333   4.282   2.106 -0.2277  0.0561  0.0407
18740W        W35214  12.389  12.365   5.124  0.0716 -0.1855 -0.0052
18741W        W35215  13.962   8.164   0.923  0.3097  0.1909  0.0579
18742W        W35216   5.389   6.680  16.449 -0.1381  0.0046  0.0438
18743W        W35217  12.825  10.599  13.489 -0.1492  0.3438 -0.0346
18744W        W35218   2.678   4.108  15.501  0.2745  0.1476  0.2092
18745W        W35219  14.063  11.566  16.821  0.0080 -0.2622 -0.0727
18746W        W35220   5.761   2.049   5.024 -0.1049 -0.0220  0.0949
18747W        W35221  17.627   6.689   2.437  0.1961  0.0481  0.1177
18748W        W35222  17.732   4.959   2.882 -0.1444 -0.0255 -0.1559
18749W        W35223  10.967  16.946   0.993 -0.0972  0.1075  0.3850
18750W        W35224  14.559   9.857   0.412 -0.0872 -0.0660  0.2335
18751W        W35225   3.015   6.868  13.730 -0.1794 -0.2671  0.1704
18752W        W35226  17.463   6.981  14.726 -0.1066  0.1961  0.1374
18753W        W35227   9.794  15.503  13.890  0.0425 -0.2472 -0.0001
18754W        W35228   9.184   1.209  10.775  0.0593 -0.5230 -0.2454
18755W        W35229   8.685  16.392  12.100 -0.0128  0.3474  0.0598
18756W        W35230  17.315   4.471   1.802  0.0125  0.0299 -0.0428
18757W        W35231  15.232  14.832   1.181  0.0142 -0.0487  0.2167
18758W        W35232   8.297   8.082   2.138  0.0812  0.0897  0.1377
18759W        W35233  17.733   3.014  16.680 -0.1646 -0.0834 -0.0213
18760W        W35234   4.190   3.248  16.686 -0.0400 -0.1261  0.1190
18761W        W35235   2.714  12.426   0.891  0.0723  0.3331 -0.1836
18762W        W35236  14.523   4.693   0.770 -0.2352  0.0171  0.2119
18763W        W35237   3.967   1.989   2.015 -0.0499  0.0766 -0.3732
18764W        W35238   9.438  13.521  15.933  0.0714 -0.0868  0.2846
18765W        W35239   1.887  13.711  11.260 -0.0300 -0.1730  0.2076
18766W        W35240   6.741   4.870   2.607 -0.0676  0.1193 -0.0101
18767W        W35241   4.103  16.653   5.575  0.0926  0.0072  0.1619
18768W        W35242  17.775   4.313  12.215  0.1891  0.1096  0.0002
18769W        W35243   3.534   2.154   4.931 -0.3087  0.0741  0.1105
18770W        W35244  10.329   1.271  14.629 -0.0732 -0.2315 -0.1816
18771W        W35245   4.490   7.264   3.297 -0.0812  0.1061 -0.2110
18772W        W35246   4.962   1.635  12.497  0.1166  0.0437  0.1756
18773W        W35247  10.211   2.220  12.185 -0.0567 -0.1130 -0.0690
18774W        W35248   3.657   8.550   1.035  0.2591 -0.1292 -0.1562
18775W        W35249  14.131   7.329   0.282 -0.2123  0.2332 -0.1158
18776W        W35250  13.355  12.718  14.634 -0.1261 -0.2162 -0.2610
18777W        W35251   2.385  14.377   4.537 -0.2382 -0.0645 -0.0099
18778W        W35252   9.471   1.917   1.868  0.1230 -0.1995  0.2115
18779W        W35253  14.049  11.636  15.122 -0.1247 -0.0773  0.2604
18780W        W35254   0.651  16.194  15.096  0.1277  0.0661 -0.1155
18781W        W35255   0.175  14.900  11.763 -0.1615 -0.3287 -0.0501
18782W        W35256  16.614   1.560  16.039 -0.0784  0.1412 -0.0603
18783W        W35257   7.122   9.878  15.710 -0.1779 -0.2718 -0.3946
18784W        W35258  16.452  15.958  14.989 -0.1995  0.0952 -0.0039
18785W        W35259   2.491   5.332  12.614  0.2245 -0.2806 -0.0292
18786W        W35260  13.168   3.995  13.534 -0.0782  0.1886 -0.2182
18787W        W35261   8.010  10.524   2.966 -0.1216 -0.1839  0.1581
18788W        W35262   9.675  13.911   2.518  0.0765 -0.3544  0.2179
18789W        W35263  14.820  16.224  15.445 -0.1057  0.1703  0.1683
18790W        W35264  17.530   9.947  11.277  0.1138  0.0864 -0.0843
18791W        W35265  17.300   1.800  14.760 -0.0517 -0.0944  0.5278
18792W        W35266   4.567  13.801   2.318  0.1565 -0.1414 -0.3018
18793W        W35267  10.080  14.476  12.493  0.1749 -0.0326 -0.2427
18794W        W35268  16.699   6.655   1.182 -0.1369  0.0802 -0.0642
18795W        W35269   3.702  10.280   2.247 -0.1397  0.0803  0.4243
18796W        W35270  14.992   5.152  16.630  0.0353  0.4104  0.0372
18797W        W35271  14.950  15.473  16.082  0.3520  0.1462  0.0107
18798W        W35272  10.702  13.667   1.227 -0.0874  0.1177  0.3870
18799W        W35273  15.842   2.253  14.980  0.3881 -0.2691  0.0517
18800W        W35274  10.061   6.483  15.232 -0.0977  0.0447 -0.1736
18801W        W35275   1.670   5.196  13.365  0.1860  0.0102  0.2044
18802W        W35276   1.197   0.225   3.634  0.0873  0.0727 -0.0266
18803W        W35277   1.024   1.906  14.203 -0.0347 -0.0114 -0.0224
18804W        W35278   2.239   3.567  12.193 -0.0942  0.0298  0.0516
18805W        W35279  14.974   0.862   1.551 -0.2490  0.3529 -0.4084
18806W        W35280  11.229  15.924   3.173  0.4434 -0.1588 -0.0987
18807W        W35281  17.192   0.256  14.419 -0.4308  0.3488 -0.0074
18808W        W35282   8.186   4.620   0.025  0.1392  0.0881 -0.2728
18809W        W35283   5.945   9.687   5.486 -0.1707  0.4031  0.1922
18810W        W35284   8.655  17.760  14.087 -0.2790 -0.1877  0.0216
18811W        W35285  10.940  14.146   1.130  0.1305 -0.1375 -0.3453
18812W        W35286   1.874   5.296  15.078 -0.2198  0.2115  0.3268
18813W        W35287   2.480   9.818   5.738 -0.0693 -0.0598  0.0823
18814W        W35288  15.434   9.689   3.594  0.1920  0.0570 -0.1544
18815W        W35289   0.477   2.933   0.929  0.3358 -0.1612 -0.0766
18816W        W35290   4.106   9.602  15.006  0.1143 -0.1207  0.1546
18817W        W35291   3.435  17.220   4.970  0.2264  0.0861 -0.0884
18818W        W35292   0.400  15.898  14.383  0.1643  0.1603  0.0669
18819W        W35293   7.238   3.921  14.975  0.3094  0.1286 -0.2585
18820W        W35294  10.799  17.565  15.430 -0.2218  0.2173 -0.0176
18821W        W35295  13.984  11.801  11.640 -0.0849 -0.1951  0.0267
18822W        W35296   7.241   0.402   0.383  0.1084  0.1344 -0.1114
18823W        W35297  14.594  15.768  15.279 -0.1403  0.0414  0.2544
18824W        W35298   9.901   9.874  12.603  0.0847  0.2785 -0.2927
18825W        W35299  14.486   7.676  11.964  0.0889 -0.0859  0.1306
18826W        W35300   5.367   3.296  14.542 -0.1613  0.2806 -0.1345
18827W        W35301   5.978   5.630   3.603 -0.0828 -0.1441 -0.1923
18828W        W35302  14.356   9.030   3.398 -0.0274 -0.0486  0.0633
18829W        W35303   6.316   7.566   2.462  0.0807 -0.1087 -0.2723
18830W        W35304  16.139   1.836   1.229 -0.3176  0.4583  0.1729
18831W        W35305  11.944   1.086   1.380  0.1774  0.1068  0.0868
18832W        W35306  13.092   2.955   4.024  0.1723  0.1284 -0.2749
18833W        W35307   5.915  13.412  15.509  0.2625 -0.1559  0.0538
18834W        W35308   3.456  13.985  12.564  0.3558  0.1677  0.3068
18835W        W35309   9.995   4.441  11.972 -0.0282  0.1091  0.1541
18836W        W35310  10.147   5.054  12.374  0.0859  0.1419  0.3881
18837W        W35311   8.708  14.987   3.744  0.1679  0.1286 -0.3474
18838W        W35312   2.523  11.173   1.333  0.1896  0.1441 -0.1995
18839W        W35313  14.126   6.300  12.465  0.3311 -0.0626 -0.0284
18840W        W35314  17.447   5.087  13.056 -0.0162 -0.2064 -0.4290
18841W        W35315   9.124  12.762  13.682 -0.1711 -0.1527  0.1684
18842W        W35316  14.686  16.888  16.207  0.1628  0.1485  0.3492
18843W        W35317   3.475   5.388  13.504 -0.2030 -0.0070 -0.0787
18844W        W35318   2.417  12.662   1.170  0.1787  0.0310 -0.1743
18845W        W35319  13.339  15.037   1.459 -0.0753 -0.0630  0.1606
18846W        W35320   6.431  16.761  13.888  0.3110  0.1572  0.1155
18847W        W35321   3.765  10.023   2.800 -0.0493 -0.1324  0.2923
18848W        W35322   1.362   3.826  12.793 -0.0322 -0.1068  0.1388
18849W        W35323   3.472   9.874  12.387  0.1865  0.0256 -0.1179
18850W        W35324  14.642   6.313  13.204  0.2321 -0.2403  0.2207
18851W        W35325   9.770  15.313   1.724  0.0373 -0.0721 -0.1910
18852W        W35326  11.884  17.187  13.686 -0.1551  0.1995 -0.0616
18853W        W35327  16.835   9.863  12.627 -0.0768  0.1967  0.1716
18854W        W35328  10.050  11.509   2.528 -0.1894 -0.0485 -0.0889
18855W        W35329  16.520   3.809   5.676  0.2314 -0.1247  0.2040
18856W        W35330   7.296  15.533  13.071  0.2151 -0.0886  0.1434
18857W        W35331   9.439   4.018   1.950 -0.2517  0.2639 -0.0291
18858W        W35332   3.249   6.988  15.854  0.3407  0.0414  0.0219
18859W        W35333   6.327  12.146   1.485  0.0046 -0.0090  0.2265
18860W        W35334   0.949  10.859   1.650  0.1591  0.1146  0.2177
18861W        W35335   4.380  11.873   1.565 -0.3110  0.4540  0.1850
18862W        W35336   0.041  17.059   0.875 -0.0782 -0.1334  0.2160
18863W        W35337   5.779   3.620  13.226  0.4711 -0.0854 -0.1069
18864W        W35338  17.065   7.120  12.266 -0.0324 -0.3036  0.0533
18865W        W35339  16.846  15.400   0.527  0.2016  0.0142 -0.1035
18866W        W35340   1.716  12.795   4.995 -0.0693  0.2390 -0.3924
18867W        W35341   5.353  12.037   2.815 -0.1890 -0.0058  0.0451
18868W        W35342  10.054   9.761  11.509 -0.0245  0.0437  0.1477
18869W        W35343  14.762  11.298   0.320 -0.5186 -0.2474  0.1549
18870W        W35344  11.386  11.641   5.457  0.1820  0.2600  0.3869
18871W        W35345  15.596  17.733   1.173 -0.2262  0.2334  0.0817
18872W        W35346  16.176  10.016   4.826  0.1299  0.2060  0.1062
18873W        W35347  10.905   2.470  13.202  0.0036  0.1375 -0.1132
18874W        W35348   6.907   0.933   2.772  0.1512 -0.0924 -0.0571
18875W        W35349  10.343   7.366   5.387 -0.0869  0.2874 -0.0331
18876W        W35350   7.207   4.451   0.968  0.2063 -0.2474 -0.2607
18877W        W35351  12.564  12.225  15.315  0.3604 -0.0678 -0.3857
18878W        W35352   4.285  11.155   0.332  0.1253 -0.1506  0.0156
18879W        W35353  11.478   7.023   4.904 -0.3927  0.1294  0.0546
18880W        W35354   5.780  10.980  14.795 -0.2807 -0.0681  0.2895
18881W        W35355   6.756  14.576   4.903 -0.1477 -0.4675 -0.0744
18882W        W35356   2.375   1.113   4.331 -0.0480  0.1592 -0.2279
18883W        W35357   7.763  13.897  15.267  0.0722 -0.0838  0.1262
18884W        W35358  17.061   0.520   1.864 -0.0775 -0.0487  0.2194
18885W        W35359   3.015   2.793  11.952 -0.3011 -0.0531  0.2482
18886W        W35360   8.478  12.247   0.529 -0.1578  0.1739  0.3442
18887W        W35361   8.351   2.604   5.082  0.1098  0.0602  0.0954
18888W        W35362  16.832   2.596  15.701  0.0318  0.0646 -0.0087
18889W        W35363  16.158   4.296   0.101 -0.0063 -0.2333  0.3207
18890W        W35364   9.044  17.068   5.307  0.3399  0.0550  0.1630
18891W        W35365  11.557   3.901   0.242 -0.3430 -0.0455 -0.1438
18892W        W35366  17.288  13.089  15.114  0.1590 -0.1771  0.1925
18893W        W35367   9.287   8.980   2.171 -0.0581 -0.4198  0.3719
18894W        W35368   9.988   7.992   1.055 -0.1850  0.4368  0.4018
18895W        W35369   5.893   4.631  15.481  0.1450  0.0865  0.2816
18896W        W35370  11.277   5.462  10.999  0.0204 -0.0011  0.0935
18897W        W35371  13.104  11.526   2.635  0.1199 -0.0700 -0.0907
18898W        W35372   9.658   9.120  15.429  0.0621 -0.0116 -0.0543
18899W        W35373   4.637   9.849   0.848 -0.4464 -0.0798  0.0027
18900W        W35374  13.209   1.922  12.072 -0.1516  0.1938  0.0024
18901W        W35375  12.125  17.267  12.728 -0.2831  0.0136 -0.3432
18902W        W35376   1.800  15.600   0.477  0.1543  0.2578 -0.0619
18903W        W35377   6.715  11.416   2.880  0.0045 -0.0589  0.1151
18904W        W35378   7.798  16.141  15.852  0.2548  0.2192 -0.0722
18905W        W35379  15.577  15.378   3.876  0.1068  0.2212  0.2123
18906W        W35380   8.278   3.040   5.390 -0.2248  0.2250  0.0864
18907W        W35381  10.960   0.689  13.117 -0.1246  0.2328  0.0622
18908W        W35382   1.481  15.015  12.477 -0.0003 -0.1972  0.1048
18909W        W35383  15.980  11.584  11.845 -0.3612  0.0352  0.0535
18910W        W35384   0.609   3.082   3.358 -0.1602  0.0478  0.1549
18911W        W35385   1.265   9.040  12.400  0.2220 -0.2590 -0.1008
18912W        W35386   4.422   1.307  14.666  0.1449  0.2522  0.2714
18913W        W35387  12.545  15.369  13.901  0.0029 -0.1398 -0.0307
18914W        W35388   5.093  11.595  16.852  0.0573  0.1641 -0.3906
18915W        W35389  10.402   0.107  16.272  0.0354  0.0934 -0.0601
18916W        W35390  11.380   6.297   1.215 -0.0279 -0.0826  0.1947
18917W        W35391   7.111   3.758   2.573 -0.1922 -0.0159 -0.2679
18918W        W35392  12.027  14.984   4.770 -0.1154 -0.2187  0.1280
18919W        W35393   6.188  11.543  12.188  0.1719 -0.0059 -0.2878
18920W        W35394   4.214  13.792   1.872  0.0270 -0.0664 -0.1604
18921W        W35395  15.453   9.728   5.196 -0.2379 -0.1142  0.1947
18922W        W35396   5.227   6.396   1.287  0.0909 -0.3383  0.0399
18923W        W35397  12.422   1.161  15.931  0.1897  0.1151  0.0941
18924W        W35398   4.334  17.711  13.573 -0.1303  0.1479  0.1125
18925W        W35399   6.570   3.780  11.877  0.3434  0.0393  0.0625
18926W        W35400   8.513  13.075  16.097  0.0463 -0.3018 -0.0606
18927W        W35401   0.509  16.488   0.406 -0.0699 -0.0829  0.0307
18928W        W35402   3.680  10.843  13.913  0.0817 -0.0477 -0.0052
18929W        W35403  13.051   9.208   3.960  0.1914  0.0783 -0.1156
18930W        W35404   5.072   1.156   4.645  0.0664 -0.0219 -0.0873
18931W        W35405  15.791   4.670   3.870 -0.0315 -0.0985  0.0980
18932W        W35406  12.852  13.268   3.503 -0.0377 -0.2423  0.1573
18933W        W35407  12.891   5.713   2.940  0.2732  0.1271 -0.1310
18934W        W35408  12.225   8.217   0.925 -0.0446 -0.1734 -0.1200
18935W        W35409   6.552   0.047   1.142 -0.1144  0.0895 -0.1263
18936W        W35410  13.251   0.109   5.045 -0.0320  0.2257 -0.1017
18937W        W35411   0.774  12.872  16.062 -0.0091  0.2040 -0.0412
18938W        W35412  10.881   4.693  14.223  0.1514  0.2405 -0.2988
18939W        W35413   7.444   8.184   1.846  0.1016 -0.0164 -0.0516
18940W        W35414  15.666  16.826  12.612  0.0717  0.1058 -0.1738
18941W        W35415  13.256   7.121   0.546 -0.1819 -0.0875 -0.1188
18942W        W35416   1.006  14.436   0.466 -0.4827 -0.1832  0.1067
18943W        W35417   2.110   1.735  16.485 -0.0422  0.7183  0.1652
18944W        W35418   8.417   1.238  11.423 -0.0296 -0.0607 -0.0750
18945W        W35419   4.160   1.799   1.093 -0.1602  0.1256 -0.1462
18946W        W35420  16.288  12.064   3.951  0.1043 -0.0637  0.2434
18947W        W35421   4.845   2.023  15.165 -0.1345  0.2733  0.0640
18948W        W35422   1.238  12.753   0.627 -0.0046 -0.2462  0.0378
18949W        W35423   8.670   1.514  13.301 -0.1690  0.2747 -0.0311
18950W        W35424  15.317   2.663   4.934 -0.1698 -0.0991  0.2956
18951W        W35425  16.715   8.458   2.814 -0.2312 -0.0681  0.0058
18952W        W35426   2.117  12.903  14.065 -0.1136  0.1244  0.3204
18953W        W35427   4.062   7.019  14.359 -0.0876 -0.2477  0.1001
18954W        W35428  13.909  16.556   0.352  0.1356 -0.0441  0.2092
18955W        W35429  11.142  11.886  11.903  0.1890  0.3904 -0.3258
18956W        W35430   3.605   1.602   1.282  0.2798  0.0448 -0.0020
18957W        W35431  16.686  11.285   4.483  0.3702  0.0876  0.2297
18958W        W35432  10.012   5.369  14.418 -0.3021  0.0207  0.0484
18959W        W35433   7.466   3.968  16.311 -0.1094 -0.2092  0.0392
18960W        W35434   0.330  14.883   4.393  0.3543  0.1088  0.2102
18961W        W35435   3.075   1.198   0.621  0.1690  0.3722  0.1923
18962W        W35436   1.311   8.421  14.218 -0.2828 -0.0058 -0.1267
18963W        W35437   4.625  14.362  14.476  0.1021 -0.1222 -0.2125
18964W        W35438  14.206  12.929   3.564 -0.2137 -0.0869  0.5023
18965W        W35439  17.184  16.667   6.255 -0.3683 -0.0258  0.0533
18966W        W35440   8.358  14.928  14.417  0.0288  0.0356  0.0318
18967W        W35441  16.037  17.795  14.283 -0.0016 -0.2544 -0.0386
18968W        W35442  17.686   0.014   4.696 -0.2527 -0.0134  0.0796
18969W        W35443  17.667   9.051   4.782  0.2800 -0.1831  0.1362
18970W        W35444  12.097   8.546   3.711  0.0917 -0.0303 -0.1118
18971W        W35445   7.572  15.330   5.644  0.0434  0.1343  0.1356
18972W        W35446   4.965   0.013   3.262 -0.0549 -0.1282 -0.0621
18973W        W35447   6.530   5.068   4.615  0.1736  0.1000  0.1453
18974W        W35448  12.075  10.636  11.745  0.0836  0.0996  0.3870
18975W        W35449  10.491   8.905   0.510 -0.1174  0.1025 -0.1297
18976W        W35450  12.332  16.575  14.960  0.0072  0.1047 -0.0486
18977W        W35451   2.224  15.410  11.920  0.0542 -0.0185  0.0752
18978W        W35452  14.128   5.180  11.870 -0.0549 -0.0098 -0.2284
18979W        W35453  16.542   4.307   2.844 -0.1524 -0.0246 -0.1236
18980W        W35454   4.546  11.504  15.141 -0.0656 -0.0397  0.1009
18981W        W35455   9.483   8.141   2.596  0.0479  0.1855  0.1362
18982W        W35456   7.712  17.562   0.938  0.0754  0.0884  0.2209
18983W        W35457   5.228  17.398  13.166 -0.1524  0.0812 -0.2711
18984W        W35458   1.509  15.725  11.938  0.0844  0.1414  0.0643
18985W        W35459   9.671   1.266  15.848  0.3168  0.1437 -0.1002
18986W        W35460   1.757  10.852  16.888  0.0570 -0.1897  0.3044
18987W        W35461   5.758   4.373  16.738  0.3567 -0.0742 -0.1157
18988W        W35462   0.320  17.023  12.394  0.0237 -0.0142 -0.1774
18989W        W35463   3.162   9.136  14.184 -0.1968  0.0512 -0.1601
18990W        W35464   5.859   4.750  11.532 -0.1777 -0.0855 -0.1139
18991W        W35465   8.363   4.386  14.385 -0.2779  0.0053 -0.1377
18992W        W35466   9.773   9.283   0.771  0.2345 -0.1225 -0.0866
18993W        W35467   2.863  14.252   2.943  0.1726  0.2603 -0.0028
18994W        W35468   2.774   2.880  13.397 -0.0465 -0.2736 -0.0647
18995W        W35469  13.781   1.925   2.077 -0.0436 -0.0539  0.3958
18996W        W35470  11.577  10.346  12.318 -0.1870  0.0936 -0.1029
18997W        W35471   3.968   8.173   0.723 -0.2027 -0.0992 -0.2724
18998W        W35472   8.524   8.409   4.449  0.2077 -0.0715  0.1355
18999W        W35473   5.664   4.953   4.141  0.0739 -0.2092 -0.0334
19000W        W35474  12.191   8.538   1.572  0.5523 -0.1779 -0.1445
19001W        W35475   5.696   9.845   4.639  0.1540 -0.3412  0.2726
19002W        W35476  15.155   1.964   4.318  0.1129  0.1515 -0.1728
19003W        W35477  12.561  17.314  13.136  0.1444 -0.2427  0.2674
19004W        W35478   6.085   8.192  14.361 -0.0062  0.2074 -0.1521
19005W        W35479  14.210  14.369  13.181 -0.2638  0.0596 -0.0828
19006W        W35480  14.556   2.072  16.716 -0.2149  0.3131  0.1261
19007W        W35481  12.864   4.456  14.382 -0.2201 -0.1212 -0.3047
19008W        W35482   9.081   0.541   4.824  0.2966 -0.2680  0.2210
19009W        W35483   1.110  14.099  12.563 -0.1404 -0.3810  0.1746
19010W        W35484   2.868   9.668  13.523  0.2452  0.0219  0.0906
19011W        W35485  16.497  13.782   0.613 -0.3029  0.3111 -0.4055
19012W        W35486   9.508   7.082  14.046  0.2695 -0.1869  0.0964
19013W        W35487   9.197  10.174  13.957 -0.0081  0.3487  0.0264
19014W        W35488   9.022   2.204   1.526  0.1681 -0.3828  0.2938
19015W        W35489  11.267   7.387   4.135 -0.2549  0.2770 -0.1344
19016W        W35490   9.018  10.757  12.712 -0.1803 -0.0000  0.0761
19017W        W35491  10.211  12.662  12.493 -0.0031 -0.3107 -0.1956
19018W        W35492   9.128  11.199   2.130  0.0562  0.0879  0.2144
19019W        W35493  10.185  13.394   3.489  0.1917 -0.2096 -0.0342
19020W        W35494  12.616   2.380   2.947  0.1730 -0.2174 -0.2797
19021W        W35495   8.992  17.491   3.074 -0.2273 -0.2534 -0.0605
19022W        W35496   6.836   0.159   0.246 -0.0856  0.0057 -0.3606
19023W        W35497  15.191  17.233   0.028  0.2029  0.0416 -0.0720
19024W        W35498  11.479  14.600  15.654 -0.0171  0.0171  0.0461
19025W        W35499  14.406  12.011   0.784  0.0063  0.2735  0.0074
19026W        W35500   3.576   7.237  13.472  0.1112  0.0095  0.0702
19027W        W35501  15.880  15.714  15.731 -0.1974 -0.2332 -0.0887
19028W        W35502   5.717   6.771   0.631  0.1633  0.0516  0.1466
19029W        W35503   3.810  17.172   5.765 -0.2412 -0.1154 -0.0864
19030W        W35504   7.270   2.416   2.972  0.1007 -0.0958 -0.1046
19031W        W35505  12.629   2.985   2.982 -0.0029 -0.1607 -0.0284
19032W        W35506   6.881  11.810   6.106 -0.2357  0.0570  0.1295
19033W        W35507  15.724  15.267   0.505  0.1244 -0.0357 -0.1487
19034W        W35508   9.979   1.717   2.714 -0.1032 -0.0757 -0.2957
19035W        W35509   2.614  15.823   5.176 -0.1733 -0.1021 -0.2395
19036W        W35510  14.564  10.303   1.222  0.0492  0.1346  0.0053
19037W        W35511   6.224   2.352  15.131 -0.0732  0.1556 -0.0048
19038W        W35512  17.353  15.177  13.598  0.0794 -0.0371  0.4056
19039W        W35513  14.778   7.570   2.917  0.1331  0.1719 -0.1977
19040W        W35514  14.416  15.327  16.797  0.2100  0.1243  0.2530
19041W        W35515   0.356  10.119  16.533 -0.0195 -0.0129 -0.1165
19042W        W35516  12.792   1.767  12.545 -0.3100  0.1612 -0.3057
19043W        W35517  12.567   6.062   2.654 -0.4556 -0.1553  0.0993
19044W        W35518   2.170   8.631  15.209 -0.1217 -0.4909  0.0613
19045W        W35519   5.057  10.893  15.493 -0.1429 -0.1873 -0.1628
19046W        W35520  13.367   8.000   4.583 -0.2467  0.0738  0.3643
19047W        W35521   8.178  11.592   5.052  0.1498  0.2322  0.0973
19048W        W35522   6.992  12.946  16.225  0.2219  0.4206 -0.0037
19049W        W35523   8.536   9.488   3.143  0.1460 -0.1175  0.1481
19050W        W35524  15.248  10.945   1.013 -0.1588  0.0636 -0.0397
19051W        W35525   7.131   3.035   5.595  0.0018  0.2535 -0.0042
19052W        W35526  15.062   6.372   0.749 -0.1978 -0.1295  0.0376
19053W        W35527  16.313  15.740  16.730 -0.0878 -0.2013  0.2923
19054W        W35528   1.135  12.622   3.128 -0.0517  0.0353  0.3490
19055W        W35529  13.180   8.244   1.872 -0.2569  0.0248  0.1303
19056W        W35530   7.261  17.242  12.029  0.0488 -0.0086 -0.1733
19057W        W35531   3.453  16.669   2.146  0.1702  0.1327  0.3577
19058W        W35532  10.903  11.258   1.445  0.0586  0.3975  0.2404
19059W        W35533  17.309  16.508   2.830  0.1086 -0.3064  0.5029
19060W        W35534  14.238  14.046   4.942  0.2380  0.1580  0.2493
19061W        W35535  11.509  14.012  14.489 -0.1213 -0.2002  0.0911
19062W        W35536  15.419   7.197  12.636 -0.0479  0.1404 -0.0626
19063W        W35537   4.428  13.346   5.321  0.0172  0.1696 -0.0589
19064W        W35538  14.189  16.997   3.553  0.1452  0.0442  0.0953
19065W        W35539   9.881  11.914  15.903 -0.3253  0.0901  0.1102
19066W        W35540  16.356  16.642  12.666  0.1362 -0.0726  0.0067
19067W        W35541  10.536   9.617  13.831  0.2979 -0.1262 -0.1415
19068W        W35542   8.943   4.050   0.276 -0.0750 -0.1885  0.2747
19069W        W35543   4.857  11.102  15.881  0.0549 -0.0001 -0.3782
19070W        W35544  10.447  15.528   0.414 -0.1579 -0.3644 -0.0333
19071W        W35545  17.397   6.166  16.424 -0.0509  0.3318 -0.2353
19072W        W35546  10.144   5.044   2.742 -0.0057  0.2366  0.0576
19073W        W35547   1.331  17.240  14.940 -0.2602 -0.1136  0.1269
19074W        W35548  12.093  16.791  15.396 -0.1814  0.2425 -0.1156
19075W        W35549   2.510   5.128   0.211  0.0997 -0.2265  0.2052
19076W        W35550   0.376  11.590  16.515  0.0042 -0.3110  0.0238
19077W        W35551   7.964   7.306   4.772  0.0663 -0.0966  0.0181
19078W        W35552   7.768  15.685  12.860 -0.0982  0.1937  0.0629
19079W        W35553   8.024   7.030  12.901  0.2762 -0.2960  0.3778
19080W        W35554   8.030  12.418   0.435  0.1429 -0.0008  0.1470
19081W        W35555  15.450   4.352   3.725 -0.0948  0.2954  0.2535
19082W        W35556   9.549   8.975  14.448  0.0570  0.1563 -0.2185
19083W        W35557   0.125   7.084  12.064 -0.2651  0.0172  0.1490
19084W        W35558  16.020   1.802   3.213  0.3268  0.1778 -0.0267
19085W        W35559   8.069  12.341  15.266 -0.0730  0.1855 -0.0670
19086W        W35560   9.467   8.884   5.581 -0.1642 -0.3151 -0.2284
19087W        W35561   4.494  17.472  14.806  0.1276  0.1184  0.0098
19088W        W35562   0.489   2.813  14.458 -0.2103 -0.2569  0.1948
19089W        W35563  11.668   4.172  14.216 -0.2644  0.0154  0.1442
19090W        W35564   9.429  12.183   0.382  0.3321 -0.1392 -0.0968
19091W        W35565   5.307  10.205  13.758  0.1328  0.3000  0.1629
19092W        W35566   7.514  12.405   2.165  0.3071 -0.0801 -0.1557
19093W        W35567   6.361   2.814   6.055 -0.0212  0.0180  0.2446
19094W        W35568  13.198   0.516   1.156 -0.1738  0.0869  0.1820
19095W        W35569  17.102   6.913  16.407 -0.0479  0.2635 -0.0154
19096W        W35570  10.031   1.617  16.151 -0.0213  0.0751  0.0984
19097W        W35571  14.969  15.732  11.778  0.0116 -0.0338 -0.4607
19098W        W35572  16.043   5.337  13.553 -0.0289 -0.2615  0.0990
19099W        W35573  17.720   3.626   1.068  0.0246  0.2266 -0.1191
19100W        W35574   0.236   8.783  15.418 -0.1030 -0.1351  0.2894
19101W        W35575   1.308   0.268   4.462  0.1012  0.0930  0.1392
19102W        W35576  12.706   1.250  12.581  0.0295  0.3622 -0.1487
19103W        W35577  14.509   8.498   2.707  0.2764 -0.1504  0.1174
19104W        W35578  12.211  15.529  16.330  0.1559  0.1387  0.0527
19105W        W35579  14.996   6.530   1.612  0.1059 -0.0554  0.3101
19106W        W35580   4.945   3.715  13.789  0.3783  0.0469 -0.1225
19107W        W35581   2.210   0.633  16.801 -0.0305  0.1735 -0.1576
19108W        W35582  17.554   5.050  15.576 -0.0920 -0.1815  0.1123
19109W        W35583  13.640  14.317   3.166 -0.0345  0.0271 -0.2310
19110W        W35584   3.620  13.875   3.381 -0.7170 -0.1795  0.1895
19111W        W35585   5.934  11.346  14.318  0.0703 -0.1249 -0.0210
19112W        W35586   1.039  13.753   2.012 -0.1596 -0.1722 -0.0600
19113W        W35587   6.058  13.067   1.413 -0.4211  0.1416 -0.3050
19114W        W35588   8.038  10.932   3.890  0.1916  0.0186  0.3534
19115W        W35589  17.188   0.855   0.818  0.0189 -0.0983  0.0356
19116W        W35590   5.941  10.937  12.755  0.1463  0.1173 -0.0515
19117W        W35591   3.110  10.833  14.361  0.3442 -0.2447  0.2514
19118W        W35592   5.713  17.365  14.760 -0.0150 -0.4089  0.0898
19119W        W35593  11.618  16.642   4.278  0.0443  0.2985 -0.2515
19120W        W35594   9.510  15.770   2.977 -0.1392  0.1581 -0.0990
19121W        W35595  13.509  11.711  13.788 -0.0350 -0.0299  0.1331
19122W        W35596   1.111   4.905  15.103  0.0992  0.0405 -0.0821
19123W        W35597   4.892  11.364   2.883  0.0613 -0.0774  0.1004
19124W        W35598  13.466  12.797  13.658  0.2024  0.0203  0.0491
19125W        W35599  17.701  16.736   3.153  0.2776  0.1516  0.0963
19126W        W35600  11.584   4.873  13.747  0.0547 -0.0717 -0.2341
19127W        W35601  14.672   1.734  16.320  0.2361 -0.2122  0.3791
19128W        W35602  15.485   7.384  16.409  0.1361  0.0936 -0.3004
19129W        W35603   7.797   8.563  16.637  0.2642  0.0325  0.2064
19130W        W35604  17.549  13.981   1.517  0.1630 -0.1553 -0.2233
19131W        W35605   0.351   4.141   4.680  0.2913 -0.3321  0.1083
19132W        W35606   3.810   7.839   4.151  0.0885 -0.2867  0.1948
19133W        W35607   9.760  16.969  16.154 -0.0839 -0.0912 -0.0849
19134W        W35608   3.798   1.137  16.256 -0.0198 -0.0269  0.2792
19135W        W35609  16.407  10.905   2.095  0.1101 -0.0883 -0.1005
19136W        W35610  10.540   6.060   1.627  0.0845 -0.2374 -0.0493
19137W        W35611  14.812   0.608   2.632  0.1282 -0.2433  0.1502
19138W        W35612  11.283  14.304  16.119  0.0611 -0.6432  0.0784
19139W        W35613  11.928   2.588  15.428 -0.1562  0.0912 -0.0746
19140W        W35614  12.772  11.206   1.071  0.0558  0.1135  0.1334
19141W        W35615   3.673   3.484  14.829  0.0519  0.0045  0.0761
19142W        W35616   1.851  11.326   1.775 -0.0435 -0.0580  0.0890
19143W        W35617   5.037  14.735  12.330 -0.0366  0.0925 -0.1150
19144W        W35618   8.676   5.290  13.241 -0.2350 -0.0552  0.0690
19145W        W35619   3.861  17.072   4.091  0.0215 -0.0228 -0.1194
19146W        W35620   3.248   9.005  15.831  0.0483  0.1320  0.1809
19147W        W35621  16.601   2.114  12.065  0.0261  0.3287  0.0701
19148W        W35622   1.267   6.130   3.117 -0.2536  0.0583  0.0846
19149W        W35623  12.546  11.075   0.182  0.1502 -0.1940  0.1298
19150W        W35624  12.935   7.660   5.527  0.3595 -0.1010  0.3000
19151W        W35625   9.227   7.863   4.815 -0.3969 -0.1753  0.1763
19152W        W35626  10.433   7.320  15.100  0.0003  0.1121 -0.1646
19153W        W35627  10.714  14.192   5.124 -0.1046  0.3271 -0.1379
19154W        W35628   9.877   3.480  15.568 -0.0076  0.0114  0.0912
19155W        W35629  12.459  10.051   0.408 -0.1720  0.1467 -0.0335
19156W        W35630  13.101   9.296  13.623  0.0751 -0.2360  0.3208
19157W        W35631   4.851  17.364  15.759  0.2011 -0.2071  0.1023
19158W        W35632   0.117  12.706  11.651 -0.1514  0.0865  0.0978
19159W        W35633   1.596   5.155   1.165 -0.0988 -0.1697 -0.0324
19160W        W35634   7.902   5.407   6.106 -0.1942  0.1427  0.0508
19161W        W35635  12.812   0.469   4.762  0.0806 -0.0977  0.3217
19162W        W35636   5.040  11.813   0.385  0.1962 -0.1339 -0.1268
19163W        W35637   4.447  17.668  14.282  0.1218 -0.3291 -0.2818
19164W        W35638  13.861   7.710  13.729 -0.2259  0.0141  0.2854
19165W        W35639  17.006  13.983   4.765 -0.0507 -0.0174 -0.1557
19166W        W35640  15.232   6.311  13.982 -0.0292 -0.3118  0.0230
19167W        W35641   5.595  11.210   2.599 -0.0750  0.0735 -0.0446
19168W        W35642  16.858   9.441  15.680 -0.0896 -0.2716  0.0352
19169W        W35643  15.073  12.905  14.951  0.2141  0.3582 -0.0142
19170W        W35644   1.049   9.494   0.013 -0.2720 -0.4360 -0.0119
19171W        W35645  14.159   3.615   2.188 -0.0033  0.0297  0.2777
19172W        W35646   0.450   0.708  16.278  0.0898  0.1081 -0.1061
19173W        W35647   0.867  17.195   4.229 -0.0945 -0.1172 -0.0504
19174W        W35648  10.753   7.419   5.879 -0.2669 -0.1178  0.1171
19175W        W35649  13.923  11.793  15.930  0.1767  0.1035  0.0725
19176W        W35650   2.927  11.685  15.077 -0.0548 -0.2689  0.3079
19177W        W35651   5.023   4.097  16.248  0.0984 -0.1550 -0.0647
19178W        W35652  13.301   0.218   4.104  0.2279  0.0618 -0.1925
19179W        W35653  11.860  13.241   1.571 -0.0615 -0.0864  0.0707
19180W        W35654  16.252   4.345  12.885  0.0872  0.1584 -0.0715
19181W        W35655   6.370  10.782   5.580 -0.3273 -0.1083 -0.1511
19182W        W35656  13.591  11.586   3.473  0.1094  0.1938 -0.0796
19183W        W35657   5.730  17.229   1.181 -0.1329  0.0849 -0.0014
19184W        W35658  13.726   7.497   1.550  0.0888  0.0701 -0.0259
19185W        W35659  10.287   2.800   1.065  0.0735  0.1449 -0.1008
19186W        W35660   8.693   0.307  11.125  0.1971  0.0817 -0.2547
19187W        W35661  13.782   6.848   6.263  0.1087 -0.0996 -0.1851
19188W        W35662   7.700   8.625   3.754 -0.0791 -0.2182  0.0220
19189W        W35663   6.180   0.497   4.787  0.0063 -0.2568 -0.1183
19190W        W35664   7.692  14.374  15.568  0.1026 -0.0375  0.2849
19191W        W35665   9.688  13.418  15.458  0.0421  0.0669 -0.0100
19192W        W35666   5.262  13.788  14.324 -0.1341 -0.1508 -0.3380
19193W        W35667   8.106   6.247  11.955  0.3229  0.0359 -0.3220
19194W        W35668  15.846   0.205   2.348 -0.0302 -0.0592 -0.3321
19195W        W35669   1.795   8.769   4.404  0.0749  0.0144 -0.2863
19196W        W35670   7.868   9.710  15.012  0.2132 -0.0701 -0.2135
19197W        W35671   3.747  16.278  13.126  0.0489  0.1519  0.2884
19198W        W35672  13.918  16.635  13.081 -0.2041  0.2488  0.0470
19199W        W35673   8.352   5.036  16.813  0.1833  0.0794  0.2987
19200W        W35674  13.730   6.959   4.381 -0.1253 -0.0305  0.0613
19201W        W35675   4.218  14.435  16.563  0.1984  0.1270  0.3694
19202W        W35676   7.910   0.593  16.590 -0.0523 -0.1597 -0.2656
19203W        W35677   4.221   7.774   3.400  0.0028  0.2168  0.0343
19204W        W35678   7.009  16.199  12.829 -0.0922 -0.1026 -0.1578
19205W        W35679  14.786  10.242  15.837  0.0518  0.0805 -0.2029
19206W        W35680   2.297   2.149  14.692 -0.1453  0.3272 -0.1429
19207W        W35681   5.294   6.654   2.880  0.3259 -0.0499 -0.2660
19208W        W35682   6.189   4.168   4.557 -0.0683 -0.0196 -0.0911
19209W        W35683   6.138   7.480   3.971  0.0178 -0.3098 -0.0554
19210W        W35684   8.437   0.409  16.612 -0.2173 -0.2753 -0.1460
19211W        W35685   6.884  15.251  13.772 -0.2826  0.1317 -0.2112
19212W        W35686  13.205   9.968  15.356  0.1387 -0.0446 -0.2288
19213W        W35687   1.595  17.531  13.116 -0.1650 -0.0768 -0.0493
19214W        W35688  16.838   0.480   4.253 -0.0788  0.1724  0.2383
19215W        W35689  14.340  10.405   4.093  0.2015 -0.0711 -0.0343
19216W        W35690  16.297   2.189  15.261  0.3005 -0.2012  0.1524
19217W        W35691   6.012   4.086  12.084  0.1206  0.0558  0.2931
19218W        W35692   2.670  17.404   5.491  0.0162  0.0589  0.1961
19219W        W35693   6.626  13.353  14.937 -0.1927 -0.0176 -0.0076
19220W        W35694   1.368  11.606  11.102 -0.4747 -0.1898  0.2535
19221W        W35695   9.541   4.812   4.146 -0.2390 -0.2385  0.2211
19222W        W35696  17.064   2.173  13.294 -0.2801  0.0027 -0.0068
19223W        W35697   5.079  12.997   4.638 -0.2141 -0.2204  0.0500
19224W        W35698   5.220   6.245  13.326  0.0956 -0.2233 -0.1739
19225W        W35699  14.808   6.501  14.754  0.0312  0.2737 -0.0126
19226W        W35700  11.600   8.800   3.368  0.1174  0.0617  0.1916
19227W        W35701   9.504  12.968  15.309  0.3696  0.0606 -0.0957
19228W        W35702   2.293  14.234  14.688 -0.2385  0.1339 -0.1546
19229W        W35703  17.014  16.681  12.221  0.1666  0.2938 -0.1286
19230W        W35704  14.515   8.127   1.633  0.1835 -0.0657 -0.0964
19231W        W35705  14.618  10.606  11.953 -0.1702  0.0934  0.0108
19232W        W35706  16.456   1.104   2.692  0.3308  0.0421 -0.0835
19233W        W35707   9.026   5.623  16.605 -0.1425  0.1888  0.1126
19234W        W35708   6.778  15.922   0.488  0.2995 -0.1756  0.1741
19235W        W35709  13.311   8.161   2.329 -0.0616 -0.0398 -0.0275
19236W        W35710  10.300  12.157  15.070 -0.0238  0.1515 -0.1031
19237W        W35711   7.711   3.971  12.715  0.2085 -0.0032  0.0279
19238W        W35712  14.110  13.386   5.118  0.0681  0.0079  0.1594
19239W        W35713  15.883   7.008   2.311  0.2155 -0.0787  0.0886
19240W        W35714   7.543   1.971   1.447 -0.1024  0.0770  0.0579
19241W        W35715   2.396  11.396   2.192  0.0922 -0.0175  0.0218
19242W        W35716  17.709   7.881  13.381  0.3136  0.2680  0.1352
19243W        W35717   7.429   5.833  11.021  0.0858 -0.2084  0.0100
19244W        W35718   8.594  10.584   2.910 -0.1309  0.0948 -0.0138
19245W        W35719   4.397  15.070   5.072  0.0213  0.1246 -0.3123
19246W        W35720  16.184   6.092   1.520  0.0595  0.0126  0.1622
19247W        W35721   8.523   8.868  15.575  0.2137 -0.2131 -0.1640
19248W        W35722  17.718   0.418  11.823 -0.0673  0.0094 -0.3143
19249W        W35723   1.115  15.201   5.088  0.0681  0.1341  0.0118
19250W        W35724   9.255   7.248   0.097 -0.1485  0.0709 -0.2884
19251W        W35725  11.153  17.280  15.566 -0.4192 -0.4498 -0.0747
19252W        W35726   9.230   5.000   0.248  0.1821 -0.0005  0.2472
19253W        W35727   9.479   1.777   0.608 -0.2736 -0.0002 -0.0007
19254W        W35728  15.416  11.145   4.125 -0.1704  0.0744  0.1830
19255W        W35729   7.572  11.372  13.104 -0.0109 -0.0174 -0.0011
19256W        W35730   5.039   5.563   2.033  0.1273  0.2112 -0.3151
19257W        W35731   6.154   0.033  13.584 -0.1345  0.0650 -0.0509
19258W        W35732  13.699  14.983   4.288  0.1450 -0.0237 -0.1007
19259W        W35733  16.278  16.813   5.274  0.2346 -0.3277  0.0903
19260W        W35734  12.807  12.192   2.277  0.1352 -0.2842 -0.1635
19261W        W35735   7.318  13.801  16.013 -0.2098 -0.4223 -0.3656
19262W        W35736   3.399  16.004  15.057 -0.2103 -0.0312 -0.2204
19263W        W35737  16.251   6.458  14.104 -0.1346 -0.0285  0.2398
19264W        W35738  17.623   7.465  11.684  0.1074 -0.0530 -0.1359
19265W        W35739   8.343   3.967   5.353 -0.1282  0.1149  0.0626
19266W        W35740  14.653   2.135   4.321 -0.0861 -0.0702 -0.0090
19267W        W35741  13.661   1.152  12.385  0.1133  0.1216 -0.1428
19268W        W35742  12.502   4.190  15.199 -0.2941 -0.0682  0.0262
19269W        W35743   9.216  11.640   2.632 -0.1430  0.2960 -0.1460
19270W        W35744  15.243  15.907  15.430  0.0636  0.0172  0.0067
19271W        W35745   1.006   2.313   2.613  0.0810 -0.1338  0.2910
19272W        W35746   5.315  13.031  11.618 -0.5253 -0.1690 -0.1501
19273W        W35747   4.042   9.461   1.895 -0.1246  0.3443 -0.2090
19274W        W35748   7.705  12.875  11.706  0.0011 -0.0392  0.1756
19275W        W35749   3.247   2.644   4.082 -0.0088 -0.0692 -0.0100
19276W        W35750  14.059   0.905  16.365  0.2070 -0.0428  0.0485
19277W        W35751  10.988  11.836   2.853  0.0753  0.0120 -0.0575
19278W        W35752  16.652   4.381  14.324  0.0235 -0.1143 -0.1215
19279W        W35753   6.483   6.860   6.315  0.1373 -0.0377 -0.0105
19280W        W35754   0.767   0.681   5.699 -0.0203 -0.0542 -0.0338
19281W        W35755   4.456   9.251   2.608  0.0747 -0.1516 -0.0551
19282W        W35756   4.707   3.743   0.230 -0.1047 -0.0731 -0.2574
19283W        W35757   4.860  17.388  14.485 -0.0715  0.2443  0.0352
19284W        W35758  10.874  16.368   0.760  0.1270  0.0551  0.2356
19285W        W35759  16.150  14.596   3.718  0.0110 -0.4276 -0.1775
19286W        W35760  17.099   3.547  13.742 -0.0509  0.2103  0.0336
19287W        W35761   4.014   0.014  11.782 -0.0080  0.0991 -0.2350
19288W        W35762   5.106  16.255  16.785 -0.0379  0.0527 -0.0756
19289W        W35763   5.902  12.486   0.627  0.2590  0.0222 -0.1669
19290W        W35764   5.522   6.973   5.254  0.0374  0.2386  0.2306
19291W        W35765  10.355   3.135  14.214  0.2783  0.0863  0.2811
19292W        W35766   1.027   4.080  13.053 -0.1300 -0.1403 -0.1174
19293W        W35767  16.766   9.022  15.402 -0.1054 -0.1185 -0.0159
19294W        W35768   6.612  15.997   3.858  0.2941  0.0831 -0.2135
19295W        W35769  16.451   8.362  12.709  0.1217 -0.0677  0.0432
19296W        W35770  13.052   5.217   3.758  0.3721 -0.0658  0.0475
19297W        W35771   0.849  11.006  16.348  0.1988  0.1678  0.1836
19298W        W35772   3.406  12.888  12.059  0.0601 -0.0778 -0.0412
19299W        W35773  11.126  10.596   3.534 -0.1942  0.0274 -0.3631
19300W        W35774  14.295  13.213  16.538 -0.0738 -0.0940  0.1859
19301W        W35775   3.192   5.208   6.056 -0.0431  0.0301  0.2599
19302W        W35776   7.490  11.261  14.601  0.2305  0.2502 -0.2778
19303W        W35777   2.019   3.547   2.323 -0.1674 -0.2777  0.2491
19304W        W35778   9.640  10.169  12.281 -0.1727  0.2411 -0.0187
19305W        W35779   3.207  10.377   5.930  0.1496  0.0282 -0.0929
19306W        W35780  13.313   1.244  15.742 -0.0415 -0.1145  0.2042
19307W        W35781  11.762  16.792   4.966  0.4979  0.2283 -0.2696
19308W        W35782  11.282   3.926  16.747  0.0322 -0.0889  0.0106
19309W        W35783   6.036  17.183   4.600  0.1484  0.1612 -0.2035
19310W        W35784  15.002  13.011  11.999 -0.1304  0.1009  0.3139
19311W        W35785   8.822  14.760  12.110  0.2160  0.2089  0.0410
19312W        W35786  12.876   4.738   3.777 -0.0853  0.2518  0.1128
19313W        W35787   1.879   4.966  15.965  0.0117  0.0044  0.2661
19314W        W35788   3.253  11.696   3.453  0.2799  0.1590  0.1324
19315W        W35789   8.136  16.290  14.588  0.0270  0.2581  0.0214
19316W        W35790   6.927  17.818  16.644  0.2849 -0.1821  0.0757
19317W        W35791   4.852   2.513  13.256 -0.1339 -0.0843 -0.0516
19318W        W35792   2.637   0.080   0.984  0.1919  0.0008  0.1702
19319W        W35793   9.539   6.110   0.871  0.1968 -0.5572 -0.0260
19320W        W35794   5.270   7.176  12.172  0.0917  0.1521 -0.3035
19321W        W35795  14.652  17.671   2.306 -0.1367 -0.0426  0.1778
19322W        W35796   6.011  10.531  14.489 -0.0761 -0.1919 -0.0753
19323W        W35797  10.775   8.046   2.413  0.5556  0.0733 -0.3477
19324W        W35798   2.504   1.725  15.126  0.2157  0.1603  0.1632
19325W        W35799  16.921   5.346   2.085  0.1283  0.0742 -0.2622
19326W        W35800  10.601  13.788   1.721 -0.1368  0.1164 -0.0361
19327W        W35801  11.049  12.190   2.391  0.2447 -0.2516 -0.0794
19328W        W35802  16.537   6.018  13.397 -0.4009  0.0905  0.0066
19329W        W35803   1.154  10.033  16.810  0.3428 -0.1315 -0.2873
19330W        W35804  16.427   5.745  16.726  0.3197  0.2232  0.1504
19331W        W35805   1.539   6.990   4.864 -0.1140 -0.2352 -0.1949
19332W        W35806  12.170   1.246   6.093  0.3690  0.0234 -0.0010
19333W        W35807   5.203   8.408  16.820 -0.4329  0.2104  0.1118
19334W        W35808  15.927  15.513   5.745 -0.0230 -0.0731 -0.0820
19335W        W35809  13.561  10.132  14.112 -0.2172 -0.0625  0.3284
19336W        W35810  10.242  16.052   2.226 -0.0368  0.2600 -0.3519
19337W        W35811  11.790  16.299   1.169 -0.0428  0.0493  0.2332
19338W        W35812  15.569  16.376  15.891  0.1928  0.1550 -0.0394
19339W        W35813   5.545  12.914   0.650 -0.1161 -0.0880  0.0965
19340W        W35814   5.484   2.132  15.326 -0.1893 -0.1747  0.2510
19341W        W35815  13.232   7.638   5.967 -0.1227 -0.1908  0.0024
19342W        W35816   9.466   6.593  16.319  0.0389 -0.1042 -0.1049
19343W        W35817   6.678   3.039   4.230  0.0703  0.1252 -0.0907
19344W        W35818  10.091  12.903   2.732 -0.1133 -0.0957 -0.0196
19345W        W35819  14.468  11.101  15.720 -0.2816 -0.1181 -0.0164
19346W        W35820  17.426   0.289   2.269 -0.2140  0.1208 -0.3167
19347W        W35821   9.377  14.625   5.798 -0.3472 -0.2337  0.0807
19348W        W35822   4.702  12.072  12.136  0.0278  0.2320  0.2314
19349W        W35823   9.480   8.614   2.369  0.2759  0.2724 -0.1157
19350W        W35824   8.779   8.207   1.094  0.1747 -0.2524 -0.1994
19351W        W35825  14.658  12.030  16.630  0.2092  0.1370 -0.1361
19352W        W35826  12.726  16.068   3.927  0.0238 -0.0238 -0.1885
19353W        W35827   8.544  10.681  11.689 -0.0306 -0.0311 -0.2344
19354W        W35828  11.402  10.078  14.121  0.2038 -0.2228 -0.0299
19355W        W35829   4.783   0.874  12.699  0.1833  0.0847  0.1353
19356W        W35830  17.774  12.746   1.466 -0.0406  0.1192  0.1989
19357W        W35831  14.992   9.836  12.584  0.0956 -0.3541 -0.2618
19358W        W35832   8.872  16.649  14.761 -0.1786 -0.1200  0.1004
19359W        W35833   5.471  16.250  14.471  0.0999  0.1420  0.0799
19360W        W35834  11.550   8.933   2.129 -0.1790  0.0220 -0.0819
19361W        W35835  17.566   2.786  13.908  0.0236 -0.2276  0.0303
19362W        W35836  11.846   9.789  11.685 -0.1435 -0.0998 -0.1300
19363W        W35837  15.042   0.605  16.211  0.1510  0.2133  0.1255
19364W        W35838  12.045   0.999  15.163  0.1414  0.0858 -0.1949
19365W        W35839   2.965  16.333   1.484 -0.2402 -0.0231  0.1298
19366W        W35840  10.679   1.398   5.964 -0.1609  0.1382 -0.0285
19367W        W35841   4.831  13.719  16.610 -0.0702  0.2346  0.2452
19368W        W35842   2.480  17.114   4.143  0.0189 -0.1575 -0.0816
19369W        W35843   6.039   7.959   3.587  0.2763 -0.0488  0.0450
19370W        W35844  17.691  17.363  13.207 -0.1551 -0.0673 -0.2141
19371W        W35845   6.030  14.138  13.935 -0.0866 -0.2435  0.1013
19372W        W35846  10.050   7.575  14.123 -0.1994 -0.1070  0.0798
19373W        W35847   4.004   0.328   3.713  0.0457  0.0329  0.0507
19374W        W35848   6.954  11.607  12.474  0.0107 -0.1999  0.0715
19375W        W35849  13.041   7.744   3.459  0.1982 -0.1682  0.1570
19376W        W35850  16.773  11.073   2.383 -0.0072 -0.0505 -0.1527
19377W        W35851   6.136   4.116  16.901 -0.0248  0.3520  0.1110
19378W        W35852  10.589  17.211   4.341  0.0358 -0.0884  0.1702
19379W        W35853   3.133  15.075   3.885 -0.3480  0.0637  0.0923
19380W        W35854  16.883  13.327   3.533 -0.0110 -0.1879  0.0978
19381W        W35855   0.042  13.910  16.731  0.1889  0.1005  0.0798
19382W        W35856  13.414  14.607   1.233 -0.3650  0.0700 -0.2128
19383W        W35857   1.135  14.148  16.252 -0.1305  0.1504 -0.3244
19384W        W35858   8.867   7.623  14.285 -0.3884 -0.0578  0.1842
19385W        W35859  16.338  16.069  16.310  0.1947 -0.0018 -0.0987
19386W        W35860  14.504   7.690  15.885  0.0528  0.0693 -0.0021
19387W        W35861   1.814  14.773   0.473  0.0412  0.0108  0.0866
19388W        W35862  11.963   2.030   4.090  0.2638 -0.1518 -0.2961
19389W        W35863   2.374  11.187  12.480  0.0772 -0.1647  0.1023
19390W        W35864   0.539   8.737  14.630  0.0148 -0.1016  0.3428
19391W        W35865   9.508   3.655   2.438 -0.1640  0.0842  0.0720
19392W        W35866  16.937   2.581   4.330 -0.1559  0.0316  0.0296
19393W        W35867  16.025  17.280  13.496  0.1390 -0.1299  0.0038
19394W        W35868   0.730  13.424  13.160  0.0032 -0.3777  0.0663
19395W        W35869   7.306   7.268  12.766  0.0432  0.0832 -0.0984
19396W        W35870   8.343   9.193   3.580 -0.1450 -0.0225  0.3279
19397W        W35871   9.669  11.324   4.745 -0.1145 -0.0690 -0.0187
19398W        W35872   2.918   7.577  12.969  0.1345  0.0881  0.2503
19399W        W35873   9.923  11.598  12.574  0.0667  0.0941 -0.3799
19400W        W35874   1.237   9.113   3.450  0.2439 -0.1024 -0.0038
19401W        W35875   2.042  16.848   4.168  0.6089  0.1701 -0.0399
19402W        W35876   1.586   4.989  16.576  0.0093 -0.1045 -0.0828
19403W        W35877   7.414   1.374  11.790  0.2025  0.1853  0.0666
19404W        W35878   4.862  14.759  13.491 -0.1049  0.0653 -0.0829
19405W        W35879   7.400   8.771   2.861  0.2565 -0.0170 -0.1436
19406W        W35880  13.367   7.964  14.892 -0.1775 -0.0764 -0.1917
19407W        W35881  10.423   4.668   3.750  0.0034  0.0090  0.0092
19408W        W35882  11.105   1.299   1.026  0.2806 -0.1745  0.2322
19409W        W35883  17.504   6.812   3.293 -0.0169 -0.0844 -0.0842
19410W        W35884   6.905  11.687   3.223  0.3220  0.1577  0.0539
19411W        W35885   0.146   9.262  13.589  0.1816 -0.0602  0.0158
19412W        W35886  10.216  11.994  12.703  0.1602  0.1722 -0.0912
19413W        W35887  17.784  16.367   0.459  0.2301 -0.2071 -0.1457
19414W        W35888  12.840   9.743  15.504 -0.1170  0.1713  0.2860
19415W        W35889   3.735  14.322   3.127  0.0670  0.0032 -0.2070
19416W        W35890  17.123  14.852  14.506  0.4151  0.3415  0.0962
19417W        W35891   3.410  14.392   2.208  0.1559  0.0568  0.2475
19418W        W35892   8.322  16.106  15.883 -0.1144  0.1012 -0.0214
19419W        W35893   0.465   4.208   0.877 -0.2838 -0.0402  0.0082
19420W        W35894  10.253  17.350  13.956  0.0228 -0.2649  0.0849
19421W        W35895  14.129  14.196  15.567  0.1205 -0.1834 -0.1830
19422W        W35896   2.668  16.593  16.079 -0.1236  0.1098 -0.1333
19423W        W35897   4.131   2.501   5.710  0.0684 -0.3377 -0.2025
19424W        W35898   0.440   6.109  12.087  0.0972 -0.1065  0.0835
19425W        W35899   3.833   0.954  14.081  0.0448  0.1911 -0.2015
19426W        W35900  14.687  11.698   1.664 -0.5481  0.1315  0.2984
19427W        W35901  13.363   6.442  16.375 -0.0482  0.0430 -0.1321
19428W        W35902   1.926   2.354  14.300 -0.0914 -0.4058  0.2029
19429W        W35903  15.641   5.461   1.145 -0.2203  0.0837  0.4506
19430W        W35904   2.908   2.132   5.726  0.4059  0.0191  0.1483
19431W        W35905   4.764   4.118  16.821 -0.0069  0.2672 -0.2786
19432W        W35906   9.830   5.345   3.201  0.2608  0.3928  0.1117
19433W        W35907   1.126   1.852   5.119  0.0715 -0.2589  0.1471
19434W        W35908   0.841   9.998  16.380 -0.2482 -0.2142 -0.3459
19435W        W35909   1.692   8.753  15.134  0.3105 -0.0990 -0.0855
19436W        W35910  12.510   9.971  12.703  0.0042  0.2126 -0.1595
19437W        W35911   7.906  10.007  14.575 -0.0508 -0.0437 -0.1486
19438W        W35912  14.452   1.418   2.245 -0.1427  0.0530  0.2246
19439W        W35913  17.111   3.119   2.372 -0.1530 -0.0369 -0.2191
19440W        W35914   7.723  12.194  13.650 -0.1042  0.2403  0.0659
19441W        W35915  10.379  17.562  14.469  0.2294 -0.0073  0.1166
19442W        W35916  13.749  13.743   0.289  0.2743 -0.1044  0.0893
19443W        W35917   9.484  16.382   5.095 -0.0075 -0.2417 -0.0129
19444W        W35918   2.563  16.221   2.213 -0.0302 -0.2122 -0.1308
19445W        W35919   7.754   9.887  12.275  0.0267  0.0264 -0.1963
19446W        W35920  11.709  11.035  12.753 -0.0951 -0.0525 -0.0927
19447W        W35921  10.421   7.646   1.251 -0.0531 -0.2972  0.1870
19448W        W35922  11.517   2.344   4.716 -0.0807  0.1432 -0.0476
19449W        W35923   6.857   3.424  11.705  0.1876 -0.3533 -0.2359
19450W        W35924   2.498   1.345  13.232 -0.0605  0.0306  0.2305
19451W        W35925  10.435  13.834  11.835  0.2753 -0.1550  0.2349
19452W        W35926   1.509   4.484   5.576  0.5015 -0.1592  0.0160
19453W        W35927   1.301  14.719   3.065 -0.0747  0.2677  0.1295
19454W        W35928   6.189   5.803  14.191 -0.1505 -0.0542 -0.0151
19455W        W35929  16.790  16.886   4.309 -0.0301 -0.1083  0.2215
19456W        W35930   7.109  13.253   1.745 -0.1189 -0.0274  0.2382
19457W        W35931   4.914   5.158  14.595  0.0079  0.2023 -0.3124
19458W        W35932  13.170  14.525  14.952 -0.2063  0.2230  0.0862
19459W        W35933  10.403   5.517  12.401  0.0676  0.3314 -0.1954
19460W        W35934   3.379   4.511  15.850 -0.1111  0.1735 -0.0481
19461W        W35935   9.216  16.612  15.418  0.2372  0.0174 -0.1011
19462W        W35936   1.508   0.285  13.324 -0.0410 -0.1981  0.0403
19463W        W35937  11.999  14.551   5.017  0.1761 -0.1480 -0.2917
19464W        W35938   0.324   7.263  15.444  0.0649 -0.0806  0.0191
19465W        W35939   1.530   9.480   3.339  0.0825  0.2761  0.1437
19466W        W35940  17.661  12.935  15.482 -0.1975  0.3648  0.2806
19467W        W35941   2.229  13.708  12.852 -0.0192 -0.1538 -0.3972
19468W        W35942  10.673  12.285  14.681 -0.2110  0.2705  0.3623
19469W        W35943   0.460   2.373  13.365 -0.0447 -0.1277  0.1071
19470W        W35944  12.456   9.747   2.904 -0.0362 -0.0343 -0.0983
19471W        W35945   5.251   3.196  12.291 -0.0268 -0.2205  0.0941
19472W        W35946  14.981  12.690  16.471  0.1676 -0.0060  0.1503
19473W        W35947  14.273  15.757  14.452 -0.0524  0.1924  0.2338
19474W        W35948  14.756   1.273   1.385 -0.1793  0.0029  0.0782
19475W        W35949  14.180  17.754  13.342  0.3174  0.0724  0.3208
19476W        W35950   4.384  16.810   5.178  0.0967  0.0276  0.1090
19477W        W35951   2.418  15.912   2.848  0.0806  0.0470  0.1547
19478W        W35952  10.732  10.246  16.416 -0.2083 -0.1060 -0.1275
19479W        W35953   0.218   0.267  14.967  0.1247 -0.0297 -0.0852
19480W        W35954   3.715  12.315  14.062 -0.1254 -0.0698  0.0402
19481W        W35955  10.578   0.920  11.638  0.1035  0.1616  0.0038
19482W        W35956   4.999  16.829  14.436  0.1691 -0.0496  0.0529
19483W        W35957   7.895  16.217  13.501 -0.2640  0.1535 -0.0914
19484W        W35958   3.265   7.090   1.566  0.0077  0.1673  0.1737
19485W        W35959  15.848   7.776  14.285 -0.0629 -0.0468  0.0416
19486W        W35960   3.545  15.230   2.410  0.0846 -0.1620  0.3815
19487W        W35961  14.794   2.276  13.627  0.1475 -0.0270  0.1943
19488W        W35962   6.810   9.921   0.689 -0.2852 -0.2225  0.2120
19489W        W35963  12.386   5.398   0.625  0.1504  0.2673 -0.0657
19490W        W35964  15.228  11.973   6.157 -0.0652  0.0942 -0.3133
19491W        W35965   0.515   6.612  12.112  0.0640 -0.2889  0.2062
19492W        W35966   5.604  14.212   0.086 -0.0231 -0.1486 -0.1672
19493W        W35967   1.843  12.359  12.917 -0.2722 -0.0872 -0.1221
19494W        W35968   8.866  11.911   4.844  0.1003  0.1009  0.1599
19495W        W35969   4.286   1.108   4.252 -0.3124  0.1172 -0.3068
19496W        W35970   2.703   0.510   1.341 -0.2443  0.0388  0.3699
19497W        W35971   9.556  12.573  16.126 -0.1799 -0.0153  0.0345
19498W        W35972   9.408  12.722   0.425  0.1262  0.0304 -0.1781
19499W        W35973   1.730  17.750   4.385  0.1662  0.2929  0.2139
19500W        W35974  13.417   3.469   1.423  0.1651  0.0584 -0.0532
19501W        W35975   5.907  13.870   1.896  0.0506  0.1044 -0.0234
19502W        W35976   0.809   1.596   6.470 -0.2890  0.0731  0.0291
19503W        W35977   3.479  10.850   1.552  0.0731  0.2112 -0.1004
19504W        W35978   8.306  14.799  12.749 -0.0593 -0.3334  0.0428
19505W        W35979  13.312  10.884  15.884  0.0603  0.1453 -0.1161
19506W        W35980   5.195   5.715  11.566  0.1273  0.0741  0.0001
19507W        W35981  13.923   4.029  15.991  0.0014 -0.0491  0.1931
19508W        W35982  13.916  11.487   4.765 -0.2250  0.4230 -0.1179
19509W        W35983  17.381  11.066   1.983  0.0118 -0.3569 -0.2610
19510W        W35984   7.889   2.276  14.651  0.1930 -0.0111  0.0861
19511W        W35985  16.982   7.143  13.843  0.0551  0.2059 -0.1633
19512W        W35986  17.389   4.659   4.831 -0.0668 -0.0042  0.3054
19513W        W35987   0.903   8.209   2.655 -0.2845 -0.2308 -0.1607
19514W        W35988   4.850   4.653   4.492 -0.1887 -0.0612  0.0034
19515W        W35989  15.255  16.802  13.871  0.1468 -0.1876 -0.2445
19516W        W35990  13.363  12.370  12.019 -0.2793  0.2127  0.2015
19517W        W35991  15.570   2.457   2.626  0.0339  0.1232 -0.3243
19518W        W35992  14.550   6.838  15.644 -0.0645  0.1904 -0.1804
19519W        W35993  14.768   8.909  16.439  0.2513  0.2732 -0.1416
19520W        W35994   3.530  14.827  13.294 -0.2447  0.1448 -0.1447
19521W        W35995   6.638  15.064   1.212 -0.1493 -0.1627  0.1007
19522W        W35996   8.052  16.229   2.830  0.1989  0.3954 -0.0463
19523W        W35997  14.922  10.884   1.983 -0.1210 -0.1046  0.0120
19524W        W35998  10.384  17.618  15.747  0.3873 -0.0748 -0.0314
19525W        W35999   6.364   6.841  15.463 -0.0941 -0.3144  0.0308
19526W        W36000   5.715   7.056   3.615  0.1686  0.0322 -0.0657
19527W        W36001  13.175   9.448   4.810 -0.3252 -0.1505 -0.2804
19528W        W36002   0.635   9.966  12.043 -0.1407  0.0458  0.1458
19529W        W36003  10.604  12.969   2.803 -0.0563 -0.2591 -0.0916
19530W        W36004  15.931   7.248   4.303  0.2720  0.0508  0.1606
19531W        W36005  13.073  16.283   5.401 -0.0039  0.0247 -0.0834
19532W        W36006   4.118   3.125  15.699 -0.2967 -0.1808  0.1585
19533W        W36007  17.280   5.565   4.030 -0.0853 -0.0529  0.1093
19534W        W36008   3.289  12.380  13.433 -0.1256  0.0487 -0.1535
19535W        W36009  13.098   0.640   3.822 -0.1768  0.2237 -0.1720
19536W        W36010   6.820  16.433  13.992  0.0391  0.4051  0.1066
19537W        W36011   7.783  17.297  13.373 -0.0491 -0.1754  0.2639
19538W        W36012   3.768   3.864   4.232 -0.1670  0.3424  0.0005
19539W        W36013   2.071   3.830   0.084  0.2262  0.2445  0.0876
19540W        W36014  15.108   1.425  16.353 -0.2712  0.0836 -0.1257
19541W        W36015  13.122  17.578  15.891  0.0748 -0.4297 -0.0518
19542W        W36016   9.405   3.593   4.793  0.1159 -0.0441  0.1519
19543W        W36017  15.809   1.634   0.017  0.2226  0.1378  0.0748
19544W        W36018  17.117   8.866   0.279  0.1477 -0.0244  0.1071
19545W        W36019   9.693   1.919   4.894  0.0043 -0.0699 -0.1192
19546W        W36020  11.601   3.739  11.662  0.0685  0.1672  0.0209
19547W        W36021   7.140   7.304  13.659  0.0331  0.0144 -0.1706
19548W        W36022  11.659   2.655   5.134  0.1063  0.3710 -0.0171
19549W        W36023   7.575  16.922   1.501  0.1328  0.1028 -0.1215
19550W        W36024   4.223  15.744  12.588  0.1147 -0.2316  0.0061
19551W        W36025   9.736  11.873  13.973  0.1972  0.3057 -0.0936
19552W        W36026  15.814   2.153  12.713 -0.1116  0.1511  0.2035
19553W        W36027  17.472  14.024   4.596 -0.0468  0.1099 -0.1759
19554W        W36028  12.277  17.537   5.939  0.0029 -0.0283 -0.0345
19555W        W36029   0.125  13.902   0.415  0.0113  0.2487  0.2974
19556W        W36030   0.955   0.163   0.883  0.2594 -0.1645 -0.0880
19557W        W36031   8.705  17.512  12.435  0.0562 -0.0380 -0.0775
19558W        W36032  11.791   3.883   4.792 -0.1038 -0.0868  0.1677
19559W        W36033  11.165   6.456   5.155  0.0041 -0.3261  0.0059
19560W        W36034   4.755   0.146   5.736 -0.0704  0.0625  0.1736
19561W        W36035  13.600   0.831   1.114 -0.0225  0.0515 -0.2144
19562W        W36036  14.857  13.772  15.698  0.1498  0.1266  0.1470
19563W        W36037   1.879   2.232   2.663  0.2597 -0.0426 -0.0328
19564W        W36038  12.370  10.264  14.975 -0.0111  0.2185  0.0821
19565W        W36039  17.076   2.792  14.185 -0.1508 -0.3967  0.0918
19566W        W36040  11.755   3.785  14.726 -0.0843  0.1080 -0.5443
19567W        W36041  14.487   8.549  16.095  0.2764 -0.0098 -0.0123
19568W        W36042   7.619  14.708   4.647 -0.0676  0.1123 -0.2897
19569W        W36043   4.375  13.291  15.177 -0.0490  0.0450  0.1334
19570W        W36044  10.695   4.793   1.294 -0.1664  0.1459 -0.1540
19571W        W36045   2.316   3.925  16.567 -0.1282 -0.0640  0.0683
19572W        W36046  12.851  16.661   1.040  0.1417  0.0739 -0.0437
19573W        W36047   6.362   6.042   4.085 -0.2354 -0.2121 -0.0442
19574W        W36048   4.785   2.998  13.150  0.3698 -0.1023  0.2010
19575W        W36049  11.586   0.171  10.584  0.0503  0.1127  0.0955
19576W        W36050   0.890   3.108   2.908 -0.1030  0.2763 -0.0978
19577W        W36051   3.066  14.424   1.796 -0.2736  0.1497 -0.0402
19578W        W36052   4.441   8.139  12.387  0.2162 -0.0664  0.0283
19579W        W36053   9.421  10.948   3.109 -0.0011  0.0401 -0.0255
19580W        W36054  15.162  13.988  13.534 -0.0310 -0.2069 -0.0389
19581W        W36055   5.435   9.523  11.336 -0.0970 -0.0269  0.0145
19582W        W36056   0.313  10.133   5.261 -0.3139 -0.0891  0.1501
19583W        W36057  11.262   3.697   0.714 -0.1639  0.2264  0.0922
19584W        W36058   8.106   6.438   2.218 -0.0521  0.0912 -0.1979
19585W        W36059  16.171  10.371   4.388 -0.0117  0.1876  0.4438
19586W        W36060   0.365   5.150  13.537  0.1507  0.1583 -0.3843
19587W        W36061   5.558   5.459   2.721 -0.2482  0.0050 -0.0298
19588W        W36062   2.139  12.487   4.271  0.0663  0.0911  0.2942
19589W        W36063  12.194  16.851   2.536  0.3003 -0.0219 -0.0764
19590W        W36064   3.400   3.936   3.343  0.1179 -0.1975 -0.1327
19591W        W36065   1.212  16.622   3.906 -0.2781 -0.0719  0.0898
19592W        W36066  14.140   1.277  12.265 -0.3031  0.1579  0.2119
19593W        W36067  11.734  12.021  16.247  0.2813  0.0049  0.0719
19594W        W36068   2.343  11.635   5.317  0.1760  0.0609  0.0736
19595W        W36069   7.932   9.906  15.633  0.1051 -0.2435  0.2960
19596W        W36070  14.345   7.531   2.447 -0.1238 -0.1194  0.0319
19597W        W36071   5.349   9.131  15.283 -0.0002 -0.0230 -0.1814
19598W        W36072   3.157   2.653  13.809  0.1348 -0.2523 -0.1531
19599W        W36073  10.615  17.727   3.046 -0.2990  0.2089  0.0662
19600W        W36074   9.419   5.014  13.038 -0.1861 -0.1284  0.1078
19601W        W36075   4.473  14.642  15.247 -0.0473  0.2643  0.3788
19602W        W36076   9.812   3.244   0.892  0.3761  0.4854  0.0541
19603W        W36077  14.331   3.579  16.849 -0.0384 -0.2979 -0.3832
19604W        W36078   8.977   6.591   2.879  0.0455 -0.2105 -0.1468
19605W        W36079  11.714   8.048   5.264  0.1727 -0.0709  0.0986
19606W        W36080  10.950   1.539   0.079  0.0319  0.0186  0.3730
19607W        W36081  10.496  10.012   3.661  0.0591 -0.3806 -0.1606
19608W        W36082   2.318  11.660  16.765 -0.0265  0.0618 -0.2154
19609W        W36083  12.448   3.796   1.453  0.1350  0.0281 -0.2861
19610W        W36084   8.330  15.156   6.220  0.1720 -0.1725 -0.1658
19611W        W36085   4.053  14.659   0.453 -0.0700  0.0494  0.1441
19612W        W36086  16.988  13.876   2.504  0.1762 -0.1055 -0.3529
19613W        W36087   7.348   5.416   1.604  0.2684 -0.2014  0.2243
19614W        W36088   7.409  12.616  12.952 -0.0010 -0.0581  0.0325
19615W        W36089   9.873   7.951  13.819 -0.2540 -0.0422 -0.2048
19616W        W36090   9.923  10.239   4.324  0.2218 -0.0370 -0.2073
19617W        W36091   9.368   2.791  14.416 -0.0854 -0.1615 -0.0265
19618W        W36092   4.453   9.791   1.326 -0.0738  0.3325 -0.1014
19619W        W36093   5.731  17.111   5.406 -0.2668  0.0898  0.0456
19620W        W36094  16.152   2.700   1.755 -0.2263 -0.1988 -0.0011
19621W        W36095   3.298  13.592   1.600  0.0902 -0.0080  0.2114
19622W        W36096  10.017  10.716  12.609 -0.1924  0.1036  0.3507
19623W        W36097  15.326  15.765   2.337 -0.0674  0.1868 -0.1455
19624W        W36098  15.482   5.243  16.307  0.1899  0.1579  0.1676
19625W        W36099  13.004   5.686   4.497  0.3971 -0.2042 -0.0791
19626W        W36100   8.226  10.448   4.152 -0.1494  0.0121  0.2306
19627W        W36101   3.028   0.823  12.103  0.0428  0.2271  0.0530
19628W        W36102  16.067   3.773   0.056  0.3430 -0.4137  0.2312
19629W        W36103  12.348   3.358  13.072  0.2728  0.0193 -0.0413
19630W        W36104  17.538  13.532  14.667 -0.0851 -0.0925  0.1566
19631W        W36105   9.503   0.782   5.576 -0.1747 -0.3863  0.2533
19632W        W36106   0.337   7.518  13.416 -0.0815  0.0678  0.0542
19633W        W36107  12.903  10.770   0.186  0.1837 -0.1337  0.0082
19634W        W36108   8.041  15.282   5.389 -0.1467  0.0286  0.0029
19635W        W36109   8.726   9.753  13.526 -0.1774  0.0154  0.0393
19636W        W36110   2.032   5.682   1.717 -0.1031  0.0329  0.2401
19637W        W36111   3.663   0.167   0.864  0.1380 -0.0977 -0.2703
19638W        W36112   3.573  16.327   2.562 -0.1633 -0.1494 -0.0420
19639W        W36113  10.213  16.843  11.361 -0.1088 -0.1607 -0.1414
19640W        W36114   1.584   1.024   3.064 -0.0251  0.1331 -0.0653
19641W        W36115   4.189   6.054   4.777  0.0394  0.1622  0.3258
19642W        W36116   8.425   3.877   4.814 -0.0829  0.1301  0.3065
19643W        W36117  11.465  17.563   2.486 -0.1683  0.0100 -0.1365
19644W        W36118   7.128   4.869   3.335 -0.5681  0.0040  0.3973
19645W        W36119   7.881   4.547  14.184 -0.0705 -0.0609 -0.0317
19646W        W36120   4.747  11.063   1.537  0.1258 -0.1037 -0.1879
19647W        W36121   5.530   1.129   2.824 -0.0013  0.0022  0.1309
19648W        W36122  17.343   2.928   1.743 -0.1348 -0.0757  0.0168
19649W        W36123  10.026  11.075  14.587 -0.2814  0.5445 -0.2192
19650W        W36124  14.489   1.628   1.738  0.0977 -0.0244 -0.1155
19651W        W36125   6.499   6.831   4.472 -0.1214  0.0807  0.1237
19652W        W36126  13.222  16.899   4.612 -0.1366 -0.0158 -0.1660
19653W        W36127   6.141  17.470  13.291 -0.0646 -0.0293  0.1104
19654W        W36128  17.403   7.342  16.750  0.1640 -0.2230 -0.3095
19655W        W36129  14.127   7.118   2.407  0.0394  0.1330 -0.0946
19656W        W36130   4.501  12.333  13.465 -0.0811 -0.2652 -0.2957
19657W        W36131  15.441   3.976   4.810 -0.0107 -0.2164 -0.0198
19658W        W36132   3.367  16.350  13.491 -0.0228  0.0910 -0.0402
19659W        W36133   3.795  11.448   5.212  0.2177  0.1576  0.1608
19660W        W36134  14.649   9.200   0.884 -0.3638 -0.1328 -0.3285
19661W        W36135  17.532  10.404  15.835  0.0234 -0.2443  0.1135
19662W        W36136   3.044  15.040  13.441  0.2096 -0.2286 -0.1894
19663W        W36137  11.973   7.442  14.244 -0.2862 -0.1312 -0.0108
19664W        W36138   5.404  16.494  14.930  0.0330 -0.2219  0.0217
19665W        W36139  16.623  12.955   3.764 -0.1489  0.1680  0.1590
19666W        W36140  14.899   7.060   5.131 -0.2427 -0.1879 -0.2196
19667W        W36141   4.771  10.777  11.701 -0.2484 -0.0542 -0.0390
19668W        W36142   2.318   5.097   4.211 -0.0814 -0.0390 -0.0246
19669W        W36143   0.527   6.936   3.896  0.1916 -0.1264 -0.0128
19670W        W36144   6.319   8.102  15.633 -0.2730  0.3086  0.1642
19671W        W36145  14.395  16.030   4.193  0.0518  0.1956 -0.0262
19672W        W36146  15.925  14.608  16.480 -0.0347 -0.1979  0.2157
19673W        W36147   9.991  15.112  14.489 -0.1256 -0.1002 -0.0486
19674W        W36148   0.808   7.924  12.859 -0.1763  0.2327  0.0456
19675W        W36149  10.785   6.234   5.451  0.0746  0.2994  0.0992
19676W        W36150  16.770   7.423  12.816 -0.0963 -0.4414  0.1722
19677W        W36151  12.730   5.031  12.133  0.0518 -0.4147  0.0869
19678W        W36152  15.539   0.550   4.789  0.0260  0.3188  0.0754
19679W        W36153   7.084   8.399   4.313 -0.0305  0.4367 -0.0804
19680W        W36154   1.858   8.980  11.402  0.0717 -0.2291 -0.3344
19681W        W36155   2.754   6.348  11.769  0.0160 -0.1483 -0.1462
19682W        W36156  16.276   8.353   2.551  0.0498 -0.1750 -0.0642
19683W        W36157  12.796   5.775  13.706 -0.2168  0.3347 -0.1237
19684W        W36158  11.248   6.182   2.081 -0.3482 -0.1699  0.0111
19685W        W36159  10.214   7.813   5.146 -0.3797 -0.1129 -0.2343
19686W        W36160   1.076   7.756   3.148 -0.2178 -0.0433  0.0123
19687W        W36161  14.330  15.728  11.163  0.3475  0.3773 -0.1789
19688W        W36162   4.998   1.582   3.846  0.2513 -0.2149  0.0110
19689W        W36163  13.657   8.413   3.873  0.0613  0.1946  0.0858
19690W        W36164  13.693   7.363   2.399  0.4269  0.1841  0.3278
19691W        W36165  12.695   6.029   0.070 -0.0205 -0.2454 -0.3568
19692W        W36166   8.850  13.448   1.009  0.1079 -0.2809  0.1402
19693W        W36167   7.754   0.069   4.059  0.0994 -0.0848  0.1521
19694W        W36168   6.571   5.089  16.486 -0.0074 -0.1960 -0.1018
19695W        W36169   6.135   6.880   1.611  0.0740 -0.1755  0.3011
19696W        W36170   4.806  12.954  11.672  0.2061  0.2183 -0.0267
19697W        W36171   4.033   4.026  16.189 -0.0064  0.2324  0.0012
19698W        W36172  16.945   8.688   1.590  0.0051  0.1469 -0.1505
19699W        W36173   9.782   9.080  12.089 -0.0533  0.1005 -0.0662
19700W        W36174  12.293   7.219  16.406  0.0135  0.1715 -0.1910
19701W        W36175   6.750   8.925  14.010  0.1097 -0.0257 -0.0178
19702W        W36176  10.240   1.233  16.426  0.1225 -0.3213  0.0439
19703W        W36177   3.898   3.299  16.179  0.0646 -0.1300  0.0111
19704W        W36178   9.578   0.988  15.306  0.3740  0.1391  0.2114
19705W        W36179   6.219   7.935  12.111 -0.0852 -0.1688 -0.2751
19706W        W36180   5.372   1.464   0.814 -0.1854 -0.0068  0.1100
19707W        W36181  17.376  15.934  14.854 -0.4489  0.1707 -0.0199
19708W        W36182   7.038   4.609  14.477 -0.1828 -0.1391  0.1172
19709W        W36183   1.253  15.099  16.399 -0.1453 -0.0443 -0.0086
19710W        W36184  15.023   3.223  15.762 -0.0910 -0.2047  0.2215
19711W        W36185  11.611  10.861  15.317 -0.1355  0.2767  0.0723
19712W        W36186   1.142  14.740  13.837 -0.0476 -0.0950 -0.1334
19713W        W36187  12.347   0.151  13.166  0.1353 -0.1555  0.0696
19714W        W36188   1.819   1.547   0.790  0.1034 -0.1618 -0.0458
19715W        W36189   8.856   8.910   1.630 -0.0487 -0.2065 -0.1371
19716W        W36190  17.639   8.521  16.100  0.0250  0.0735  0.2546
19717W        W36191   7.907  15.583   3.516  0.1076 -0.1300 -0.2436
19718W        W36192  15.124   1.394   3.663 -0.3469  0.0705  0.0398
19719W        W36193  12.961   1.468  13.898 -0.1982 -0.1825 -0.1753
19720W        W36194  10.073  16.377  12.527 -0.0661 -0.0982 -0.0453
19721W        W36195   7.198   3.411  14.808 -0.0998  0.2226  0.0744
19722W        W36196   8.301  10.873   3.170  0.1223  0.0904  0.1469
19723W        W36197  16.696  14.592  11.614  0.3317 -0.2953 -0.0264
19724W        W36198   5.278   0.167   1.322  0.2989 -0.1340  0.1889
19725W        W36199  15.091  11.737  14.106 -0.0339 -0.0580  0.0866
19726W        W36200  11.171   4.139   0.515  0.1206  0.1380  0.1751
19727W        W36201  10.831   6.188  14.357  0.0797 -0.1088 -0.1000
19728W        W36202  13.765   2.517  12.478 -0.0026 -0.2390  0.1701
19729W        W36203   5.529   1.174  14.661  0.4015 -0.0023 -0.0967
19730W        W36204   1.626  16.539   5.633  0.1198  0.0539 -0.2344
19731W        W36205  14.665  13.387   2.692  0.2715 -0.0704  0.1602
19732W        W36206   8.090  15.848  15.495  0.2071 -0.0240 -0.4118
19733W        W36207   4.192   4.648  16.353  0.0734 -0.2427  0.2787
19734W        W36208   7.362   5.573   5.449  0.3363 -0.0219 -0.2634
19735W        W36209   7.842  15.922   1.423 -0.1559  0.1834  0.0044
19736W        W36210   1.323  17.355  16.752  0.1684  0.1326 -0.1144
19737W        W36211   6.267   6.909  13.036 -0.1200  0.0066  0.0792
19738W        W36212   2.766   8.837   1.618  0.2322 -0.0245 -0.0391
19739W        W36213   2.654   3.771  11.872 -0.1806 -0.0018 -0.0762
19740W        W36214   0.582  15.784  13.425  0.0114 -0.0832 -0.0010
19741W        W36215   3.693  11.428   4.287 -0.1662  0.3533 -0.1039
19742W        W36216  16.167  12.961  13.509  0.2012 -0.1649 -0.2623
19743W        W36217  16.638   7.821  16.662 -0.0243 -0.1223  0.2911
19744W        W36218   3.505  16.200   2.057 -0.1550  0.1321  0.1046
19745W        W36219   9.540   4.661  12.074  0.1838 -0.1677  0.3619
19746W        W36220   5.604  16.539   0.546  0.1442  0.0357 -0.2660
19747W        W36221   8.094  17.118  11.847  0.0049 -0.0400  0.1288
19748W        W36222  16.139  15.311  11.806 -0.1711  0.1129 -0.1306
19749W        W36223  15.974  13.139   0.942 -0.2989 -0.0491  0.0555
19750W        W36224   3.233   2.495   2.806 -0.0261 -0.1097 -0.0606
19751W        W36225   8.883  17.175   1.037  0.0314 -0.0383  0.0624
19752W        W36226   6.771   3.503  15.739  0.0130  0.3803  0.0752
19753W        W36227  13.788   1.448   5.915  0.1281  0.1368 -0.1763
19754W        W36228  11.849   0.314  13.223 -0.1503 -0.3138 -0.3524
19755W        W36229   6.039  16.324  16.724  0.1636 -0.1130 -0.0105
19756W        W36230  12.657  11.158  14.642 -0.4099  0.1642  0.1563
19757W        W36231   3.535  12.053  13.130  0.0975  0.0755  0.1167
19758W        W36232  11.903  14.631  12.786 -0.0368 -0.1671  0.2888
19759W        W36233  13.570  15.463  13.849 -0.1282 -0.1763 -0.0861
19760W        W36234   7.144   9.895   4.181  0.0190  0.0374  0.0861
19761W        W36235   9.539  16.052   0.357  0.1642  0.1095 -0.1250
19762W        W36236   4.091   6.177   1.123 -0.0316  0.0691 -0.2082
19763W        W36237   2.993  13.024  14.319  0.1909 -0.1529  0.2494
19764W        W36238   5.868  12.485   3.205 -0.0203 -0.0183 -0.2332
19765W        W36239  16.054  10.622   1.070 -0.2266  0.1486  0.0007
19766W        W36240  13.361   7.992   5.160  0.3517 -0.0150 -0.0048
19767W        W36241   2.029   8.204   0.747 -0.0880  0.0423  0.4221
19768W        W36242   5.365  13.176  13.890  0.0154  0.1539 -0.1148
19769W        W36243  11.063  11.066  13.346  0.1544  0.3274 -0.2293
19770W        W36244   6.478  14.960  15.374 -0.0578 -0.0827 -0.1326
19771W        W36245   8.511   8.108  16.305 -0.1076  0.2206 -0.0341
19772W        W36246  11.558   2.391  16.367 -0.1052 -0.3951  0.0370
19773W        W36247  11.561   6.597   0.808  0.0204  0.2251  0.0899
19774W        W36248   7.564   8.475   1.435 -0.2644 -0.1526  0.0239
19775W        W36249   4.163   6.550   2.502 -0.1536 -0.1757 -0.1179
19776W        W36250   1.586   8.775  12.776  0.0192  0.1794  0.1449
19777W        W36251   8.597  12.024   5.733 -0.3573 -0.0888 -0.1511
19778W        W36252  14.948   3.158   1.898  0.0055 -0.2574  0.0584
19779W        W36253   9.601  12.353   3.384  0.2915 -0.1005  0.1526
19780W        W36254   7.315  17.624   2.590 -0.2814  0.1995 -0.0022
19781W        W36255  12.672  14.697  15.070  0.2165  0.0671  0.0386
19782W        W36256   3.094   9.750   0.565 -0.1178  0.0068  0.0795
19783W        W36257   7.010  17.763   2.094 -0.1110 -0.0618 -0.0974
19784W        W36258   6.522   7.298   2.117  0.1921 -0.1482  0.1187
19785W        W36259   4.146   6.199   0.257  0.1767  0.1574 -0.1374
19786W        W36260  16.430   7.068   6.323 -0.0405 -0.0059  0.0509
19787W        W36261   4.498  11.823   3.173 -0.0810  0.1078 -0.0426
19788W        W36262  16.928   9.326   2.908 -0.1100 -0.1020  0.1101
19789W        W36263  14.133  14.342   1.617  0.1514 -0.1152  0.0124
19790W        W36264   3.608   5.938  11.798  0.0172  0.0178  0.0658
19791W        W36265   7.718   7.503  12.681 -0.0253  0.1721  0.1042
19792W        W36266   1.746   4.949  14.258 -0.0021 -0.2310  0.0159
19793W        W36267  13.872   9.295   0.376 -0.1394 -0.0066  0.2889
19794W        W36268  16.207   5.796  14.712 -0.0709  0.1291  0.0819
19795W        W36269  11.130   6.361  13.863  0.0043 -0.0348  0.1134
19796W        W36270   8.720   7.022   4.808  0.3552  0.0428  0.0751
19797W        W36271   2.588   8.104  12.036 -0.1600 -0.1244 -0.0848
19798W        W36272  12.959   0.562  15.278 -0.1161 -0.3325 -0.0981
19799W        W36273  13.095   3.756   3.129 -0.2377 -0.1094  0.1305
19800W        W36274   6.730   2.148   2.293 -0.0955 -0.1423 -0.1319
19801W        W36275  11.353  17.564   4.325  0.0338 -0.0453 -0.3663
19802W        W36276   1.641  14.155   4.593 -0.2387 -0.2258  0.1716
19803W        W36277   0.322   8.097  11.970  0.0322 -0.0720  0.0740
19804W        W36278   8.957   6.096   5.796 -0.2383  0.1300 -0.2370
19805W        W36279  12.743   6.140   4.762 -0.0810  0.2037  0.0571
19806W        W36280  14.570  16.567   1.540 -0.1007 -0.0021 -0.2269
19807W        W36281  16.853   8.790  13.440  0.0771  0.0825  0.0350
19808W        W36282   4.961  14.881  11.705  0.3220 -0.1064  0.1140
19809W        W36283   4.245   1.166   3.098  0.0803 -0.1314  0.0637
19810W        W36284  12.509  10.699  14.371 -0.3836  0.0842  0.0172
19811W        W36285   4.985   5.286  11.743  0.0130 -0.1045  0.0551
19812W        W36286  10.352   3.448  15.523 -0.1324  0.0729 -0.0209
19813W        W36287  16.622  17.120  15.721  0.0801  0.4429 -0.1877
19814W        W36288  16.731  13.776  15.164  0.2813 -0.2230  0.0645
19815W        W36289  15.181  14.079   2.414 -0.2017  0.1741  0.2136
19816W        W36290  10.738   4.496  13.337 -0.1210 -0.1876  0.2338
19817W        W36291   3.774  13.838  12.049  0.1006  0.1770 -0.5810
19818W        W36292   2.470   3.711   4.685 -0.2294  0.1372 -0.3571
19819W        W36293  13.509  11.763  14.918  0.1132 -0.3435 -0.1303
19820W        W36294   5.348  10.105  15.014 -0.1100  0.3330 -0.1587
19821W        W36295  12.865  16.723   3.198  0.1122 -0.1347 -0.0252
19822W        W36296   9.391  11.026   1.009  0.0384 -0.1990  0.3962
19823W        W36297  12.003   4.336  13.804 -0.3060 -0.0002 -0.3392
19824W        W36298  12.147   7.134   1.598 -0.3339 -0.0264 -0.1008
19825W        W36299  15.273   0.979  14.468 -0.2283 -0.2866  0.3902
19826W        W36300   0.368   7.930  12.468  0.0133  0.0558  0.2642
19827W        W36301   0.539   2.596  12.911  0.1761 -0.0010  0.0132
19828W        W36302   3.739  10.895  14.851 -0.1066 -0.1090 -0.2557
19829W        W36303   8.967   9.534  15.079 -0.0336 -0.0405 -0.0171
19830W        W36304  12.176  13.123  15.272  0.0366 -0.0460  0.2938
19831W        W36305  14.945   9.739   1.069 -0.2466  0.1553  0.1961
19832W        W36306   7.841  16.786   4.080  0.2421 -0.1327 -0.1436
19833W        W36307   1.100  11.603  14.146  0.2191 -0.0777 -0.1848
19834W        W36308  13.769   7.273  13.457 -0.2137  0.2629 -0.0579
19835W        W36309   6.202  13.169  14.671 -0.3597  0.1590 -0.2947
19836W        W36310  13.309  17.233   0.666 -0.0411 -0.0581 -0.1516
19837W        W36311   0.776   1.723  11.796  0.1722  0.0826 -0.1701
19838W        W36312   6.485   8.524   3.312 -0.5359  0.2068 -0.1191
19839W        W36313  15.457  11.050   1.976  0.2294 -0.0541  0.1224
19840W        W36314  16.990  14.739  12.767  0.1991  0.0023 -0.0261
19841W        W36315   4.222  16.916  13.228  0.0952  0.0734  0.0405
19842W        W36316   0.310   1.638   5.669  0.0123  0.1003 -0.1543
19843W        W36317  16.161   1.912  12.979 -0.2219 -0.1703  0.1836
19844W        W36318  15.362   4.721   5.523 -0.0412 -0.0693 -0.1533
19845W        W36319   5.593  11.216   1.693 -0.0273 -0.4149  0.1210
19846W        W36320   7.527  13.376  12.442 -0.2618  0.0153  0.1276
19847W        W36321   8.404   2.131  14.614  0.0040  0.1651 -0.2050
19848W        W36322   3.569   2.354  15.295 -0.1698  0.4033 -0.4885
19849W        W36323   7.625   9.539  14.538 -0.0334 -0.2173  0.1205
19850W        W36324  16.711  15.190  12.787 -0.0378  0.1224  0.0122
19851W        W36325   5.662  13.878   5.017  0.0812  0.0691  0.0122
19852W        W36326   6.210   2.459   3.887 -0.0848  0.2140 -0.2431
19853W        W36327  16.357   5.057   2.940 -0.0014  0.1494  0.1766
19854W        W36328  13.787   4.865  14.609  0.0941  0.1152 -0.2908
19855W        W36329   4.004  15.803   3.370 -0.0755 -0.3100  0.1566
19856W        W36330  13.925  17.502  12.940  0.2157 -0.0402  0.4002
19857W        W36331   7.035   0.458  16.286  0.0423 -0.0854 -0.2026
19858W        W36332   5.679   7.362   1.106 -0.0871 -0.2013  0.0474
19859W        W36333  17.679   1.103   2.097  0.0670  0.3442  0.0335
19860W        W36334   1.240  11.704   3.057 -0.0348  0.1923  0.2267
19861W        W36335   9.004   1.714   4.375  0.2063 -0.0658  0.1377
19862W        W36336   8.469   5.180   0.896  0.0714  0.0767 -0.2296
19863W        W36337  12.112  12.726   0.938  0.1504 -0.1096  0.0637
19864W        W36338  15.647   9.119  13.685 -0.0189 -0.1579  0.2562
19865W        W36339   6.335  15.704   5.641  0.1198  0.1227 -0.0930
19866W        W36340   8.189   4.006   3.951  0.0587 -0.0242  0.2808
19867W        W36341  12.246   6.826  12.421 -0.1335  0.1482 -0.0644
19868W        W36342   2.445  14.028   5.418  0.0672  0.1008  0.3009
19869W        W36343  17.643   6.286  15.927 -0.0531 -0.2852  0.0393
19870W        W36344   2.386   1.385   3.400  0.3303 -0.1883  0.2323
19871W        W36345  17.354  15.478   2.533  0.2792  0.0074 -0.1499
19872W        W36346   9.102  16.435  15.836 -0.1343 -0.0477  0.1597
19873W        W36347   4.965  12.422   2.945  0.1014 -0.0831 -0.0740
19874W        W36348   8.431   9.661   1.338 -0.2335 -0.0969 -0.1667
19875W        W36349  17.528  16.855  13.477 -0.1213  0.1456  0.1168
19876W        W36350  10.692   6.344  12.981  0.0711 -0.0516 -0.1113
19877W        W36351  14.970   8.997   2.545 -0.1109  0.1290 -0.0222
19878W        W36352  15.645   1.616  13.547  0.0576 -0.1758 -0.0199
19879W        W36353   6.657  13.749  16.578  0.6042 -0.3901 -0.1690
19880W        W36354  10.573  10.856  13.386 -0.0264  0.0703  0.0628
19881W        W36355   9.632   4.260   2.430  0.0501  0.1749 -0.2705
19882W        W36356   4.498  12.926   2.816 -0.0101  0.1851 -0.4184
19883W        W36357   9.620  16.039   4.686 -0.1127 -0.0355  0.2449
19884W        W36358   4.493  10.689   1.599  0.2120  0.1254  0.0357
19885W        W36359   8.274   7.995   4.791 -0.0920  0.0295  0.0580
19886W        W36360   4.222  12.748  10.622  0.0207 -0.1597 -0.5360
19887W        W36361  15.997  11.112   1.458 -0.0498  0.0543 -0.3022
19888W        W36362   3.718   4.323   1.100  0.1380  0.1825 -0.1480
19889W        W36363   9.214   8.524   5.195  0.0354  0.3406 -0.1209
19890W        W36364  13.304  13.575  12.319  0.0953 -0.2370  0.2527
19891W        W36365  12.454  10.346   1.438  0.1916 -0.0677  0.0734
19892W        W36366   6.160   6.242   2.327  0.0682 -0.2786  0.2089
19893W        W36367  16.508   3.869  15.097 -0.2075  0.2555 -0.0869
19894W        W36368   1.100  13.663   2.871  0.2338  0.0256  0.2439
19895W        W36369  10.976  12.296  13.812  0.0315 -0.2304 -0.1859
19896W        W36370  15.978   8.181  13.521  0.0606 -0.0969  0.0121
19897W        W36371   2.322  14.034  16.437 -0.1521 -0.0667  0.0498
19898W        W36372  11.907   4.647  14.692 -0.0811 -0.1045 -0.0068
19899W        W36373  12.575   8.399   1.258 -0.0037  0.0405  0.2308
19900W        W36374   4.050  12.201   1.196 -0.0656 -0.0617  0.2580
19901W        W36375   5.884  16.272   0.924  0.3632 -0.1446  0.0962
19902W        W36376   6.046  11.248   2.380 -0.2590 -0.0319 -0.1553
19903W        W36377  17.205   6.674   2.225  0.0026 -0.0699  0.0307
19904W        W36378  15.148  12.697   5.393  0.0268  0.0103 -0.3741
19905W        W36379  15.538  14.541   2.929  0.0781 -0.3393 -0.0503
19906W        W36380   1.357   9.047  15.347  0.0148 -0.0875 -0.4801
19907W        W36381  16.433  11.799  11.734 -0.3056  0.2605 -0.1872
19908W        W36382   6.190   6.915   3.535 -0.0558  0.1294  0.0961
19909W        W36383   0.267  17.796   1.468  0.0991 -0.3155 -0.2902
19910W        W36384   9.528  14.379  12.070  0.0117  0.2950  0.0826
19911W        W36385  15.862   3.075   3.845 -0.0921  0.1023 -0.1971
19912W        W36386  13.792  11.981  14.528 -0.1682 -0.3375  0.0602
19913W        W36387   4.780  12.940   0.124 -0.1465 -0.1364  0.1107
19914W        W36388   1.356   5.561   0.863 -0.0008 -0.0814  0.4110
19915W        W36389  11.452   4.268  12.972 -0.0717 -0.4615  0.3968
19916W        W36390   0.089  14.495   6.054  0.1477  0.0849  0.4314
19917W        W36391  10.355  17.737  12.328 -0.2261 -0.1433 -0.1095
19918W        W36392  10.687  14.449  14.258 -0.3099  0.0509 -0.1685
19919W        W36393  10.265   8.560  12.725  0.1166 -0.0178 -0.2676
19920W        W36394  11.971   6.728   5.753  0.1033  0.0943 -0.0829
19921W        W36395  10.791   8.997   5.401  0.2048 -0.1319 -0.0845
19922W        W36396  16.711   3.415   6.121  0.1247 -0.3715  0.5511
19923W        W36397   1.964   3.605  14.920  0.1397 -0.0360 -0.1734
19924W        W36398  14.075   0.816   4.190  0.2306 -0.0181 -0.1296
19925W        W36399   3.543   6.072   5.029 -0.1683  0.1054  0.1177
19926W        W36400   4.315  11.235   3.507  0.0411 -0.0966 -0.0912
19927W        W36401  13.909   5.453  13.930 -0.0669  0.3335 -0.0234
19928W        W36402   7.817  13.078  13.334  0.2140  0.3093  0.0244
19929W        W36403   4.824   7.780   2.432  0.0671  0.2390  0.3815
19930W        W36404   6.587   9.855   0.201  0.0840  0.0338  0.0061
19931W        W36405   6.785   9.926  13.131 -0.1572  0.2631 -0.1506
19932W        W36406   5.778   4.681   3.384  0.1492 -0.1354 -0.0840
19933W        W36407  14.288   2.167  16.185 -0.1215 -0.0269  0.0728
19934W        W36408   3.698  10.315  12.050  0.4820 -0.0502  0.0227
19935W        W36409   0.950  16.507   5.028  0.0585 -0.1326 -0.1558
19936W        W36410   1.194  15.742  13.140 -0.1477 -0.0466 -0.1261
19937W        W36411   7.460   0.018   1.371  0.0021  0.0110 -0.0392
19938W        W36412  16.434   0.140   1.019  0.0622  0.3066 -0.2688
19939W        W36413  10.826  10.013  12.869 -0.0906  0.0020  0.0377
19940W        W36414   5.811   2.568  11.796 -0.0723 -0.1356 -0.1523
19941W        W36415  13.087   2.418  14.114  0.2014 -0.2649  0.0825
19942W        W36416   4.605   4.492   2.802  0.0347 -0.1570  0.2453
19943W        W36417   9.924   5.558   5.562  0.0315 -0.0629  0.0144
19944W        W36418   4.697   4.355  14.688 -0.1662  0.4366  0.2682
19945W        W36419   7.414   2.029  16.602  0.1511 -0.0156 -0.2191
19946W        W36420  14.320   1.362  14.531  0.2297 -0.1476  0.1609
19947W        W36421   7.751   1.399  14.379  0.1484 -0.3139  0.0217
19948W        W36422   3.044   1.213   0.025  0.1311  0.2127 -0.1146
19949W        W36423   0.139  14.141   4.854  0.2250  0.0988 -0.0536
19950W        W36424   9.058  16.134   0.632  0.1351 -0.0976 -0.1010
19951W        W36425   1.082  15.691   2.787 -0.1469  0.1135 -0.0518
19952W        W36426  16.705  17.082   1.784  0.2102 -0.1291 -0.0588
19953W        W36427  11.255   8.340   5.038 -0.1990  0.2033  0.1080
19954W        W36428  14.161  17.659   3.195  0.0032  0.0768  0.3034
19955W        W36429   9.900   4.223   4.761  0.2096  0.1951  0.2279
19956W        W36430   3.484   6.214   1.664 -0.2224  0.2322 -0.1060
19957W        W36431  15.733   7.972   2.222 -0.0828 -0.0737  0.1960
19958W        W36432   4.352   0.315  16.754 -0.2018 -0.1212  0.0765
19959W        W36433   3.519  13.146  16.299 -0.2121 -0.0627 -0.4449
19960W        W36434   8.153   5.877  15.183 -0.0760  0.1416 -0.0402
19961W        W36435  12.368   3.663   0.444  0.0083 -0.0321 -0.0656
19962W        W36436   6.671   6.124   3.272  0.1945  0.2388 -0.0737
19963W        W36437  14.261  10.973   1.061 -0.0303 -0.0562 -0.0828
19964W        W36438   9.452  14.471  15.293 -0.0730  0.2022 -0.0868
19965W        W36439  13.287   5.351  13.003 -0.1618  0.2655 -0.2308
19966W        W36440   7.958  13.186   2.870 -0.1473  0.0418 -0.0022
19967W        W36441   5.921   5.865   4.487  0.1351  0.2152  0.0011
19968W        W36442   6.513  13.573   4.391  0.1035  0.0495  0.1637
19969W        W36443   9.012   9.565   2.951  0.1469 -0.2446 -0.0189
19970W        W36444  14.751  16.990   5.287 -0.0869 -0.3277 -0.2066
19971W        W36445   7.437   9.343   3.433 -0.1781  0.2810 -0.2440
19972W        W36446   1.363  12.204   0.540  0.3204  0.1293  0.0414
19973W        W36447  14.115   3.293  15.499 -0.3996  0.0573 -0.0104
19974W        W36448  15.938   7.090   1.807  0.1475  0.2773 -0.0845
19975W        W36449   3.525   4.527   6.504 -0.0243  0.0665  0.0072
19976W        W36450  16.624   8.290   0.514 -0.2160 -0.3566  0.2264
19977W        W36451   4.703  11.636  11.350  0.0481  0.2128 -0.2038
19978W        W36452  13.568   2.623   4.874  0.0821 -0.1145 -0.1352
19979W        W36453  13.827   6.427  12.093 -0.0971 -0.0624 -0.1625
19980W        W36454   3.846  14.635  16.879 -0.0443  0.0931 -0.1238
19981W        W36455  14.107  17.748   2.292  0.0159 -0.0890  0.1678
19982W        W36456  11.812   5.403  12.273 -0.0468 -0.1320 -0.2510
19983W        W36457   9.629   5.066   0.836 -0.1272 -0.1370 -0.2478
19984W        W36458  11.782  13.282   2.912 -0.1813  0.0069  0.0313
19985W        W36459  10.271   4.000  15.732 -0.1353  0.0852  0.1846
19986W        W36460   5.865   9.487  16.071  0.2211 -0.0185  0.2114
19987W        W36461   2.712  13.730  13.610 -0.0269 -0.1448  0.1252
19988W        W36462   3.734  15.081   1.454  0.1379  0.1879  0.0523
19989W        W36463   9.452   1.970   1.333  0.3028  0.1799 -0.0481
19990W        W36464  11.487   4.079  12.197  0.2346  0.2800 -0.1428
19991W        W36465   3.228   6.178   2.164 -0.0320 -0.1354 -0.1323
19992W        W36466  10.991   2.470   2.918  0.0663  0.1112 -0.0682
19993W        W36467   1.079  10.969  13.285  0.1404  0.3170 -0.1380
19994W        W36468   4.670   9.820  16.368  0.1564 -0.0699 -0.1010
19995W        W36469   0.101  15.513  15.666 -0.1187  0.0517  0.3347
19996W        W36470   8.226   5.959   0.050  0.0239 -0.0870 -0.3659
19997W        W36471  10.255   2.778   3.276  0.2329 -0.4370  0.1884
19998W        W36472  10.494   5.303   0.651 -0.4269 -0.1060 -0.0251
19999W        W36473  12.652   9.288   0.930 -0.0682 -0.1711 -0.0171
20000W        W36474  14.867   8.750   0.152  0.0126 -0.0014 -0.3069
20001W        W36475  13.194   2.933  12.767  0.2374 -0.0369 -0.2506
20002W        W36476  11.279  11.647   1.557 -0.0420 -0.1332  0.1583
20003W        W36477   1.722  15.949   1.763  0.0943 -0.0990  0.0919
20004W        W36478  10.017   1.030   3.762  0.0248 -0.1630 -0.2551
20005W        W36479  15.920  14.295  14.001 -0.0624  0.0835  0.2027
20006W        W36480   1.186  11.590   3.962 -0.1712  0.3170  0.1373
20007W        W36481  17.489   5.748  13.548  0.1687  0.1479  0.1381
20008W        W36482  11.911   7.817  16.385 -0.1271 -0.0442  0.0532
20009W        W36483  12.767   5.062   3.349 -0.0856  0.1437  0.2572
20010W        W36484  15.075  12.101  15.247 -0.3066 -0.0618  0.2689
20011W        W36485  12.487   2.146   5.752 -0.0750  0.1846  0.1393
20012W        W36486  11.612   1.629   3.906  0.2272  0.0604  0.0066
20013W        W36487   6.628   7.268   3.688 -0.0076  0.2033  0.1740
20014W        W36488  12.160   8.494   0.504 -0.1610 -0.1954  0.1835
20015W        W36489  15.705  11.708   4.247  0.1633 -0.0848  0.0754
20016W        W36490   0.295  17.490  12.765  0.0958  0.1190 -0.1389
20017W        W36491  17.665  10.039  11.770 -0.0903  0.0406 -0.1946
20018W        W36492   3.933  10.426  13.127  0.1708 -0.0121  0.1217
20019W        W36493  12.895   8.201   2.658 -0.1032  0.1773 -0.0257
20020W        W36494  17.796   8.326   2.530 -0.1326  0.1424 -0.0911
20021W        W36495  11.459  15.695   3.602  0.0268 -0.0918  0.2711
20022W        W36496   4.087  11.530   0.052  0.4310  0.0845 -0.1679
20023W        W36497  12.197   3.659  11.893  0.2826 -0.1081  0.0917
20024W        W36498  12.477  15.651   4.283  0.1373 -0.1449  0.0432
20025W        W36499   8.085  17.547   3.389  0.0886  0.1024  0.0581
20026W        W36500   8.184   9.406  12.111  0.0804 -0.4144 -0.1854
20027W        W36501   8.603   1.446  14.559 -0.3416  0.3625 -0.2916
20028W        W36502  15.978  14.101   1.429 -0.0632  0.0329  0.2620
20029W        W36503   7.707   4.108  14.842  0.1539 -0.0872 -0.0330
20030W        W36504  16.694   2.891   6.754  0.2586 -0.1934  0.2439
20031W        W36505   1.301   6.463   0.310 -0.2120 -0.0920 -0.4433
20032W        W36506  14.900   6.033  16.348  0.1411 -0.0114  0.3376
20033W        W36507   8.656  17.504  11.940 -0.2808  0.2385 -0.3549
20034W        W36508   1.731  10.253   1.215 -0.0482 -0.4089  0.2768
20035W        W36509   2.848   3.237   1.405  0.0790  0.1543  0.0243
20036W        W36510  10.880   7.805  12.291  0.0576  0.3163 -0.1410
20037W        W36511  10.669   2.708  16.696  0.0839 -0.1184 -0.2283
20038W        W36512   1.078  10.814   4.522 -0.1761 -0.0336 -0.0230
20039W        W36513  17.056   9.679   1.307  0.2002  0.0621  0.0090
20040W        W36514  16.321   1.698  12.052 -0.3041 -0.0744  0.0614
20041W        W36515  16.952  17.331  12.942  0.0318 -0.0352  0.5085
20042W        W36516  12.380   2.493  12.771  0.3536 -0.0803  0.1028
20043W        W36517  16.918   0.921  15.446 -0.0400 -0.0365  0.0045
20044W        W36518  12.006  16.901  15.944  0.0209 -0.2909  0.1323
20045W        W36519   5.804  15.509  16.638  0.1908 -0.0321  0.2332
20046W        W36520   1.936   2.648   2.226 -0.3100  0.1617  0.0255
20047W        W36521   7.477   2.854   4.608 -0.1130 -0.1595  0.0366
20048W        W36522   1.359   0.559  14.314  0.2486  0.0317 -0.1429
20049W        W36523   2.924   4.449  14.270  0.1191 -0.2775 -0.1051
20050W        W36524  15.280  10.499  12.592  0.0563 -0.1232 -0.0276
20051W        W36525   2.699  14.697  16.190  0.2920 -0.0602  0.1671
20052W        W36526  14.971  16.870   1.430 -0.1304 -0.2110 -0.1919
20053W        W36527  11.613   4.820  16.616 -0.0913  0.0776  0.2812
20054W        W36528   0.954   2.494   4.222 -0.0699 -0.0361 -0.0424
20055W        W36529  10.122   0.305  12.813 -0.0951  0.0328 -0.3161
20056W        W36530   2.521   2.615  11.797  0.0484 -0.4085  0.3360
20057W        W36531   7.123   8.007  16.471 -0.0931  0.1336 -0.0098
20058W        W36532   9.335   0.675  16.740 -0.0805  0.0465  0.0810
20059W        W36533  17.512   0.762   5.692  0.0083 -0.3023  0.0439
20060W        W36534   8.837   5.904   3.818 -0.0836 -0.0615 -0.3174
20061W        W36535  17.333  16.258  16.047  0.0357  0.2125  0.0721
20062W        W36536  11.143  15.321   3.781 -0.1172 -0.0166 -0.3101
20063W        W36537   9.207   7.882   3.855 -0.2010  0.2544 -0.0990
20064W        W36538   4.784   2.196   5.059  0.3145 -0.0736 -0.2747
20065W        W36539  12.253   3.671   6.399 -0.3941 -0.2163  0.3094
20066W        W36540   4.150   4.733   0.326 -0.0077 -0.0137  0.0630
20067W        W36541   4.327  12.720   4.305 -0.1175 -0.3429 -0.2323
20068W        W36542   5.125   0.226   4.903 -0.0760 -0.0849 -0.0479
20069W        W36543  16.605   9.920  11.364  0.5008 -0.0841 -0.0845
20070W        W36544   5.160   8.832  14.924  0.0815 -0.1112 -0.0461
20071W        W36545   7.656   7.262  13.211 -0.1635 -0.1160 -0.0060
20072W        W36546   7.639   9.797   2.285  0.1204 -0.0274  0.0013
20073W        W36547  15.579   7.517   1.856  0.1168  0.3400 -0.1763
20074W        W36548  14.775   2.492   2.736  0.0276  0.0263  0.2512
20075W        W36549  16.359   2.615  15.498  0.4501  0.0871 -0.3289
20076W        W36550  13.798  13.658   3.810  0.1224 -0.1898  0.0035
20077W        W36551  10.422  16.135  12.249 -0.0297 -0.0575 -0.0343
20078W        W36552  13.082  15.369  14.647  0.0154  0.2156 -0.0989
20079W        W36553  13.766  17.309  15.186  0.2072 -0.0123 -0.0854
20080W        W36554  15.514   0.374   4.282  0.0581  0.0420 -0.1766
20081W        W36555  10.957  11.194   5.729 -0.1731 -0.3871 -0.0119
20082W        W36556  16.065   1.760   1.729  0.1639  0.1267 -0.2490
20083W        W36557  13.809   2.253   6.016  0.1008 -0.1219 -0.0776
20084W        W36558   5.730   9.390  13.872  0.0657 -0.0863 -0.0828
20085W        W36559   1.930   8.927  13.837  0.1595 -0.0971  0.1085
20086W        W36560   0.621  12.325   3.237  0.1098 -0.0063  0.0864
20087W        W36561   2.487  15.323   5.437  0.1505  0.3246  0.0692
20088W        W36562  10.162  11.831   5.431  0.0408 -0.1176  0.4222
20089W        W36563   4.904  10.561   3.294 -0.2139  0.0126 -0.0060
20090W        W36564   4.158   5.174   0.531 -0.3545 -0.3075  0.1721
20091W        W36565  11.483   0.733  15.231 -0.1774 -0.1438  0.1410
20092W        W36566   5.372  13.857   3.392 -0.1013  0.1181  0.2405
20093W        W36567  17.671  14.861  14.477  0.0052 -0.0068  0.0731
20094W        W36568  13.957  14.035  11.753  0.0484  0.0628 -0.2253
20095W        W36569   0.951  14.748  14.754 -0.1570 -0.1610  0.0731
20096W        W36570   5.283  15.785   4.513  0.2228  0.0864  0.1639
20097W        W36571   2.153   6.484  15.359  0.0390  0.2284  0.0964
20098W        W36572   0.675  10.876   3.388  0.0855 -0.0193  0.1404
20099W        W36573   7.405  16.138   1.249  0.1365  0.2038  0.1035
20100W        W36574  11.920  13.975  12.198  0.2057 -0.1144 -0.0135
20101W        W36575   5.977  12.112   4.248  0.2861 -0.0390  0.3618
20102W        W36576   9.975  12.934  16.354  0.0019 -0.2370 -0.0092
20103W        W36577   5.258   4.090  11.856  0.0033  0.3162  0.0308
20104W        W36578   3.964   3.328   2.076  0.0764 -0.2596 -0.0127
20105W        W36579   1.288  11.874   1.685 -0.1636  0.4946  0.0044
20106W        W36580   5.461  16.655   2.938  0.0195  0.0025 -0.3167
20107W        W36581   8.743   7.720   3.818 -0.1559  0.0821  0.1263
20108W        W36582   0.416   5.064   3.750 -0.2318  0.0997 -0.1922
20109W        W36583   4.708   7.655   4.395 -0.0760 -0.2401 -0.1823
20110W        W36584  17.795  16.928   4.130  0.1062 -0.3403  0.0131
20111W        W36585   1.593  13.501   2.996  0.0931 -0.1515 -0.0500
20112W        W36586  16.930   2.254   1.490 -0.1069  0.2238  0.1703
20113W        W36587   1.343  15.252  12.948  0.0759 -0.2479 -0.0847
20114W        W36588   6.511   7.976  14.585 -0.0505  0.0707  0.1250
20115W        W36589   6.295  10.860   0.071 -0.0070 -0.2848 -0.0876
20116W        W36590  13.465   2.720   0.254 -0.2340  0.1617  0.3379
20117W        W36591  16.844   3.950   4.394 -0.1220 -0.3485  0.0141
20118W        W36592  14.897   9.481   1.748  0.0250  0.1265  0.2140
20119W        W36593   6.618  12.185   2.410  0.2113 -0.0645  0.2690
20120W        W36594  12.762  12.198  16.885  0.0622  0.1951 -0.2086
20121W        W36595   3.093  17.263  14.518 -0.1766  0.1429  0.1577
20122W        W36596   2.952   5.946  16.560  0.1207 -0.0816  0.0827
20123W        W36597   3.181  13.966   0.465 -0.1494  0.5824  0.1255
20124W        W36598   2.509  16.101  13.756 -0.1876 -0.1417 -0.2250
20125W        W36599   3.125  10.767  11.348 -0.2793  0.1781  0.0837
20126W        W36600   9.512   3.442  13.608  0.0883 -0.0626 -0.0681
20127W        W36601  16.842   0.172  11.712 -0.3266 -0.0325 -0.0455
20128W        W36602   4.028  13.775  13.815 -0.3611 -0.0955  0.0217
20129W        W36603  10.066  12.400   2.615  0.1211  0.0723 -0.1410
20130W        W36604   5.406   2.925   0.486  0.0217 -0.0953 -0.0407
20131W        W36605   8.679  14.660  14.164  0.0220 -0.2077  0.0352
20132W        W36606  17.429  12.596   3.733 -0.0977  0.2865 -0.0604
20133W        W36607  14.337   9.180  13.635 -0.0865 -0.3004  0.0562
20134W        W36608   9.716  15.622   4.386 -0.2342  0.0058  0.0541
20135W        W36609  17.199   7.506  13.220  0.2638  0.2271 -0.1591
20136W        W36610   6.798   4.842  13.747 -0.0300 -0.1560  0.2459
20137W        W36611   2.031  11.060   2.265  0.2184  0.1234  0.0986
20138W        W36612   1.938   8.619  14.730 -0.0267  0.0416 -0.1070
20139W        W36613   2.244  15.324  14.198  0.2686  0.2222  0.0047
20140W        W36614   8.218  10.772   2.599  0.1533  0.0865 -0.2183
20141W        W36615   1.870  10.625  15.888  0.1328 -0.0414  0.0468
20142W        W36616  11.618  16.416   0.318 -0.1224  0.0504  0.0599
20143W        W36617  11.599  13.654   0.445 -0.0708  0.1498  0.0330
20144W        W36618   3.194   9.294   4.056  0.1286 -0.0241  0.0360
20145W        W36619   8.418   3.132   0.224  0.1795 -0.1978 -0.3364
20146W        W36620  10.263   3.946  16.721 -0.0464  0.0076  0.1277
20147W        W36621   3.927   0.624   2.437  0.2096 -0.1271  0.0494
20148W        W36622  14.158  13.159   4.045  0.0614 -0.0765 -0.3915
20149W        W36623  16.246   3.639  15.912  0.3009  0.4783  0.0570
20150W        W36624  15.304  15.554  13.063 -0.0813  0.1687  0.0619
20151W        W36625  11.446  12.900  15.838 -0.1639  0.1055  0.0469
20152W        W36626  11.774  12.835  15.460 -0.1696 -0.0052  0.0001
20153W        W36627   5.471  10.016  13.155  0.0132  0.0826 -0.3712
20154W        W36628   9.570  14.520   1.274 -0.0184 -0.0068 -0.2194
20155W        W36629  12.653  12.818   3.469  0.4698  0.2117 -0.2595
20156W        W36630   2.277  12.106  12.879  0.0062  0.0164 -0.1719
20157W        W36631   7.161   6.773  11.896 -0.1081 -0.0796  0.0526
20158W        W36632   2.079  10.891   1.340  0.2457  0.1791  0.1379
20159W        W36633   2.828   3.585  15.384 -0.1463 -0.2443  0.2753
20160W        W36634   9.725   2.194  12.264 -0.0345  0.2149  0.1589
20161W        W36635   3.625  16.263  13.909 -0.1026 -0.0157 -0.0821
20162W        W36636   6.688   1.206  15.183 -0.0214 -0.1936  0.0308
20163W        W36637   9.106  13.631   0.589 -0.1160 -0.0386  0.3223
20164W        W36638   2.245   6.560   5.519  0.0367 -0.1603  0.0629
20165W        W36639   9.404   5.714  15.609 -0.1584  0.2288  0.3055
20166W        W36640   7.249  12.021  14.699  0.2942 -0.1828  0.0743
20167W        W36641   6.085  13.660   4.024  0.0539 -0.1355 -0.1144
20168W        W36642  15.682   6.783   0.285  0.0546  0.2193 -0.1142
20169W        W36643  11.768   5.815   0.491 -0.1883  0.3178  0.1691
20170W        W36644  11.501   5.866   0.068  0.2828 -0.0410 -0.0981
20171W        W36645  11.392   5.967  13.618  0.0904 -0.0666 -0.2784
20172W        W36646   9.218  15.533  14.650  0.1233  0.1148  0.0008
20173W        W36647  16.223  12.707   0.905 -0.0428  0.0448  0.0329
20174W        W36648   5.581   1.246   4.552  0.0630  0.2884  0.2412
20175W        W36649   1.848  10.990   4.100 -0.3058  0.0807 -0.0900
20176W        W36650   7.763  12.949  12.165  0.1141  0.1781 -0.1867
20177W        W36651  14.358   9.644  12.930 -0.1138  0.1968 -0.1838
20178W        W36652   4.065   2.846   0.048  0.0130  0.0359  0.1933
20179W        W36653   8.994  10.715  14.061 -0.2869  0.2997  0.1884
20180W        W36654   1.430  14.237  12.962  0.0350 -0.0407  0.0018
20181W        W36655   8.492  13.198  11.903  0.0616 -0.1613 -0.3546
20182W        W36656   4.430  16.758  10.862  0.1458  0.0962 -0.2126
20183W        W36657   6.729  15.576  16.401 -0.3147 -0.1881 -0.2566
20184W        W36658   2.442   3.852   1.249  0.0718  0.1636  0.3388
20185W        W36659  16.738  10.183  16.386 -0.1823 -0.0988 -0.1206
20186W        W36660  16.437   3.030  13.496  0.1775 -0.2738 -0.1873
20187W        W36661   6.025   8.312   3.100  0.1684 -0.2530  0.0986
20188W        W36662  15.751  11.026   2.517 -0.3900 -0.2188  0.0738
20189W        W36663  16.256  16.168  12.907 -0.4092  0.2577 -0.0871
20190W        W36664   1.893   9.478   2.453  0.0539 -0.2817  0.1830
20191W        W36665  11.344   9.209  13.303 -0.2497  0.1717 -0.0975
20192W        W36666   0.272   9.054   0.035  0.0893 -0.0317  0.4078
20193W        W36667   5.227   0.215   6.031 -0.3704 -0.0276  0.1837
20194W        W36668   8.454   5.372   3.201  0.2775  0.3065  0.1315
20195W        W36669   0.705   6.108  14.603  0.0793  0.3636 -0.1297
20196W        W36670  16.710   9.517   3.384 -0.1131  0.2237 -0.0017
20197W        W36671  15.480   0.346   5.691  0.0365 -0.1413  0.0245
20198W        W36672   1.901  14.792  12.794  0.1099 -0.3443 -0.2148
20199W        W36673  14.791  15.226  12.112  0.1302 -0.0742  0.0808
20200W        W36674   4.092   7.549   3.811  0.4600  0.1973  0.3765
20201W        W36675   0.255   2.808  16.341  0.0423 -0.1275  0.0009
20202W        W36676   6.169  10.658  13.104 -0.2049  0.2210  0.2192
20203W        W36677   1.921   5.660  13.327  0.0402  0.0199 -0.1445
20204W        W36678   9.201  12.686   2.585  0.0213  0.2160  0.0060
20205W        W36679  11.940   2.490   5.645 -0.0191 -0.1961 -0.0579
20206W        W36680  16.560   0.585   3.424  0.0859 -0.3834  0.4117
20207W        W36681   6.993   7.589   3.918 -0.0145  0.2105 -0.1396
20208W        W36682   2.844   7.414   1.330  0.0618  0.1049 -0.2001
20209W        W36683   9.696   8.354   0.786 -0.3953  0.1207 -0.0253
20210W        W36684   1.837  11.873  12.662  0.0771  0.0904  0.0553
20211W        W36685  13.845   2.235  16.430  0.0144 -0.1881  0.2522
20212W        W36686   0.294   3.297  14.536 -0.2172 -0.1605 -0.2616
20213W        W36687  14.742  12.551  14.384 -0.0148  0.3415 -0.3614
20214W        W36688   4.334  11.413  11.122 -0.3933  0.1058 -0.0921
20215W        W36689   0.907  10.774  12.828  0.1971 -0.2593  0.0926
20216W        W36690  10.962  15.737   3.574  0.2125  0.1591  0.2513
20217W        W36691  12.968  15.155  15.888 -0.3077 -0.0468 -0.1575
20218W        W36692  13.605   5.784   5.599  0.1485  0.1989 -0.0679
20219W        W36693   5.034   7.084  13.473  0.2968  0.0892 -0.0577
20220W        W36694   5.177   0.028  13.082  0.1967  0.3442  0.1082
20221W        W36695   8.090  10.888  11.837  0.0948  0.1832  0.0510
20222W        W36696  17.682   2.450   5.946  0.0294 -0.1459  0.0214
20223W        W36697   6.946   9.246  14.997  0.0476  0.1127  0.1607
20224W        W36698  11.617   7.751   5.668 -0.0403  0.0321 -0.0835
20225W        W36699   6.736   9.516   3.526 -0.2411  0.0819 -0.1565
20226W        W36700  16.478   1.303  13.576 -0.0386  0.3767  0.0130
20227W        W36701   4.318  10.836   3.997 -0.2442 -0.0993  0.0578
20228W        W36702   3.208  16.778  14.947  0.0216  0.0063 -0.0171
20229W        W36703  14.494   0.775  16.194  0.0512 -0.2647 -0.0650
20230W        W36704   6.910  13.891   0.069 -0.0780  0.0868  0.1640
20231W        W36705   5.518   8.003   5.077  0.1083  0.0267 -0.2227
20232W        W36706   8.270   2.883  15.763 -0.1390  0.3566 -0.1092
20233W        W36707   5.157  17.699   5.270  0.2677 -0.1748  0.3497
20234W        W36708   7.712  17.709   5.353  0.0605  0.2975 -0.1546
20235W        W36709  15.387  17.589   3.887 -0.0184 -0.2528  0.2157
20236W        W36710  12.098  11.437   3.000 -0.1495 -0.0342 -0.0939
20237W        W36711   9.123   0.961   0.270  0.0872  0.0480 -0.1576
20238W        W36712   4.695  10.158   0.251 -0.0420  0.2381 -0.0594
20239W        W36713  11.077  12.860   1.440  0.0335  0.0569 -0.1762
20240W        W36714   9.086   2.147  12.281 -0.1376 -0.1001 -0.1139
20241W        W36715   2.295  11.768   1.630  0.0946  0.0269 -0.0948
20242W        W36716   8.707  14.963   0.874  0.0604 -0.1621  0.0700
20243W        W36717  14.261  10.081  16.778  0.0722  0.2703  0.0368
20244W        W36718   0.958   1.656   0.225 -0.1086  0.4428 -0.1354
20245W        W36719  15.564  16.977  14.311  0.0997 -0.2072  0.1694
20246W        W36720  10.839   5.425  16.191  0.0823 -0.0874 -0.1262
20247W        W36721   9.412   5.000  15.029  0.0475  0.1614  0.1388
20248W        W36722  12.022   2.708  14.577 -0.0348  0.1326  0.1035
20249W        W36723  14.108   6.011  12.986  0.2693  0.0835  0.1096
20250W        W36724  11.112  15.090   4.606  0.2538  0.1091 -0.0047
20251W        W36725   9.274   2.192  15.937 -0.0477  0.3842  0.2353
20252W        W36726   6.768   6.975  12.760  0.0026 -0.0400  0.0020
20253W        W36727  13.484  15.845  11.533  0.0311  0.1955  0.1280
20254W        W36728  13.990   9.662   2.600  0.1949  0.0100  0.0404
20255W        W36729   1.996  16.710   2.834 -0.1659 -0.1707  0.1287
20256W        W36730  17.431  13.461  13.299  0.3674 -0.2508  0.1010
20257W        W36731   2.548   2.711   4.490 -0.1096  0.0873 -0.1812
20258W        W36732   4.695  15.808   1.996  0.4174 -0.1462  0.0573
20259W        W36733   9.480  15.178  12.679 -0.3347  0.0001 -0.2028
20260W        W36734   9.659   9.838  11.893 -0.0431 -0.0371  0.1531
20261W        W36735  11.047  11.974   1.944 -0.1907 -0.1267 -0.0099
20262W        W36736   7.462  13.976   4.068 -0.0291 -0.2551 -0.0520
20263W        W36737  17.808   4.072  13.854 -0.3172 -0.0144 -0.1129
20264W        W36738   9.003  15.193   1.428 -0.0288  0.3951  0.1360
20265W        W36739  10.460   6.567  16.327  0.0067  0.1060 -0.1924
20266W        W36740   2.878  13.931  14.440 -0.0982 -0.1624  0.0969
20267W        W36741  15.685   7.691   2.816  0.2739 -0.0128 -0.2576
20268W        W36742  13.049  15.918   3.155  0.2906  0.0092 -0.0691
20269W        W36743   5.556  16.996  13.892  0.1057 -0.1620 -0.2298
20270W        W36744  14.704   3.044   2.708  0.0031 -0.0344  0.0777
20271W        W36745   6.016   0.933  15.589 -0.1234  0.0226 -0.1519
20272W        W36746   1.537   8.971   2.425  0.2558  0.0286  0.0437
20273W        W36747   1.655  10.687   0.408 -0.0779  0.2479 -0.0914
20274W        W36748   2.809   7.284  11.704  0.1742  0.3221  0.1240
20275W        W36749   5.922   7.457  16.901  0.0290  0.0257 -0.1651
20276W        W36750   8.190   6.369  16.761  0.0387 -0.2033  0.1994
20277W        W36751  11.926   2.170   1.847 -0.3000  0.1642 -0.0744
20278W        W36752  14.858   8.247  14.924 -0.0042 -0.2046 -0.1332
20279W        W36753   1.523  10.468  12.971 -0.0554 -0.2630 -0.0791
20280W        W36754   0.667  11.606  15.069 -0.1888 -0.1736 -0.1746
20281W        W36755   7.977   6.288   2.691  0.0171  0.1419 -0.1493
20282W        W36756   1.213  12.716  11.128  0.0424 -0.0007 -0.2911
20283W        W36757   2.024  16.359  11.556  0.1879  0.0490  0.1702
20284W        W36758   9.051   5.884   0.654 -0.0414  0.0282 -0.1025
20285W        W36759   9.747  14.369   5.645  0.0639  0.2163  0.1303
20286W        W36760  11.826   5.401   1.830  0.1466  0.2367 -0.1833
20287W        W36761  17.485   6.765  15.761  0.2363  0.2568 -0.1329
20288W        W36762  14.714   6.068  11.755  0.1405  0.0820 -0.0823
20289W        W36763   2.040   1.641  13.739  0.3664  0.0422 -0.0985
20290W        W36764   9.493  14.550  13.845 -0.1485  0.2143 -0.1121
20291W        W36765   1.379  15.767  13.636 -0.0033  0.2141 -0.0815
20292W        W36766   9.135   4.395   2.108 -0.0026 -0.0680 -0.0601
20293W        W36767  17.740   6.650   0.208  0.3047 -0.0093 -0.1277
20294W        W36768   5.634  17.048   4.158  0.3741 -0.0747  0.0735
20295W        W36769   7.841  10.522   3.876 -0.1495  0.0838 -0.0447
20296W        W36770   7.583   2.082  13.879 -0.0715  0.0411  0.2939
20297W        W36771  13.372   6.928   2.283 -0.0561  0.0451 -0.4096
20298W        W36772   0.681   9.678   3.978  0.2963 -0.1696 -0.2478
20299W        W36773   8.519  17.005   0.685  0.0401  0.1939  0.1569
20300W        W36774   2.297  12.204  12.364  0.0241  0.0364 -0.0043
20301W        W36775   7.586  15.030  13.831 -0.1122  0.0947  0.1122
20302W        W36776  12.811   5.409  14.632  0.2041  0.1783  0.1478
20303W        W36777  12.985   3.897   0.467  0.0694  0.0523  0.1668
20304W        W36778   3.841   7.664  11.189  0.3034  0.0683  0.2041
20305W        W36779   1.719   7.945   0.445  0.1261  0.1847  0.2221
20306W        W36780   1.723  11.774  16.105  0.3609 -0.1391  0.2946
20307W        W36781  12.438   8.439  13.343 -0.0056  0.1318 -0.1750
20308W        W36782   4.813   5.889   4.967  0.0060  0.0766  0.0887
20309W        W36783   2.125  14.637   0.046  0.2591 -0.1671 -0.0368
20310W        W36784  10.268  13.079  14.716  0.1372  0.0681  0.0455
20311W        W36785  16.866   1.632  15.621 -0.0130  0.0054 -0.0896
20312W        W36786  13.875   7.700   3.746 -0.2557 -0.2647 -0.0452
20313W        W36787   3.181   8.006  16.256  0.1181  0.2125 -0.2189
20314W        W36788   5.818   7.499   4.482 -0.1881 -0.3303  0.1927
20315W        W36789   1.112  12.405   4.389  0.1115 -0.3288 -0.0982
20316W        W36790   5.054  15.297  12.178  0.0281 -0.0465  0.0040
20317W        W36791   6.427   1.974   4.438  0.2606 -0.2103 -0.1532
20318W        W36792  14.724  17.181  15.273 -0.0803  0.0095  0.1751
20319W        W36793  10.028  11.831  16.831 -0.0902 -0.0436 -0.0204
20320W        W36794  13.864  15.563  14.691  0.0552 -0.1920  0.0298
20321W        W36795  14.438  15.458  13.298  0.1722 -0.2869 -0.0826
20322W        W36796  11.118   7.061   5.805  0.0372 -0.0315 -0.3390
20323W        W36797   1.571  16.158   4.307 -0.0425 -0.0358 -0.2210
20324W        W36798   7.828   7.576   3.486 -0.2555  0.2777  0.0131
20325W        W36799  10.382   8.978   4.006 -0.1367 -0.1164 -0.1152
20326W        W36800  13.317   5.766  13.787  0.1273  0.1198 -0.1474
20327W        W36801  10.336   0.451  15.902 -0.1470  0.2087  0.2934
20328W        W36802   1.175   3.093   0.789 -0.2403 -0.2354 -0.2147
20329W        W36803   0.453  16.975  12.844 -0.2969 -0.1936  0.0399
20330W        W36804  12.395   5.280  14.271  0.1875  0.0263  0.3661
20331W        W36805   7.772   3.326   0.225  0.1857 -0.1391  0.0027
20332W        W36806  12.073   4.256  11.054  0.2341 -0.3165 -0.0233
20333W        W36807   3.479  12.703   4.268 -0.1014 -0.1592 -0.1997
20334W        W36808   6.412   4.614   1.273 -0.1295  0.0819 -0.3709
20335W        W36809   6.380   4.245  13.860 -0.2818  0.2549 -0.1813
20336W        W36810  10.937   6.702  16.368  0.4966  0.2848 -0.0465
20337W        W36811   5.999  14.153   5.822  0.1497 -0.0637 -0.1997
20338W        W36812   3.101   9.936   0.078 -0.3327  0.1863  0.2248
20339W        W36813  16.300  14.409  12.971  0.0606 -0.1250 -0.1181
20340W        W36814  15.984   1.541   6.029 -0.1542  0.0995 -0.0709
20341W        W36815  13.548   9.233  14.950  0.0366 -0.0784  0.0924
20342W        W36816   1.253  14.472   2.613 -0.1217 -0.1720 -0.0921
20343W        W36817  12.229  15.693   1.371  0.0570 -0.0666 -0.3454
20344W        W36818   2.696   6.529  15.190 -0.0275  0.1289  0.0249
20345W        W36819  15.722   4.852   2.049 -0.0426 -0.0822  0.0191
20346W        W36820  13.987  10.899  15.593 -0.0255 -0.1212  0.2552
20347W        W36821   6.932   0.928  12.326 -0.0133 -0.0178  0.0986
20348W        W36822  16.009  17.600   1.379 -0.1914  0.2063 -0.1078
20349W        W36823   3.109   7.983  15.686 -0.2047 -0.1718 -0.2508
20350W        W36824   0.705   4.480   4.374 -0.0729 -0.3128 -0.0103
20351W        W36825   8.165   0.534  11.872  0.1428 -0.1419  0.2037
20352W        W36826   0.973  16.984  16.655  0.2424 -0.0702 -0.1578
20353W        W36827  11.842   0.668  14.843 -0.1918  0.1106  0.0001
20354W        W36828  10.412  11.880   0.625  0.0769 -0.3822 -0.3071
20355W        W36829   3.622   3.741  16.219  0.3351 -0.2914 -0.1611
20356W        W36830   3.225   8.838  13.151 -0.0712  0.0002  0.0979
20357W        W36831   5.580   1.055  15.386  0.0110 -0.0295  0.1457
20358W        W36832  15.608   0.880   2.923 -0.0513  0.2570 -0.0653
20359W        W36833   8.755  16.793  15.228 -0.3363  0.1377  0.0872
20360W        W36834  15.254  15.659  14.479  0.0809 -0.1126  0.1989
20361W        W36835  11.709  12.738   3.520  0.0868  0.0644 -0.1658
20362W        W36836  15.678   4.176  13.472  0.2263  0.2193  0.1255
20363W        W36837  14.613   1.472   2.705  0.1591 -0.0872 -0.2819
20364W        W36838   4.974  16.395   3.337  0.0841 -0.2921  0.2672
20365W        W36839   3.919   7.427   1.949  0.2287  0.2033  0.2698
20366W        W36840  14.016   1.586   2.413 -0.0114  0.0443  0.1954
20367W        W36841   7.737   2.078  10.648  0.1393 -0.2711  0.0038
20368W        W36842   4.424  12.338  11.104  0.3844  0.2767  0.0436
20369W        W36843   4.680  14.306   2.656 -0.1549  0.0878 -0.1295
20370W        W36844  16.781   5.594   0.142 -0.0834 -0.1531 -0.0744
20371W        W36845  12.027  15.805   2.756  0.2053 -0.1619  0.3433
20372W        W36846   9.588  10.386  15.696 -0.2091 -0.1111  0.1166
20373W        W36847   9.001  10.081  14.763  0.0579 -0.0074 -0.0988
20374W        W36848   4.641  16.496  12.650  0.0129  0.1886 -0.1819
20375W        W36849  10.690  17.702  14.163 -0.5299  0.1468  0.0248
20376W        W36850   6.385   4.479   2.700  0.1076 -0.1737 -0.0618
20377W        W36851   1.620   3.996   4.760 -0.3907 -0.0584 -0.1532
20378W        W36852  14.321   2.798   3.570  0.2897 -0.0002  0.0860
20379W        W36853  11.494  14.139  11.059  0.1036 -0.2198  0.0674
20380W        W36854  15.979   0.396  15.086  0.0063  0.0388 -0.2095
20381W        W36855   4.811  15.741   3.801  0.2706 -0.1340 -0.3761
20382W        W36856   0.192   1.812   4.673 -0.0750  0.1172 -0.1631
20383W        W36857  14.963   4.539  11.927 -0.0771  0.0580 -0.1939
20384W        W36858   5.111  13.786  15.683 -0.2017  0.0358  0.0412
20385W        W36859   9.803   0.367  15.961  0.0357 -0.1029  0.0552
20386W        W36860   1.616  11.050  12.496 -0.3156  0.2686  0.0274
20387W        W36861   7.250  15.018  13.296 -0.1300  0.2940 -0.3041
20388W        W36862   3.550  12.084  12.616  0.0936 -0.0112  0.0874
20389W        W36863  17.294  12.960   1.438  0.2093  0.3561  0.4446
20390W        W36864  13.999   8.779  13.849  0.0891  0.1432 -0.1186
20391W        W36865  13.151   3.591   4.970 -0.2562  0.0790  0.1137
20392W        W36866   0.639   4.063  12.741 -0.0102  0.1424  0.2562
20393W        W36867   8.734   5.512  12.740  0.1660 -0.2683 -0.1473
20394W        W36868   5.066   1.385  14.715  0.2118 -0.0543  0.3424
20395W        W36869  10.069   7.254  13.260 -0.1225 -0.0927 -0.0097
20396W        W36870  10.836   9.386  13.466  0.0173 -0.0008 -0.1175
20397W        W36871  10.102  11.091   5.082 -0.0757  0.0936  0.1372
20398W        W36872   4.131   1.341   1.459  0.0122 -0.1215  0.1710
20399W        W36873  10.590   5.262  13.568  0.4368  0.1021 -0.0944
20400W        W36874  11.771   8.089  11.919 -0.0654  0.0107 -0.1224
20401W        W36875   7.810  13.298   3.358  0.3533 -0.0012  0.1524
20402W        W36876  12.384   1.243   0.588  0.0665  0.1723 -0.0658
20403W        W36877   2.057  13.814  14.822 -0.0079  0.3704 -0.2974
20404W        W36878   3.502   0.439   3.609 -0.2321 -0.1002 -0.2795
20405W        W36879   2.424  11.100   5.346 -0.1264  0.0579  0.1371
20406W        W36880  10.335  12.484   3.454  0.0946 -0.1937  0.0422
20407W        W36881  14.272  14.405  15.108 -0.0867 -0.0421  0.1884
20408W        W36882  16.668  12.501   0.001  0.2120  0.0831  0.3591
20409W        W36883   3.503  17.341  12.288  0.1015  0.1630  0.0803
20410W        W36884  10.917  16.576   5.830 -0.0444 -0.0681  0.0563
20411W        W36885   0.168   8.615   1.462  0.0746  0.0649 -0.2672
20412W        W36886  12.172   2.778   5.245 -0.1219 -0.0422 -0.1026
20413W        W36887   7.357   3.276  13.684  0.1518  0.1455 -0.0590
20414W        W36888   2.272   8.821   0.316  0.1208  0.3387  0.0826
20415W        W36889   2.364   1.831  13.410 -0.1108 -0.1249 -0.1610
20416W        W36890   5.608  15.956   5.175  0.0539  0.0353 -0.0519
20417W        W36891   6.654  16.530   5.769 -0.0392  0.0756  0.0870
20418W        W36892  11.112   9.257  14.595 -0.4788 -0.0664  0.4601
20419W        W36893  11.060  14.658   1.289 -0.0729 -0.0191  0.1093
20420W        W36894  12.716  10.369  16.819 -0.0395  0.2469 -0.2726
20421W        W36895  14.486   2.277  14.048  0.0641  0.2560 -0.2365
20422W        W36896   9.522  15.024   1.386  0.0771  0.1625 -0.1103
20423W        W36897   0.504   3.229   2.315 -0.1310 -0.2096 -0.0775
20424W        W36898   9.538  12.820  14.004  0.0628 -0.0182  0.3026
20425W        W36899   9.387   3.271  14.512  0.2904 -0.1498 -0.1705
20426W        W36900   6.021  15.532  14.880 -0.0544  0.2021  0.1141
20427W        W36901  11.030  12.478  12.285  0.2337  0.1221 -0.3706
20428W        W36902   5.693  12.939   1.808  0.4865  0.1685  0.3438
20429W        W36903  13.309   5.300   4.610  0.0387  0.1589  0.3601
20430W        W36904   5.235   0.414  11.301  0.0226  0.1637 -0.2050
20431W        W36905  12.361   1.900   4.845 -0.1332  0.1902  0.0228
20432W        W36906  11.629  15.269   4.815 -0.1438  0.1847  0.0089
20433W        W36907  12.379   0.624  14.082  0.1083 -0.2869  0.1204
20434W        W36908  10.853   1.519  12.351  0.1450 -0.0522 -0.0170
20435W        W36909   3.679  12.413   0.989  0.3443 -0.1837 -0.1130
20436W        W36910  16.509  17.557   1.384 -0.2299 -0.0148  0.1857
20437W        W36911   7.180   4.793   5.230  0.0392  0.1616 -0.1172
20438W        W36912  15.270   9.679   2.504  0.3606  0.0398 -0.1163
20439W        W36913  14.195   6.534  16.849 -0.1757  0.1407 -0.1176
20440W        W36914   2.480   4.417   2.377 -0.2963 -0.1760 -0.0463
20441W        W36915  11.054   6.534   0.827  0.1003 -0.1194  0.0965
20442W        W36916  16.942  17.149  16.099 -0.0961  0.1743  0.0815
20443W        W36917   4.568   3.744  12.921  0.3470 -0.1373 -0.0470
20444W        W36918   6.722  16.010  12.498 -0.1352  0.2195 -0.0063
20445W        W36919  10.843  13.990  12.386 -0.0471  0.1077 -0.0980
20446W        W36920   8.077  13.959   4.992 -0.1886  0.0890  0.1321
20447W        W36921   8.796   0.877  16.793 -0.2373 -0.1235 -0.1739
20448W        W36922   6.261   6.437  13.314 -0.3457  0.1980 -0.0133
20449W        W36923   7.373   1.874   4.378  0.1829  0.2424 -0.2720
20450W        W36924   1.295   9.577  12.448 -0.0497  0.1787  0.0258
20451W        W36925  12.089   1.376   4.703  0.0859  0.2158 -0.3200
20452W        W36926   9.538  16.492   4.432  0.2479 -0.1452  0.1984
20453W        W36927   7.261   0.676  13.974  0.1553 -0.0337 -0.1078
20454W        W36928   2.833   4.616  13.234  0.0118  0.1964  0.2224
20455W        W36929  12.487  10.621  15.305 -0.0080 -0.1979 -0.1360
20456W        W36930   5.038   6.194   0.555 -0.0176  0.2078  0.1359
20457W        W36931   5.552  14.502  13.273  0.1049  0.3147  0.0806
20458W        W36932  15.502   3.933  15.368 -0.1593  0.1412 -0.0602
20459W        W36933   7.495   1.491  13.933 -0.3078  0.0318  0.0611
20460W        W36934  14.451   9.274  15.560  0.0073  0.0690 -0.1695
20461W        W36935  12.383   4.445  13.401  0.0198  0.0815  0.4587
20462W        W36936   6.224  10.045  14.222 -0.1398 -0.3084 -0.1931
20463W        W36937   1.601   3.540   2.004 -0.1297 -0.2068  0.2442
20464W        W36938   8.034  13.957  13.956  0.0501 -0.1998 -0.2304
20465W        W36939   9.407   6.505   0.430  0.2120  0.0323  0.1909
20466W        W36940  10.964   8.774   1.236 -0.0997  0.0707 -0.0421
20467W        W36941   5.030  12.628  12.099  0.0245  0.1125  0.1658
20468W        W36942   3.658   3.905  11.767 -0.0458  0.1349  0.0804
20469W        W36943   8.331  12.739   2.144  0.0381 -0.0086 -0.0251
20470W        W36944   7.968   1.196  12.174  0.1529  0.0235  0.3305
20471W        W36945   3.530   8.123  12.563  0.3012  0.0871 -0.1337
20472W        W36946  15.502   3.509   4.863 -0.1844  0.0221  0.2607
20473W        W36947  13.402   7.977   5.643 -0.1567 -0.0698 -0.2354
20474W        W36948  15.118  14.519   2.071 -0.1566 -0.1262  0.0925
20475W        W36949   2.276   8.001   0.100 -0.3176  0.1915  0.0271
20476W        W36950   8.181   3.393  12.779  0.2049 -0.0076  0.0680
20477W        W36951  17.154  11.557  14.916 -0.1365 -0.0968  0.1115
20478W        W36952  17.757   9.716  13.803 -0.2213 -0.1033 -0.0835
20479W        W36953   0.450  14.696   4.832 -0.3909 -0.0083 -0.1501
20480W        W36954   0.291   5.470  14.460  0.0024 -0.4369 -0.2958
20481W        W36955   8.718  16.291  11.571  0.0875  0.0021  0.1890
20482W        W36956   6.299  16.882  14.352 -0.1490  0.0941 -0.0982
20483W        W36957  13.258  13.253  12.741 -0.0617 -0.0610 -0.0759
20484W        W36958  15.253  10.357  15.279  0.1425 -0.0215  0.0073
20485W        W36959  16.507   1.445   3.461 -0.0729  0.0081 -0.0411
20486W        W36960  12.665  11.145  15.242 -0.1228  0.0915  0.2434
20487W        W36961   4.071  13.771  11.334  0.1773  0.0539  0.0423
20488W        W36962   7.780  15.753   1.927 -0.3857  0.2028  0.0241
20489W        W36963   5.945  10.132  13.002  0.2933 -0.4165  0.0433
20490W        W36964   7.583   4.627  15.557 -0.1101 -0.0466 -0.1966
20491W        W36965   3.438  12.333  15.195  0.0651  0.0610 -0.0572
20492W        W36966   1.651   8.073  16.187  0.1234 -0.2708  0.0109
20493W        W36967   5.833  13.443   1.620 -0.1593 -0.1247  0.1380
20494W        W36968   2.891   1.175   4.215 -0.0330 -0.0621 -0.0793
20495W        W36969   2.715  12.950  14.883 -0.1158 -0.0416  0.0306
20496W        W36970  14.479  11.689  15.763  0.0882  0.2006 -0.0871
20497W        W36971  14.459  12.652   3.192  0.3535 -0.1119  0.0887
20498W        W36972  15.863  16.557  14.516  0.2009  0.1083 -0.1207
20499W        W36973   7.233   6.736  12.911 -0.1368  0.0753 -0.0633
20500W        W36974   2.561  15.302   2.240 -0.2249 -0.0330 -0.1991
20501W        W36975   8.172  13.816   3.336  0.2033 -0.0309 -0.0203
20502W        W36976   7.272  17.437  15.104  0.1702 -0.0757 -0.3901
20503W        W36977   7.195  10.326   5.451 -0.2002 -0.0689  0.0357
20504W        W36978   6.040   8.945  12.074 -0.0833 -0.1508  0.0388
20505W        W36979  11.379   8.514   1.455  0.1197  0.3258  0.0003
20506W        W36980   8.802   5.308   2.453  0.0859 -0.0234  0.0856
20507W        W36981  16.137   9.725  13.969  0.0236  0.2009 -0.2563
20508W        W36982  14.951   9.517  15.228  0.1399 -0.0910  0.0452
20509W        W36983   1.552   4.855   3.525 -0.0168  0.1511  0.1859
20510W        W36984   3.820  12.956  14.140  0.0294  0.3353 -0.3474
20511W        W36985  11.701  16.036   3.333  0.1818 -0.3032 -0.1590
20512W        W36986  16.390  14.250  13.920 -0.0891  0.1049 -0.2493
20513W        W36987   0.671   9.916  12.854 -0.2059 -0.3157 -0.0294
20514W        W36988  12.875  14.589  16.795 -0.2054  0.1960 -0.0444
20515W        W36989  11.902   2.885  16.307 -0.3422  0.6294 -0.0941
20516W        W36990   2.061  17.493  14.010  0.1245 -0.1487  0.3283
20517W        W36991   4.440   6.220  10.755  0.1109  0.2202 -0.2511
20518W        W36992   1.690   2.296  14.777 -0.2737 -0.0600 -0.2468
20519W        W36993  11.146   6.323   3.181  0.0353 -0.0256  0.1546
20520W        W36994  14.884   0.185  12.733 -0.0579 -0.0842 -0.0222
20521W        W36995   3.453  12.016  14.334 -0.0698  0.4211  0.0557
20522W        W36996   4.305  11.357   2.923 -0.0715 -0.0396  0.2419
20523W        W36997   4.688  15.838   1.069 -0.1617  0.2897  0.0653
20524W        W36998  15.379  17.808  12.737  0.1359  0.0594 -0.0261
20525W        W36999   8.493  16.351   3.074  0.2515 -0.2478 -0.0572
20526W        W37000  13.605   3.196   0.080  0.2566  0.2300 -0.1231
20527W        W37001   7.367  10.367  11.402 -0.0114 -0.0397 -0.4394
20528W        W37002  16.750   9.098   0.534  0.0523 -0.0510 -0.0889
20529W        W37003  13.392   3.369  13.095 -0.1833  0.2081  0.1369
20530W        W37004   6.476   9.362   1.751 -0.3534  0.4356  0.2187
20531W        W37005  10.187  11.620   3.021  0.1507 -0.1756  0.1091
20532W        W37006   4.551  11.600  14.518  0.2610 -0.1261  0.2635
20533W        W37007  15.504  13.176  11.833 -0.3433 -0.2791 -0.2056
20534W        W37008  12.026   3.540   0.140  0.1017  0.0495  0.0827
20535W        W37009   6.092  17.135  16.202 -0.1665  0.0328 -0.0499
20536W        W37010  12.200  15.385  15.185  0.0531 -0.3994  0.0862
20537W        W37011  12.461  12.028  13.578 -0.2307  0.1688 -0.2319
20538W        W37012  11.536   7.443   1.731 -0.0729  0.1800 -0.0318
20539W        W37013   9.207   3.142  12.150 -0.1167 -0.1132 -0.0229
20540W        W37014   4.101   1.297  15.503 -0.0774  0.2430 -0.0977
20541W        W37015   0.831   1.201   0.454 -0.2181  0.0188  0.0742
20542W        W37016   5.468   1.325  13.180 -0.2020 -0.0098 -0.2509
20543W        W37017   0.083   5.922  14.511 -0.0729  0.0360  0.1141
20544W        W37018   9.421   2.591  11.597 -0.0917 -0.0770  0.1863
20545W        W37019   7.966  15.775  16.716 -0.1002  0.0457 -0.0044
20546W        W37020   6.228  13.970  16.796 -0.1108 -0.0389 -0.1896
20547W        W37021   0.614  16.363  14.244  0.2861 -0.2069  0.0625
20548W        W37022  16.320   5.226   3.760  0.1470  0.0817 -0.0722
20549W        W37023  11.166   5.075   3.479 -0.0858  0.0043  0.0603
20550W        W37024   2.869   9.277   0.350 -0.0016 -0.2313 -0.0272
20551W        W37025   7.510   1.870  16.119  0.3699 -0.2182  0.0021
20552W        W37026   6.909  16.896  12.179 -0.1307 -0.0907  0.0278
20553W        W37027   7.757   3.258  16.621 -0.2367 -0.1505  0.0829
20554W        W37028   4.077  12.804  11.892 -0.0790  0.0761 -0.2563
20555W        W37029   1.603  13.517   5.664  0.0240 -0.1909 -0.0639
20556W        W37030   4.274   0.365   1.684 -0.2844  0.0580 -0.0565
20557W        W37031  16.404   4.374   5.791  0.2435  0.0812  0.1735
20558W        W37032   6.037  15.732  13.236 -0.1903 -0.2588  0.0163
20559W        W37033  12.253  16.271  12.381  0.1238 -0.0776 -0.1066
20560W        W37034  13.701  10.608  11.477  0.2206 -0.0119  0.1091
20561W        W37035  15.018   5.693  15.079 -0.0636  0.1712 -0.0015
20562W        W37036   5.222   4.068  12.336  0.0354  0.0869 -0.3509
20563W        W37037  12.219  16.197   1.432  0.1274  0.0139 -0.0577
20564W        W37038   6.326   9.921  14.720  0.1972  0.1033  0.0911
20565W        W37039  13.621   3.486   3.291 -0.0465 -0.0694 -0.0538
20566W        W37040  11.367   2.915   1.815  0.0556 -0.1957  0.0596
20567W        W37041   0.945  14.355   3.062 -0.1455  0.0158  0.1972
20568W        W37042  14.210   2.755  14.240  0.1217  0.0730  0.1455
20569W        W37043   7.726   2.546   3.258 -0.2089 -0.3478  0.0905
20570W        W37044   9.618  12.201  11.930 -0.2122 -0.2865 -0.1265
20571W        W37045   0.889   4.583   0.820  0.2614  0.1939  0.2550
20572W        W37046   6.013  10.293  11.560  0.0123 -0.1367  0.1593
20573W        W37047  16.774   7.290  14.277 -0.0824  0.1836  0.2187
20574W        W37048   3.812   1.718  14.403  0.2909 -0.4205  0.0158
20575W        W37049  15.587  11.599  16.900  0.4283  0.2590  0.1346
20576W        W37050   5.833   9.528   4.147  0.0804  0.2939  0.1256
20577W        W37051  11.366   6.760  15.387  0.2865  0.1143 -0.1806
20578W        W37052  15.743   7.451   1.392  0.2083  0.1789 -0.2753
20579W        W37053   8.686   3.763  12.450 -0.1576 -0.0984 -0.1376
20580W        W37054   8.530  15.750   3.402  0.0803  0.0091  0.0754
20581W        W37055   4.369   9.917  14.719 -0.1122  0.0670 -0.1581
20582W        W37056   3.450   4.232   4.060  0.1876 -0.1526 -0.0349
20583W        W37057  16.422   3.163   3.005  0.0464 -0.1271 -0.1980
20584W        W37058   6.117   4.942   1.581  0.1304  0.2105 -0.0917
20585W        W37059  14.537  15.828   0.653 -0.3728 -0.0726 -0.0193
20586W        W37060   3.488  10.381   0.892  0.2415  0.2891 -0.0665
20587W        W37061   5.762  15.626  11.550  0.2166 -0.0106  0.0484
20588W        W37062  16.711  16.277   5.142  0.0633  0.0138  0.1648
20589W        W37063  12.243  14.963   2.505  0.1210 -0.2894 -0.5631
20590W        W37064   0.829  16.629   0.923  0.3862 -0.2204  0.1947
20591W        W37065   6.327   5.147  12.832  0.0237 -0.0688  0.1298
20592W        W37066  11.314  16.478  15.219  0.0731  0.0983 -0.1847
20593W        W37067  15.092   2.957   4.634  0.1810 -0.1294  0.0398
20594W        W37068   2.925   9.588   3.708  0.0964 -0.1703 -0.1716
20595W        W37069  13.316  12.996  15.058 -0.1412  0.2343 -0.0994
20596W        W37070  14.535  14.050  14.443 -0.2944 -0.2616  0.0934
20597W        W37071   2.200   4.394  16.427 -0.1990 -0.0286 -0.0406
20598W        W37072  14.173  15.806  13.909  0.1036 -0.0667  0.2146
20599W        W37073  17.706  11.364   0.228 -0.2847  0.1569  0.1875
20600W        W37074   8.238  10.863   4.331 -0.2300 -0.0376  0.2730
20601W        W37075  14.423  14.865   2.986  0.3118 -0.2650 -0.0149
20602W        W37076  17.235  17.353  16.543  0.0139  0.2234  0.0207
20603W        W37077   9.711   7.441  15.921  0.1849  0.0444 -0.0966
20604W        W37078  10.046   0.916  15.894  0.0870 -0.1435 -0.1521
20605W        W37079  14.513  17.044  15.727 -0.0243 -0.1001 -0.0556
20606W        W37080   9.159  15.408   2.874 -0.2467 -0.1591  0.1430
20607W        W37081   7.815  17.578   4.906  0.2700 -0.1292 -0.0865
20608W        W37082  12.535   9.225   3.550 -0.0702 -0.1645 -0.0519
20609W        W37083  14.419  11.212   3.817  0.1477 -0.2485 -0.0770
20610W        W37084   8.269   2.201  15.101 -0.1309  0.0246  0.2170
20611W        W37085   6.263   3.827   3.241 -0.0775  0.0880  0.0530
20612W        W37086  10.758   2.116   5.698  0.3854 -0.1217 -0.2571
20613W        W37087   6.595   5.593  12.532  0.0301  0.0198  0.1082
20614W        W37088   3.636   0.070  15.207  0.1528  0.0084  0.0063
20615W        W37089  15.670  15.026   4.791 -0.1536  0.0748  0.0935
20616W        W37090  13.172  16.694   6.179 -0.0088  0.0326 -0.2539
20617W        W37091  16.010   6.016   4.203 -0.1140  0.1657  0.0077
20618W        W37092   4.627   9.197  13.658 -0.3313  0.0812 -0.1410
20619W        W37093   8.377   0.128   3.226 -0.2667  0.0522  0.0306
20620W        W37094  10.381   1.524   4.898  0.0327  0.1485 -0.0418
20621W        W37095  15.122   1.531  11.267  0.0454 -0.1672  0.0295
20622W        W37096  10.035  13.009   1.727  0.0439 -0.4583 -0.2225
20623W        W37097  17.318   3.396   1.453  0.0850  0.3033 -0.2875
20624W        W37098  10.262   9.270  12.139  0.0816  0.0464  0.0764
20625W        W37099   0.423  10.297  13.463  0.0550  0.0969 -0.2428
20626W        W37100  10.514  15.633   5.224 -0.1620  0.3026 -0.1075
20627W        W37101  10.655   0.296  14.388 -0.0115  0.2881  0.1389
20628W        W37102   8.394   5.051  12.875  0.1321  0.1161  0.0979
20629W        W37103  15.929   8.725   4.150 -0.0014  0.0137  0.1947
20630W        W37104  11.652   3.762  13.138 -0.1260 -0.0456  0.0814
20631W        W37105   2.846  17.683  13.252 -0.0573 -0.1006  0.1881
20632W        W37106  16.714   1.190   0.009  0.1560 -0.3579 -0.1914
20633W        W37107   7.926   6.814   4.322 -0.0340  0.3139  0.2032
20634W        W37108   2.430   7.476   1.551  0.0096  0.1040  0.3213
20635W        W37109   8.079   8.116   2.610 -0.1762 -0.3998  0.0174
20636W        W37110  15.452  13.412   3.116  0.1787 -0.0255  0.1690
20637W        W37111   1.413   1.019  11.452  0.0159  0.0284 -0.1932
20638W        W37112   5.284  13.324   2.442 -0.1840  0.0493 -0.0688
20639W        W37113  13.970  16.411   2.266  0.0539  0.2850 -0.0996
20640W        W37114   2.479  11.813   0.340 -0.1714  0.2261 -0.2249
20641W        W37115  11.272  11.612   3.183  0.2240  0.0573 -0.1671
20642W        W37116  12.601   2.557  16.180 -0.4343 -0.0629  0.0183
20643W        W37117  13.135   4.912   5.194  0.0047  0.1267 -0.0604
20644W        W37118  14.480   3.012   0.496 -0.0599 -0.0008 -0.2232
20645W        W37119  11.990  14.034  15.066 -0.0845  0.1299  0.4609
20646W        W37120  11.724  17.707  16.431 -0.1815 -0.1703  0.2338
20647W        W37121   0.308   0.203  11.786 -0.2956 -0.1766 -0.1484
20648W        W37122  14.293  10.989  10.719  0.2682  0.2666 -0.2035
20649W        W37123   4.382   0.222  13.989  0.1134 -0.2286  0.3638
20650W        W37124   2.553  12.362   2.135 -0.3830 -0.2090 -0.1059
20651W        W37125   9.659  16.500  12.148  0.0782 -0.1266  0.1832
20652W        W37126   0.392   1.607   1.024 -0.1661  0.0727  0.0541
20653W        W37127  14.096   6.484   6.529  0.1917  0.0736  0.1440
20654W        W37128   1.189  10.601   2.080 -0.2857  0.1377  0.2664
20655W        W37129  16.471   2.066   2.766  0.1482  0.0353 -0.2416
20656W        W37130   7.118   9.410   4.325  0.1216  0.0792  0.1943
20657W        W37131   0.116   6.469  11.730 -0.1878  0.1338 -0.0711
20658W        W37132   4.431  14.959  11.621 -0.0651 -0.0687  0.2120
20659W        W37133   2.307  12.250   3.852 -0.2374  0.1946  0.0535
20660W        W37134   8.999   1.333   0.017  0.3445  0.0180 -0.0684
20661W        W37135   7.029   3.808  16.695  0.0381 -0.0925  0.1866
20662W        W37136  10.381   6.191   5.022 -0.1751  0.1587 -0.1041
20663W        W37137  15.818   6.122   0.293  0.0466  0.1440 -0.1376
20664W        W37138  16.543   4.608   0.423 -0.1459 -0.0174  0.1118
20665W        W37139   1.555  15.232   5.351 -0.0563  0.2996  0.2301
20666W        W37140  13.811   1.246   5.497  0.0863  0.2289  0.3078
20667W        W37141  16.531   1.756  12.538 -0.1770 -0.2740  0.0647
20668W        W37142   6.863   1.328  16.718 -0.0278 -0.1917  0.1857
20669W        W37143   3.047   3.394  11.921 -0.0008 -0.1231 -0.1102
20670W        W37144  12.826  11.105  13.330  0.1857  0.2487  0.1644
20671W        W37145   6.324   8.184  12.748 -0.0645 -0.3210  0.0999
20672W        W37146  10.309  13.765   0.287 -0.0016  0.0256  0.3754
20673W        W37147  17.458  10.689  12.816  0.1446  0.3116 -0.1055
20674W        W37148  16.586  16.614  16.415 -0.1325  0.3589  0.1305
20675W        W37149  16.221  12.231   0.194  0.3195 -0.0677 -0.1434
20676W        W37150  15.985   1.079   3.872  0.0015  0.1314  0.1114
20677W        W37151   1.711   5.748  15.900  0.0397  0.1287  0.0277
20678W        W37152   9.540   3.737  15.151 -0.0110 -0.3159  0.0215
20679W        W37153  14.085   5.179   1.719  0.2450  0.1567  0.0044
20680W        W37154   7.713  11.202  12.134  0.2112  0.1216 -0.1952
20681W        W37155   8.159   1.376   3.464 -0.0459 -0.0194  0.0654
20682W        W37156  16.076   3.928  13.217 -0.2875  0.0825  0.3769
20683W        W37157   9.651  13.986   1.994  0.1170  0.0554  0.5466
20684W        W37158   9.405   6.335   5.835 -0.1554 -0.0728 -0.2016
20685W        W37159   0.353  13.555   1.057  0.0771  0.2176  0.0140
20686W        W37160  15.603   0.690   0.757 -0.1681  0.0728 -0.2520
20687W        W37161   1.801   1.592   5.321  0.0328 -0.0158 -0.0242
20688W        W37162  11.954   8.135  14.475  0.0716 -0.0114 -0.4412
20689W        W37163   7.584   3.103  15.007  0.4584 -0.1064  0.2133
20690W        W37164   6.603   3.476   3.178  0.4851 -0.1268  0.0901
20691W        W37165  16.320   0.354  15.438  0.3956  0.1680  0.4020
20692W        W37166  12.111  11.238   4.606 -0.0518 -0.0182 -0.1173
20693W        W37167  14.341   7.884   0.248 -0.0715 -0.5704 -0.0052
20694W        W37168   0.716   0.322   3.504 -0.2540 -0.0253  0.0362
20695W        W37169   9.552   3.104  15.870  0.3502  0.2299 -0.2003
20696W        W37170  17.432   6.552  11.689 -0.3562 -0.0288 -0.0812
20697W        W37171   8.820   7.284   0.464  0.0019 -0.1186 -0.0942
20698W        W37172   8.724   8.889  15.054 -0.2126  0.1225  0.0711
20699W        W37173   7.718   2.200   5.497 -0.2648 -0.1143  0.0110
20700W        W37174   6.909   9.552  11.779 -0.1211  0.1326  0.1473
20701W        W37175   7.031  17.700  12.282  0.0267 -0.3168 -0.2725
20702W        W37176   1.465  15.963  14.042  0.0391  0.1114 -0.1334
20703W        W37177  15.917   6.367  13.345  0.2768  0.1827  0.1810
20704W        W37178   8.588   8.503   0.728  0.2433 -0.2689 -0.0871
20705W        W37179   0.845  17.779  14.385  0.0882 -0.0646 -0.3642
20706W        W37180  12.922   2.483  14.946  0.2374  0.1621  0.0371
20707W        W37181  12.499   4.854   4.331  0.0714  0.0097  0.0718
20708W        W37182  12.090   3.798  15.444 -0.0637 -0.0401  0.1341
20709W        W37183  14.605   8.187   3.575 -0.0306  0.0170  0.0459
20710W        W37184   4.703  11.627  13.936  0.2067  0.0972  0.1977
20711W        W37185  15.706  17.663  13.804  0.3076 -0.1036  0.1021
20712W        W37186  12.447   4.976  14.738  0.1595 -0.1113  0.0923
20713W        W37187   3.244  11.505  16.629 -0.1369  0.0351 -0.0604
20714W        W37188  14.565  14.561  16.161  0.1807  0.2404  0.4012
20715W        W37189   8.876   4.945   0.622 -0.0349  0.0262 -0.2684
20716W        W37190  12.275  11.061   2.635 -0.0818  0.0070  0.1528
20717W        W37191   5.688  15.627  14.157  0.4051 -0.1477  0.0611
20718W        W37192  17.708  17.722  11.911 -0.4209  0.0867  0.2402
20719W        W37193   7.438   7.758   4.233 -0.1029 -0.0196  0.0873
20720W        W37194  15.635  12.317  11.962  0.4664 -0.0318 -0.0875
20721W        W37195   0.673   8.735   0.112  0.0933  0.0575  0.0928
20722W        W37196   0.245   9.022   2.047 -0.1104 -0.0840 -0.1319
20723W        W37197  14.184  14.884  12.757 -0.0191 -0.3549 -0.0013
20724W        W37198  16.367   2.726  13.942 -0.1882 -0.0177 -0.0860
20725W        W37199   1.626  17.044  13.162 -0.1876  0.2644  0.2692
20726W        W37200  16.938  12.046   2.326 -0.0496 -0.0524  0.0731
20727W        W37201   7.538   2.971   3.645  0.0326 -0.0333  0.0034
20728W        W37202   1.825   0.075   1.618 -0.0416 -0.2841  0.0862
20729W        W37203  14.831   3.577  13.650  0.0907 -0.1423  0.0767
20730W        W37204  13.167  17.040   2.989 -0.2833 -0.1444 -0.0206
20731W        W37205  15.845   7.051  12.830 -0.0236 -0.0712  0.0764
20732W        W37206   6.857   1.253   0.320 -0.1516  0.0144  0.0549
20733W        W37207   0.039   7.255   5.164 -0.1406 -0.0659  0.0122
20734W        W37208   1.313  11.842  13.382  0.0885 -0.1604  0.1900
20735W        W37209  16.983   3.059   0.898 -0.1287 -0.1740 -0.0437
20736W        W37210   9.081  11.153   2.733 -0.0636 -0.0151  0.1060
20737W        W37211   5.331  11.928   3.776 -0.3567 -0.0424 -0.1249
20738W        W37212   1.936   9.777   0.444  0.0157 -0.3127  0.2216
20739W        W37213   1.078   4.394  15.963 -0.1722  0.0778  0.0033
20740W        W37214  17.351  13.712  15.923 -0.1570  0.0242  0.0759
20741W        W37215   6.383  14.150  15.908  0.0379 -0.0545  0.1082
20742W        W37216   7.971   0.541  13.759 -0.3749  0.0191 -0.1319
20743W        W37217  16.682  15.683   1.008 -0.0058 -0.2236  0.3584
20744W        W37218   6.589   6.674  11.745 -0.0551  0.3739  0.3267
20745W        W37219   0.483  15.769  12.850 -0.0289 -0.1706  0.3511
20746W        W37220   3.615  14.768   2.654  0.1729  0.3022  0.2175
20747W        W37221  14.561   9.855   5.371 -0.1963  0.0367  0.3349
20748W        W37222   6.562   1.597   0.604  0.0249 -0.3727  0.0976
20749W        W37223   6.761  15.627   4.806 -0.0298 -0.1786  0.3128
20750W        W37224   8.933  16.106   2.878  0.1033  0.3811 -0.1007
20751W        W37225  11.174  13.727   0.899  0.0975  0.2015  0.1319
20752W        W37226   0.649   5.790   4.833  0.1672 -0.1462 -0.2092
20753W        W37227  13.288   9.774   3.267  0.3555 -0.0224  0.0464
20754W        W37228  12.025   4.577   1.683  0.2379 -0.1854  0.2261
20755W        W37229   2.714   9.095  14.437  0.0397  0.0725  0.0880
20756W        W37230  10.249   9.033  13.035 -0.1312  0.1082 -0.1459
20757W        W37231   8.660  15.248   4.724 -0.2237  0.2260 -0.0645
20758W        W37232  15.753  13.426   5.367  0.0887 -0.0343 -0.1213
20759W        W37233   2.447   0.968   5.290 -0.0473 -0.1334 -0.0334
20760W        W37234   6.864   0.382  12.449 -0.3105  0.2652  0.1233
20761W        W37235   4.595   2.245   0.446  0.1983 -0.0458 -0.2130
20762W        W37236   5.524   9.573   1.350  0.1309  0.0257  0.0803
20763W        W37237   7.402   3.511   5.732  0.2494 -0.1272  0.1011
20764W        W37238  16.054   1.612   0.446 -0.1211  0.0392  0.1164
20765W        W37239  11.173  17.768  15.729 -0.0313  0.2169 -0.1081
20766W        W37240   4.756  11.529   4.428 -0.1736 -0.2771  0.0981
20767W        W37241  12.226  12.300   1.390 -0.1358  0.1173  0.2193
20768W        W37242  10.950   6.438  14.744 -0.0766  0.1124 -0.0360
20769W        W37243   8.254  11.165  16.241  0.0434  0.0720  0.4247
20770W        W37244   0.398  15.085  16.928  0.1066  0.2158 -0.4407
20771W        W37245  12.879   1.206  13.459 -0.1099  0.2163 -0.1884
20772W        W37246  11.250  12.612   5.427 -0.0378 -0.2146  0.0014
20773W        W37247   7.391   0.200  12.572 -0.0204  0.1355  0.1600
20774W        W37248   7.441   7.686  13.526 -0.3693  0.5343  0.0588
20775W        W37249  11.115  11.945  12.934  0.0402 -0.2387  0.0164
20776W        W37250   3.664   7.719   2.267 -0.4195  0.0990  0.0796
20777W        W37251   3.707   5.972   2.017  0.0198 -0.0638  0.1354
20778W        W37252  11.608  11.894   1.868  0.1577 -0.0102  0.1026
20779W        W37253   2.249  11.037   0.882 -0.0674  0.0050  0.3027
20780W        W37254  15.695   6.018   3.370 -0.1490  0.1905  0.4028
20781W        W37255  16.238   3.446  14.987 -0.0648 -0.1800 -0.2643
20782W        W37256   6.076   4.006  12.614 -0.0534 -0.4215 -0.2016
20783W        W37257  14.517  11.020  12.938 -0.4281 -0.0138  0.2522
20784W        W37258  14.945   9.528   0.091  0.3047  0.3585 -0.3009
20785W        W37259   0.472  11.980  12.446  0.0322  0.0280  0.4153
20786W        W37260   7.638   3.718  15.667  0.0135 -0.2040  0.2224
20787W        W37261  16.599   6.916   4.509 -0.2839  0.1152 -0.0980
20788W        W37262   2.816   5.157   4.621  0.1473 -0.1738 -0.0020
20789W        W37263  16.820  17.487   5.018  0.0884  0.1619 -0.1719
20790W        W37264   3.127  10.293  15.226  0.0030  0.2191 -0.2268
20791W        W37265   1.924  16.450  14.834 -0.2438  0.0760 -0.1522
20792W        W37266   4.777   7.195  16.671  0.1699  0.0640  0.0036
20793W        W37267   6.120  17.141   4.084 -0.1640  0.0805  0.0575
20794W        W37268  16.532   8.409   1.640 -0.0914 -0.0401 -0.1838
20795W        W37269   0.447   3.242   4.473 -0.3108  0.0431 -0.0926
20796W        W37270   8.603  16.950  16.553  0.0693 -0.3559  0.0176
20797W        W37271   9.299  12.713  14.868 -0.1037  0.1588 -0.3580
20798W        W37272   3.418  15.555   0.134 -0.1384 -0.1487 -0.2071
20799W        W37273  12.919  12.249  13.543  0.2455 -0.0489 -0.1267
20800W        W37274   2.701  14.182   2.046 -0.0430 -0.2831 -0.4216
20801W        W37275  13.907   7.172  12.360  0.1796 -0.0796  0.0096
20802W        W37276   3.533   2.120   1.751  0.1009  0.2898 -0.2158
20803W        W37277   9.201   6.778  13.735 -0.4365  0.0060 -0.0012
20804W        W37278  13.201   6.552  12.635 -0.0790  0.2032  0.0895
20805W        W37279   0.199  12.577   4.385  0.1273 -0.0421  0.0841
20806W        W37280  11.132  14.797  15.995  0.0076 -0.1010 -0.0189
20807W        W37281   8.198   7.522   3.933  0.1153 -0.0026  0.1748
20808W        W37282  13.737  11.476   0.809 -0.0904  0.0058  0.3076
20809W        W37283  10.814  16.208  14.048 -0.2107 -0.0065 -0.2004
20810W        W37284   6.133  13.929  12.723  0.4187  0.1935  0.2333
20811W        W37285  11.119  16.772  16.452  0.1674 -0.0143  0.1363
20812W        W37286   1.824   7.847  12.524 -0.1276 -0.0673 -0.2298
20813W        W37287   0.813  16.146   4.723  0.2376  0.1100  0.0305
20814W        W37288   6.463   9.566   0.706  0.0647 -0.1420  0.1672
20815W        W37289   9.932   9.037   4.256  0.1118 -0.2149 -0.0507
20816W        W37290  16.043   6.979   0.620 -0.0945  0.1002 -0.2171
20817W        W37291   9.395   1.536  13.915  0.0438 -0.1535 -0.0517
20818W        W37292   5.559   9.467   0.835 -0.1122 -0.0128  0.1007
20819W        W37293  14.227   9.113   4.882  0.0862 -0.1714  0.0703
20820W        W37294  12.386  14.049   3.025 -0.0596 -0.1403  0.2097
20821W        W37295   9.593  10.815  13.328  0.2018  0.1410  0.0159
20822W        W37296  12.185  10.271  12.882 -0.1629 -0.0773  0.0781
20823W        W37297   4.975  11.352   5.368  0.0128 -0.0203  0.1384
20824W        W37298   5.238   6.127  15.700  0.1502  0.2403 -0.2758
20825W        W37299   8.586   2.974  11.256  0.3594 -0.3399  0.1572
20826W        W37300  12.366  15.957  11.449 -0.2265  0.1128 -0.0527
20827W        W37301  13.464  15.611   3.269 -0.0718  0.0696  0.1470
20828W        W37302   1.609   9.983  11.585 -0.0037 -0.2435  0.2348
20829W        W37303   9.164   3.017   4.349 -0.3250  0.0809  0.0580
20830W        W37304   9.422   2.586   2.856 -0.0723 -0.1100  0.1752
20831W        W37305   5.705  14.393  11.967 -0.0435  0.3247  0.1996
20832W        W37306  16.171   2.302   0.703  0.0056 -0.1175  0.1209
20833W        W37307   4.354  16.473  13.024  0.0111  0.1365  0.4235
20834W        W37308   6.132   0.538  15.329  0.0586  0.4342  0.1541
20835W        W37309   9.906  17.322   1.962 -0.2868 -0.0275  0.0677
20836W        W37310  11.599  16.395   1.675 -0.1758 -0.0248 -0.0423
20837W        W37311   8.729  14.948  15.914  0.1187  0.0714  0.3361
20838W        W37312   3.088   8.613  11.921  0.0804 -0.5380  0.0144
20839W        W37313  17.756   6.265  14.141 -0.3828  0.2305  0.0899
20840W        W37314   8.164  15.577  12.243 -0.0754 -0.2905 -0.0168
20841W        W37315  17.336  10.653   5.258 -0.3975 -0.2373  0.2346
20842W        W37316   9.156   4.107   3.619 -0.0891 -0.1345 -0.0622
20843W        W37317   5.181  10.812   0.802 -0.0705  0.1876 -0.0707
20844W        W37318  10.957  11.486  12.310  0.2271 -0.0172  0.0781
20845W        W37319   0.848   9.497  14.576  0.0652  0.0763  0.2052
20846W        W37320   5.893  14.000   3.427  0.1890 -0.3745  0.3817
20847W        W37321   9.700   0.523  12.534  0.3194 -0.1574  0.1499
20848W        W37322   0.214   1.988  15.496 -0.0475  0.0604  0.0176
20849W        W37323  14.516  16.168  13.877  0.1097  0.3212  0.2523
20850W        W37324   1.635   0.690  12.744 -0.1179 -0.1322 -0.1716
20851W        W37325   5.484  11.693  11.570  0.0982 -0.0594  0.2174
20852W        W37326   2.395  11.136  14.279 -0.0735 -0.3332  0.1702
20853W        W37327   1.444   1.900   5.585  0.2019 -0.3058 -0.1371
20854W        W37328  10.207  11.599   1.283 -0.1821  0.0813 -0.0799
20855W        W37329   1.204   4.503  12.791 -0.1365 -0.1467  0.0520
20856W        W37330   5.694   0.413   0.286  0.0056 -0.1227  0.2522
20857W        W37331  15.363  11.312  14.929 -0.1254  0.1327  0.1001
20858W        W37332  12.926  17.621   4.838  0.2099 -0.0966 -0.0219
20859W        W37333  10.317   4.739  16.338  0.0884 -0.2017 -0.0684
20860W        W37334  11.554   0.380  13.959  0.2127  0.0744  0.1978
20861W        W37335  10.739   7.162   2.889 -0.0076  0.3916 -0.0858
20862W        W37336  10.643   2.026  15.431  0.1634  0.0439 -0.1423
20863W        W37337   4.528   8.744   2.503 -0.2971 -0.0835  0.1666
20864W        W37338  13.800   2.483   3.399 -0.1192  0.0477 -0.2164
20865W        W37339   1.374   3.666   2.460 -0.1688 -0.1003 -0.1352
20866W        W37340   4.761   9.563  12.144  0.1712 -0.2290  0.1140
20867W        W37341  11.867  14.958   5.397  0.1663  0.0242 -0.1725
20868W        W37342   5.974  17.655  12.338  0.1209 -0.1989  0.1590
20869W        W37343  16.572   2.620   1.460 -0.0662  0.2167 -0.1669
20870W        W37344  14.602   4.103   4.556 -0.2123  0.1601  0.0451
20871W        W37345   1.831  12.388   4.701 -0.2140 -0.1703 -0.2684
20872W        W37346  10.611   0.886   0.740 -0.0436 -0.0738  0.3186
20873W        W37347  12.386  10.828   4.849 -0.1165  0.1245 -0.1127
20874W        W37348   2.886  11.262  12.694 -0.4274 -0.2742 -0.1049
20875W        W37349   5.536   0.727   4.416 -0.0044 -0.1036  0.0296
20876W        W37350   2.631  13.255   1.051 -0.2121  0.3264  0.3233
20877W        W37351  11.379   9.283  15.691  0.0944 -0.0624  0.2108
20878W        W37352   1.262   2.451   4.732 -0.2341  0.0098 -0.1154
20879W        W37353  11.120  14.510  13.906  0.0005 -0.3989  0.2523
20880W        W37354  10.545   0.495   6.237 -0.2111 -0.0882 -0.2545
20881W        W37355   2.412   5.007   3.702 -0.1122 -0.0056  0.0863
20882W        W37356   7.123   8.156   4.892  0.1249  0.1263 -0.1618
20883W        W37357   9.359  15.806  16.535 -0.3722  0.0641  0.1905
20884W        W37358  16.161   7.838   2.551 -0.0108  0.0780 -0.1141
20885W        W37359   6.957   2.506  13.956  0.0116  0.0990  0.0352
20886W        W37360   2.761   3.582  16.628  0.0377 -0.4342 -0.2625
20887W        W37361   1.603  13.574  14.753 -0.3807 -0.1099 -0.0579
20888W        W37362   4.017   6.437  11.940  0.1869 -0.0393 -0.0066
20889W        W37363  17.191  11.387   3.148  0.0017 -0.0872 -0.1704
20890W        W37364   8.993   4.204   1.663  0.0405  0.0269  0.3075
20891W        W37365   9.709  11.799   1.544 -0.0407 -0.0158  0.0398
20892W        W37366  11.433   9.007  14.292  0.2667  0.0074 -0.1675
20893W        W37367  13.517   2.197   5.621 -0.0174 -0.0478 -0.2607
20894W        W37368   1.538   0.164  12.842  0.0641  0.0140 -0.1986
20895W        W37369   8.347   6.425   5.564 -0.0873  0.5612  0.0125
20896W        W37370   2.739   0.799   0.016  0.1598 -0.2150 -0.0599
20897W        W37371  14.904  13.761   0.188  0.0583  0.0323  0.0939
20898W        W37372  15.292  17.300  14.042 -0.2034  0.2318 -0.3953
20899W        W37373   6.096   5.925   5.854 -0.1271 -0.0192 -0.0232
20900W        W37374  11.188   2.133   0.831 -0.0895  0.0443 -0.0262
20901W        W37375  12.439  15.263   4.736  0.0189 -0.0433 -0.0727
20902W        W37376   2.783  16.509  14.590  0.0413  0.1264 -0.2001
20903W        W37377   2.932   4.877   4.994 -0.1205 -0.1039  0.2596
20904W        W37378   9.124   3.615   1.949  0.1187  0.1101 -0.0143
20905W        W37379   0.997  13.684   1.470  0.3147 -0.0327  0.1481
20906W        W37380   3.192  11.554   0.935 -0.1434 -0.0969  0.0798
20907W        W37381   1.927  12.000   1.273  0.1557  0.0085 -0.1279
20908W        W37382   2.903   1.671   0.082 -0.3463 -0.0958 -0.3870
20909W        W37383   7.758  11.540  15.423 -0.0877  0.0721  0.0809
20910W        W37384   3.174   6.609   3.137  0.0135  0.1480 -0.1201
20911W        W37385   4.176   1.056  13.608 -0.2915  0.0154  0.1651
20912W        W37386  10.460   4.226   5.154 -0.0464  0.0676  0.2118
20913W        W37387   8.667   7.641   6.027 -0.0136  0.1058  0.2167
20914W        W37388  15.696  10.109  15.136  0.0006 -0.0125 -0.0661
20915W        W37389   2.939   9.318   0.852  0.2273  0.2326  0.3946
20916W        W37390  12.134   0.068   0.257  0.2281 -0.1613 -0.3184
20917W        W37391  13.622  16.019  16.061 -0.1726 -0.1018  0.2050
20918W        W37392  11.017  11.049  16.886  0.2105 -0.1814  0.4775
20919W        W37393  12.184  16.200   5.307 -0.1728  0.0425 -0.1283
20920W        W37394  17.407   1.137   6.035 -0.0394 -0.0536  0.3678
20921W        W37395   7.439   1.105   1.896 -0.1312  0.1737  0.1645
20922W        W37396  12.287   2.417  11.903 -0.0547 -0.5410 -0.0959
20923W        W37397   3.997  11.340  14.220 -0.2058 -0.0162 -0.0779
20924W        W37398  11.316   0.258   0.327  0.1086 -0.0293  0.0744
20925W        W37399  10.051   6.975   1.408 -0.1397  0.0439 -0.1484
20926W        W37400   2.410   1.653   0.017  0.0176 -0.2240  0.0709
20927W        W37401   4.369  10.010   5.333  0.0644  0.1874 -0.1882
20928W        W37402   8.907   7.680   2.037  0.0645  0.1495 -0.2208
20929W        W37403   1.610   3.460   4.461 -0.1534  0.0577 -0.0456
20930W        W37404   7.251   9.825  12.493 -0.2158  0.1046 -0.1342
20931W        W37405   2.038   2.560  16.790 -0.1096  0.1246 -0.0190
20932W        W37406   5.775   2.723   2.043 -0.0645 -0.2422  0.0373
20933W        W37407  17.573   2.740  15.188  0.1218  0.1993  0.1957
20934W        W37408   8.518  10.546   2.207 -0.3742  0.2882  0.1672
20935W        W37409   3.988  11.866   4.133 -0.2972 -0.0243 -0.2532
20936W        W37410  16.959   4.784  13.997  0.2195 -0.1884 -0.2107
20937W        W37411  15.113  15.816   4.544 -0.0374 -0.0606 -0.3084
20938W        W37412   2.849   5.668   2.062 -0.1737  0.0061 -0.0345
20939W        W37413   6.714   8.632  12.578  0.2808 -0.2712  0.0159
20940W        W37414  11.156   8.480  16.049  0.1315  0.0174  0.2693
20941W        W37415   0.033   6.582   4.253  0.3740 -0.1743  0.0051
20942W        W37416   1.000  16.516  16.468 -0.1562  0.0041  0.2341
20943W        W37417  12.429  15.796  15.297  0.0679  0.3703 -0.1171
20944W        W37418  12.498  14.712  16.458 -0.0662 -0.1112 -0.0803
20945W        W37419   4.888   8.282   1.808 -0.0714 -0.0670 -0.2306
20946W        W37420   1.523  12.032   3.360 -0.2109 -0.1385 -0.0455
20947W        W37421   0.854  13.583   3.747 -0.1912  0.0413 -0.2247
20948W        W37422   4.463   1.641   5.898 -0.1943 -0.0435 -0.1628
20949W        W37423  16.465   4.968   4.750 -0.0330  0.3719  0.0050
20950W        W37424   4.107  15.114   4.275  0.2987  0.1091  0.0452
20951W        W37425  14.237   8.869  12.536  0.2264 -0.2910  0.2402
20952W        W37426  13.558  10.522   1.144  0.2058 -0.2067 -0.2585
20953W        W37427  16.836   3.373  13.323 -0.1074  0.0283 -0.2754
20954W        W37428   5.898   1.924   6.018 -0.0437  0.2452 -0.2796
20955W        W37429   9.014   8.288   4.693 -0.0677  0.1388  0.0907
20956W        W37430  14.449  11.535  12.948  0.0815  0.0395  0.0009
20957W        W37431  11.104   3.382  11.770  0.2814 -0.0608 -0.4182
20958W        W37432  13.193  11.115   4.389  0.5302 -0.1095  0.2821
20959W        W37433  16.120  10.860   0.477 -0.0949 -0.4050  0.1047
20960W        W37434  13.790   5.977  13.724  0.0545  0.1464  0.3242
20961W        W37435  12.029   5.358  15.447  0.2821  0.2854  0.1073
20962W        W37436   8.508   1.577   2.751  0.0141  0.2184  0.3156
20963W        W37437  15.346  15.671  11.415 -0.0582 -0.0086 -0.3341
20964W        W37438  16.937   8.034  15.641 -0.1871 -0.1860  0.2988
20965W        W37439  11.224  17.371  12.718  0.0730 -0.1135  0.1453
20966W        W37440  13.832  17.366   3.469  0.1826 -0.1511  0.0878
20967W        W37441   2.612   9.840  14.437 -0.2969 -0.0965 -0.0578
20968W        W37442   3.990   3.173  12.882  0.2278 -0.0982 -0.0339
20969W        W37443   2.961   6.903   1.216  0.0219  0.0870  0.2802
20970W        W37444  15.907  10.404  13.418 -0.1869  0.0939  0.2895
20971W        W37445   3.608  12.727  12.650  0.2335 -0.1224  0.0402
20972W        W37446  15.033   2.042   1.200 -0.1654 -0.0427  0.2585
20973W        W37447  15.686  12.391   0.177  0.0050 -0.1815 -0.1410
20974W        W37448   1.621   4.624   3.965  0.0104  0.1378 -0.0022
20975W        W37449  13.912  11.478   1.453  0.1129  0.2084  0.3724
20976W        W37450   7.378   0.892   2.441 -0.0976  0.0620  0.0875
20977W        W37451  17.129  16.911   2.049 -0.0988  0.0616 -0.0814
20978W        W37452   2.185  14.853   2.938 -0.2532  0.1243  0.0912
20979W        W37453  10.872  14.988   2.857  0.0107  0.0573  0.1509
20980W        W37454  12.114  13.872   0.269 -0.1307  0.0351 -0.1088
20981W        W37455  15.339   4.748   2.848 -0.1217 -0.2081  0.2236
20982W        W37456   2.487  13.155  14.449  0.1303  0.5414 -0.3931
20983W        W37457   3.040   1.120   3.688  0.1895  0.2219  0.2073
20984W        W37458   5.722  13.691  12.659  0.0564  0.2476  0.1518
20985W        W37459  13.436  14.013   5.653 -0.1271 -0.1326  0.1294
20986W        W37460  10.265   9.194   2.734  0.1427  0.0974 -0.2536
20987W        W37461   0.644  13.853  15.108  0.1634 -0.0953 -0.0329
20988W        W37462  10.972   4.220  12.079 -0.2237 -0.0680  0.1078
20989W        W37463  15.836   2.566  15.925 -0.2980 -0.0862  0.3929
20990W        W37464  16.888   0.955   4.047 -0.0421 -0.2625 -0.0956
20991W        W37465  11.586   0.136   3.899 -0.0182  0.1061  0.0270
20992W        W37466   6.766   7.084  11.984  0.1550  0.1545  0.0825
20993W        W37467   2.896  13.450  14.676  0.2238 -0.0649  0.1150
20994W        W37468  13.269  10.117   2.496 -0.0134  0.0954 -0.0367
20995W        W37469  15.480  14.106  12.084 -0.0111  0.0230 -0.1835
20996W        W37470   6.960   6.219  16.268 -0.0063  0.0785 -0.0764
20997W        W37471   2.690   0.874   0.648  0.2043 -0.0090 -0.0771
20998W        W37472  10.474  14.872   3.284  0.0846 -0.0126 -0.2000
20999W        W37473   4.976   7.990  12.628  0.1738 -0.0346  0.1553
21000W        W37474  16.980  11.572  11.092 -0.0563  0.0553 -0.4216
21001W        W37475  15.375   5.235   5.607  0.0741 -0.0177  0.1322
21002W        W37476  15.622   3.192   1.227  0.2035  0.0536  0.0428
21003W        W37477   8.532  17.526  13.654  0.2031 -0.0982  0.1865
21004W        W37478  16.922   3.948   2.594 -0.0963  0.0205  0.1583
21005W        W37479  15.726  17.212   3.414 -0.2609  0.0055  0.1441
21006W        W37480   6.140   5.370   4.564  0.0149 -0.0820  0.1225
21007W        W37481   6.299   2.563  14.243  0.1103 -0.0852 -0.2030
21008W        W37482   5.650   4.012  12.869  0.2584  0.0672 -0.1119
21009W        W37483   5.536   2.949  13.818  0.4599  0.0885 -0.3965
21010W        W37484  11.718  12.239   3.401 -0.2975  0.1403 -0.1344
21011W        W37485   9.173  17.179  15.484  0.3673  0.0066  0.0386
21012W        W37486   6.378   1.408  16.704  0.2000  0.1253 -0.1907
21013W        W37487  17.556   6.624  16.405 -0.0059 -0.1429  0.0821
21014W        W37488   0.561  14.306   1.568 -0.0157 -0.3373 -0.1062
21015W        W37489   4.107  15.762  14.517 -0.1459 -0.0851  0.0938
21016W        W37490  13.615   0.122  13.511 -0.2871  0.0326 -0.2380
21017W        W37491   0.189  15.008  12.735  0.1155  0.0837  0.3385
21018W        W37492   5.152   3.772   4.751 -0.1981  0.1770 -0.1439
21019W        W37493   7.325   3.116   0.148  0.0303 -0.0929  0.0108
21020W        W37494  13.514  15.636  15.603 -0.2398 -0.2689 -0.2958
21021W        W37495  16.038   7.816   3.142  0.0225  0.1647 -0.0045
21022W        W37496   9.674   5.986   2.690  0.3270 -0.1551 -0.2803
21023W        W37497   3.486  12.974   5.383  0.2911  0.0985 -0.2416
21024W        W37498   8.191  17.315  14.648  0.2460  0.2864  0.0143
21025W        W37499  13.640  11.280  13.459 -0.0135  0.0583 -0.0196
21026W        W37500   4.042   0.692  16.787  0.1841 -0.3386  0.0017
21027W        W37501  14.450   5.695   0.367  0.2179 -0.0066 -0.0945
21028W        W37502   0.447   0.122   1.041 -0.0432  0.1537 -0.0822
21029W        W37503   1.865   1.205   3.473 -0.0538 -0.0456 -0.0568
21030W        W37504  10.777   9.792  15.196 -0.1110  0.3330  0.1224
21031W        W37505   7.140   0.076  13.341  0.0002 -0.3704 -0.1428
21032W        W37506  11.217   9.064   3.223  0.0076  0.2065 -0.1213
21033W        W37507  10.923  15.031  16.693 -0.1937 -0.2794 -0.0121
21034W        W37508   3.700  11.220   2.094 -0.2915  0.2776  0.1078
21035W        W37509   2.827  17.243   2.278 -0.0411  0.1895 -0.1378
21036W        W37510  16.088   9.564   4.334  0.1192  0.0963 -0.1210
21037W        W37511   1.757   5.706   2.343 -0.0173 -0.1574  0.0537
21038W        W37512   7.453  11.908   4.548  0.0750  0.1900 -0.1595
21039W        W37513   5.574  10.947  15.282  0.2268 -0.3047 -0.1350
21040W        W37514  13.956  14.456   4.732  0.0186  0.2310 -0.0038
21041W        W37515   1.949   7.339   4.872  0.0548  0.4259  0.3691
21042W        W37516   4.288  10.692   3.397 -0.0070 -0.1394  0.2326
21043W        W37517   1.328   5.123   1.655  0.1801 -0.3696  0.0959
21044W        W37518   1.506  11.965   3.841  0.0722  0.2051  0.0957
21045W        W37519   6.152   7.501   5.440 -0.2149 -0.0936  0.0845
21046W        W37520  16.336  10.270   3.565 -0.3501 -0.0166 -0.1296
21047W        W37521   4.936   8.929  12.779  0.2318  0.2405 -0.1300
21048W        W37522   0.128   6.023   3.595 -0.0615  0.0400 -0.0567
21049W        W37523   7.221  15.487  15.187  0.1350 -0.0746  0.3193
21050W        W37524   1.202  16.700  11.734  0.2610 -0.0399 -0.1551
21051W        W37525  10.413   1.135   2.235  0.1087  0.2920  0.1210
21052W        W37526  15.563   3.394  15.545  0.0722 -0.0464 -0.2235
21053W        W37527   0.481  16.292  16.320  0.0004 -0.0243 -0.1900
21054W        W37528   9.022   7.373   2.513  0.3854  0.1095 -0.0338
21055W        W37529  11.626  10.267  12.808 -0.0030 -0.1304  0.2919
21056W        W37530   2.182  13.786  13.565 -0.1108 -0.3164  0.0455
21057W        W37531  16.052  10.848  14.482  0.0280 -0.0494  0.0561
21058W        W37532   0.848   5.470  16.074 -0.4928  0.0680  0.0412
21059W        W37533   8.037   2.161   5.151 -0.0597 -0.1832  0.0559
21060W        W37534   2.011  16.097  12.457  0.3570 -0.0050  0.1893
21061W        W37535  10.785  12.684   0.821  0.1230  0.1721 -0.3764
21062W        W37536   6.844   1.311  11.906 -0.0210 -0.1044 -0.2731
21063W        W37537   3.164  14.576  14.971 -0.0993 -0.0204 -0.2879
21064W        W37538  10.387  17.718   5.260  0.0831 -0.2198 -0.0575
21065W        W37539   2.148  11.605   4.434 -0.0913 -0.1373 -0.0281
21066W        W37540   8.220   5.460  14.656  0.0425  0.1096 -0.0946
21067W        W37541   6.114   9.330   2.634  0.1293 -0.3138 -0.0289
21068W        W37542  16.322   8.528  13.615  0.1321 -0.1661  0.2987
21069W        W37543  14.736  12.923   2.886 -0.1177  0.2515  0.1412
21070W        W37544   8.832   3.604  14.390  0.1327  0.0647  0.1358
21071W        W37545   8.800   7.081  13.969  0.0954 -0.1606 -0.0868
21072W        W37546   7.612   6.451   4.042  0.0276  0.1656 -0.0581
21073W        W37547  12.313  11.786   1.177  0.0252 -0.1178  0.4112
21074W        W37548   6.122   7.085   0.766  0.0482  0.1325  0.0389
21075W        W37549  15.908   2.681   4.168  0.0364  0.1855 -0.2636
21076W        W37550  17.664  15.200  13.165 -0.1008  0.0556  0.0192
21077W        W37551   4.711  17.302   3.764 -0.0831 -0.1726  0.0151
21078W        W37552   5.360   8.243   4.504  0.0956  0.1438  0.3646
21079W        W37553   7.235  16.065   2.933  0.0867 -0.0561 -0.1729
21080W        W37554  16.085   6.738   5.777  0.0316 -0.1593 -0.2066
21081W        W37555   6.182   5.752  15.484  0.1932  0.1271 -0.0939
21082W        W37556   0.034  10.126   5.823 -0.2778  0.0272  0.1217
21083W        W37557  14.209   1.724  16.494 -0.1555  0.0756 -0.0217
21084W        W37558  14.178   8.498  11.833 -0.1288 -0.3385 -0.1447
21085W        W37559  15.036   9.712   4.071  0.0351 -0.3835  0.0867
21086W        W37560   9.644  13.936   4.122  0.0734 -0.0833  0.1746
21087W        W37561   6.972   8.020   1.816 -0.0567  0.1361 -0.1527
21088W        W37562   7.672  16.764   5.024  0.1407  0.1343 -0.2027
21089W        W37563  11.921  14.203   5.816 -0.0917 -0.3296 -0.1061
21090W        W37564  17.823   4.780   1.270  0.0292 -0.1967  0.2212
21091W        W37565   0.939   8.241  15.031 -0.3412  0.0576  0.1710
21092W        W37566  14.435   8.952   4.209 -0.0866  0.1709 -0.1261
21093W        W37567   4.094   0.726  13.203 -0.0329  0.0495 -0.1355
21094W        W37568   7.228  14.086  15.549 -0.1306 -0.0247 -0.0200
21095W        W37569   4.167  10.167  11.995  0.1664 -0.0488  0.0790
21096W        W37570  13.048   5.006  12.500  0.0635 -0.3157  0.1811
21097W        W37571   7.174   2.535   0.115  0.2617  0.0267 -0.2382
21098W        W37572   4.902   1.023   0.948  0.3310  0.0819 -0.2571
21099W        W37573  11.635   6.320  12.133  0.1652  0.1554 -0.1399
21100W        W37574   2.860  16.072  14.759  0.0902  0.0565 -0.0659
21101W        W37575   3.874   7.068  14.843  0.0443  0.1041  0.2612
21102W        W37576  11.315   9.813   3.757  0.1415 -0.0791  0.2726
21103W        W37577  14.002  12.818  14.290  0.2007  0.1352  0.1313
21104W        W37578  13.025   2.540   4.948  0.1222 -0.1258  0.1466
21105W        W37579  14.668   8.927   2.953  0.2551  0.0188 -0.0391
21106W        W37580   8.275  11.655  14.262 -0.0365  0.0767 -0.1171
21107W        W37581   2.800   4.964  12.831  0.0578  0.1108  0.3439
21108W        W37582   2.475  16.728   3.247  0.0047 -0.0586  0.2047
21109W        W37583  12.471   1.953  12.888 -0.2485 -0.0389  0.1354
21110W        W37584   5.262   6.743   0.890  0.0073 -0.1795 -0.1229
21111W        W37585   5.581   8.657  15.021 -0.0102  0.1299 -0.0700
21112W        W37586   5.427   1.611  15.457 -0.1472  0.0256 -0.0688
21113W        W37587  12.162  16.595   3.959 -0.0949  0.0373 -0.0274
21114W        W37588   4.198  10.351   7.784  0.0185  0.1719 -0.3485
21115W        W37589   2.218  12.828  12.491  0.1888 -0.2198 -0.1055
21116W        W37590   8.041   0.025  10.499  0.1678 -0.0248 -0.0088
21117W        W37591  13.435  16.321   1.442  0.0259 -0.2136 -0.0217
21118W        W37592   2.512   1.487  12.315 -0.1839  0.2393 -0.2762
21119W        W37593  13.554   5.921  14.198  0.1155  0.1320  0.0383
21120W        W37594   5.150  12.738  13.558 -0.1913  0.0635  0.1617
21121W        W37595  12.277  13.582  15.250  0.1432 -0.2736  0.2689
21122W        W37596  14.296  17.599  16.804  0.1006 -0.0006 -0.3416
21123W        W37597   1.583  14.315   0.561  0.2384 -0.1296 -0.2080
21124W        W37598   7.849   2.061   3.546  0.0910  0.4774  0.1267
21125W        W37599  11.286   3.645  13.475 -0.0023 -0.2530 -0.0391
21126W        W37600  17.259   0.434   4.722  0.1133  0.0383 -0.2580
21127W        W37601   8.117   5.972  13.729 -0.0091 -0.1012 -0.1037
21128W        W37602   7.057   2.701  16.210  0.1270 -0.0396  0.0900
21129W        W37603   0.685   5.812   2.877 -0.2667  0.0895 -0.1771
21130W        W37604  11.202   9.347   3.973  0.1643 -0.3885 -0.0113
21131W        W37605  16.908  14.534  12.064 -0.3433 -0.1632 -0.1864
21132W        W37606  10.591   3.320   0.284  0.0497 -0.1212 -0.0222
21133W        W37607   4.949   8.634  16.460  0.3339 -0.0805 -0.0329
21134W        W37608  12.845   1.535  12.042  0.0998  0.1443 -0.1177
21135W        W37609   2.064   1.939   4.290 -0.1159 -0.1140  0.0167
21136W        W37610   5.842   6.752  15.537 -0.2356 -0.1138  0.0388
21137W        W37611  15.616   8.933   0.073  0.0849 -0.1200  0.0697
21138W        W37612  10.549  11.152  15.449  0.1326  0.0304  0.1152
21139W        W37613  13.826  14.000   4.400 -0.2374 -0.1099  0.1085
21140W        W37614  13.046  14.174   1.392 -0.2450 -0.0969  0.2690
21141W        W37615  13.567  14.185   0.543  0.0324 -0.0218 -0.0103
21142W        W37616   6.663   4.224  16.736  0.2613 -0.0686  0.1901
21143W        W37617   7.173   9.837  14.504 -0.1181 -0.0404  0.1536
21144W        W37618   3.528  12.737  13.737  0.0836 -0.1017  0.3363
21145W        W37619   0.526  10.733   4.188  0.0917  0.0511  0.5717
21146W        W37620   3.032   6.052  14.055  0.0469 -0.0195  0.1489
21147W        W37621  17.059   4.584   1.328  0.6396  0.0125 -0.0894
21148W        W37622  15.639   6.440   4.428 -0.3965 -0.1321 -0.0259
21149W        W37623  10.846   9.254   0.546 -0.0906 -0.0317  0.1429
21150W        W37624   9.715   7.747   4.975  0.1611 -0.0348 -0.1000
21151W        W37625   4.865  17.650   0.076  0.2652  0.0298  0.0635
21152W        W37626   7.006   4.497  12.987 -0.2539 -0.0681  0.1568
21153W        W37627  14.101   6.048  14.860 -0.2075  0.0865 -0.0336
21154W        W37628   2.899  12.488   0.011 -0.1053 -0.0236  0.0757
21155W        W37629   4.210  17.188   4.817  0.2288 -0.1454 -0.1050
21156W        W37630   6.556   2.938   2.710 -0.2347 -0.0089  0.0978
21157W        W37631   2.234  11.027   4.468  0.0181 -0.2555 -0.2459
21158W        W37632  10.297   1.797   1.036  0.1812 -0.3553 -0.3597
21159W        W37633  14.082  13.744  15.872  0.0914  0.2077 -0.2615
21160W        W37634  11.126   9.663   5.538 -0.2010 -0.1468  0.0035
21161W        W37635   2.767  17.043  14.844 -0.2212  0.2241  0.0031
21162W        W37636   3.178   9.125  15.292  0.1823 -0.3611 -0.0210
21163W        W37637   2.078  12.536   5.117  0.0869 -0.1847  0.0926
21164W        W37638  11.552  13.622   5.259  0.1194  0.1800  0.0951
21165W        W37639  13.737  16.756   1.251 -0.2174 -0.0224 -0.2505
21166W        W37640  14.048  13.127  12.473  0.3283  0.2290 -0.2557
21167W        W37641   8.659   2.455   0.371  0.0740  0.0373  0.4835
21168W        W37642   2.496   9.093  12.875  0.1278  0.1056  0.0583
21169W        W37643   3.003   0.100  16.232  0.0188 -0.1928  0.0301
21170W        W37644  12.384  17.588  13.537  0.0586  0.4011 -0.2696
21171W        W37645  10.707   1.137  14.265 -0.0166 -0.0204  0.1850
21172W        W37646   8.300  15.885   4.228  0.1817  0.1269 -0.1167
21173W        W37647   2.068   4.590  14.522 -0.1352 -0.0295  0.0859
21174W        W37648  13.014  14.112  13.487 -0.1706 -0.0277  0.0081
21175W        W37649   5.781  13.457  14.564  0.1575 -0.0153 -0.1036
21176W        W37650   7.536   6.957   3.869 -0.4593  0.2275  0.3145
21177W        W37651  17.605   1.174   5.106  0.0366  0.2647 -0.2608
21178W        W37652   8.622   6.721  15.076  0.0219 -0.1152 -0.0505
21179W        W37653  15.410   8.679   4.016  0.1784 -0.2526  0.0237
21180W        W37654   0.189  15.253   2.031 -0.0561 -0.0374  0.2988
21181W        W37655   4.293   4.825   1.720 -0.0837  0.1157  0.1582
21182W        W37656   7.262  11.164   5.195  0.1961 -0.0347 -0.2133
21183W        W37657  14.305  12.025   0.168  0.4019  0.0138 -0.0404
21184W        W37658  10.599  15.739  14.112 -0.0509 -0.0136  0.0588
21185W        W37659   6.102   6.689   4.778  0.2464  0.2557  0.2714
21186W        W37660  15.079   4.232   4.563  0.0397  0.2332 -0.1039
21187W        W37661  10.951  15.894  11.268 -0.2803  0.0743 -0.0209
21188W        W37662   0.301  10.721  13.692  0.0500  0.1001  0.1832
21189W        W37663  15.751  10.956   0.914 -0.1769 -0.1647  0.0101
21190W        W37664  17.356   6.534   2.896  0.3368 -0.0753  0.1582
21191W        W37665   5.521   4.601   2.894 -0.1837  0.2714 -0.0704
21192W        W37666   0.435  16.227   2.592  0.3847 -0.2228  0.0014
21193W        W37667  14.270  16.207  15.559  0.2824 -0.0950  0.0759
21194W        W37668  15.514   7.980   4.665 -0.1966 -0.0919 -0.1996
21195W        W37669  17.020   1.221  13.667 -0.1622 -0.0686  0.0173
21196W        W37670  13.428   3.073  14.795 -0.0091 -0.1788  0.1443
21197W        W37671  10.882  10.210   0.185 -0.0636  0.0072 -0.0562
21198W        W37672  14.332   3.690   4.430  0.0114 -0.1973 -0.0951
21199W        W37673  11.057  15.451   3.114 -0.1368  0.0399 -0.0662
21200W        W37674   9.709  11.039   2.028  0.0168  0.1110  0.0308
21201W        W37675  15.257   1.282  12.833  0.2286  0.0662 -0.0198
21202W        W37676  17.487   1.530  12.835  0.0448 -0.0892  0.0924
21203W        W37677   8.193  13.940   5.981  0.2739 -0.0068 -0.3244
21204W        W37678   2.959  16.572   2.537  0.1308 -0.1270  0.2969
21205W        W37679   1.063   8.001  15.506  0.2702  0.1537 -0.2201
21206W        W37680  13.774  15.927   4.508 -0.0208  0.3923 -0.1953
21207W        W37681  15.197  14.991   1.755 -0.0077 -0.2868  0.1224
21208W        W37682   1.803   9.669  15.548 -0.1143 -0.3461  0.1000
21209W        W37683  10.453   8.694  12.254 -0.2879  0.1656  0.1487
21210W        W37684  14.367   6.626   3.766 -0.0679 -0.1391 -0.1447
21211W        W37685   2.783   3.371   0.147 -0.4906 -0.0537  0.0463
21212W        W37686   6.955   0.224  14.343  0.1193  0.3556 -0.2078
21213W        W37687   9.136  16.374   4.183 -0.1185  0.0518  0.2661
21214W        W37688  15.951   8.203  15.577  0.1335 -0.3479 -0.2067
21215W        W37689   2.205  15.406  13.234 -0.0119  0.0427 -0.3498
21216W        W37690  14.131   4.200   4.302 -0.2336  0.0130  0.0978
21217W        W37691   2.009  12.917  11.578  0.1599  0.1473  0.2376
21218W        W37692  10.546   4.323   1.092 -0.1454  0.1583  0.0951
21219W        W37693  12.832   2.309  12.616 -0.2681 -0.0706  0.0648
21220W        W37694  10.398   5.222  16.209 -0.0482  0.1210 -0.2263
21221W        W37695   2.528  17.722   4.921 -0.0258 -0.1471 -0.2999
21222W        W37696  14.257   2.556  12.403  0.0190  0.0220  0.0229
21223W        W37697   6.606  17.491   2.560  0.1581  0.1212 -0.0688
21224W        W37698  13.306  10.780  15.095  0.1056 -0.0084 -0.1695
21225W        W37699   2.044  10.298  16.615 -0.0047 -0.2607  0.1360
21226W        W37700   4.569  11.367   3.935  0.3617 -0.0520 -0.2466
21227W        W37701   3.233  10.455  12.255  0.1192 -0.0543  0.0260
21228W        W37702  14.950   5.882  13.032 -0.0582  0.1575  0.2079
21229W        W37703   7.882   2.256   1.685 -0.2657  0.1591 -0.2214
21230W        W37704  14.518  14.335  12.398 -0.2446  0.1605 -0.0178
21231W        W37705   3.774   5.355   0.812 -0.1205 -0.0878 -0.2201
21232W        W37706   1.735   0.539   4.280  0.0049  0.0633  0.2005
21233W        W37707  13.524   3.338  12.627 -0.0811  0.2083 -0.0705
21234W        W37708  12.600   7.884  16.206 -0.1413 -0.0797  0.2663
21235W        W37709  10.060   7.137   0.081  0.1772  0.0710  0.0691
21236W        W37710  11.122   7.873   5.152 -0.1954  0.0653 -0.1471
21237W        W37711   4.519   1.967   3.431  0.0766 -0.4884  0.0305
21238W        W37712   2.554  16.584   4.223  0.1508  0.1646 -0.0995
21239W        W37713  12.751   9.607  13.390  0.1503 -0.0894  0.0891
21240W        W37714  10.255   5.033  13.248 -0.0175 -0.1240  0.2212
21241W        W37715   1.870   1.684  15.986 -0.0997  0.1656 -0.1976
21242W        W37716   4.459  10.500  13.889 -0.1514  0.2402  0.1025
21243W        W37717   3.420  11.132   4.610 -0.1116  0.1105 -0.4410
21244W        W37718   1.288  13.967   3.277 -0.2146  0.0525  0.0504
21245W        W37719   4.126   6.247   4.287  0.0339  0.1298  0.0335
21246W        W37720   6.323   9.615   6.395  0.1467 -0.1953 -0.4028
21247W        W37721   8.162  13.834  14.927  0.0186  0.1614  0.0661
21248W        W37722   5.083  14.733   3.443 -0.0539 -0.2550  0.1821
21249W        W37723   7.777   2.470   0.182  0.1223  0.3133 -0.1470
21250W        W37724  15.369  17.601   3.374 -0.2040 -0.2251 -0.1822
21251W        W37725   7.936   4.075  16.240 -0.1699 -0.4079  0.0639
21252W        W37726   2.502  12.046  15.153  0.1752  0.0746  0.2501
21253W        W37727  15.897   2.630   2.324  0.1512 -0.0895 -0.0458
21254W        W37728   0.814  10.771  16.873 -0.1634 -0.0184  0.0395
21255W        W37729   4.371   9.647  13.699  0.0278 -0.1750  0.1289
21256W        W37730   3.082  15.964  13.866 -0.1196 -0.0693 -0.0318
21257W        W37731  17.178   8.350   2.971 -0.0751 -0.1268  0.0203
21258W        W37732   8.366   3.672  14.189  0.1211  0.0961  0.2511
21259W        W37733   4.612  15.421   3.013  0.1253  0.2399 -0.1322
21260W        W37734  13.715  11.303  12.336  0.1749  0.0673 -0.1485
21261W        W37735   1.887  16.701  12.805 -0.2999 -0.3288 -0.1058
21262W        W37736   0.148  14.657   0.847  0.1983 -0.0162  0.1090
21263W        W37737  11.808   7.213  13.622 -0.2264  0.0886 -0.0226
21264W        W37738   1.265   2.894  13.661  0.2927  0.0481 -0.0878
21265W        W37739   9.745  17.392   4.141  0.0438 -0.0641 -0.1445
21266W        W37740   4.958  15.423   2.119  0.1230 -0.0595  0.0385
21267W        W37741   8.929   2.481   4.733  0.0960 -0.1007  0.0223
21268W        W37742  10.639   5.981  15.791  0.0162  0.0848  0.2341
21269W        W37743   9.174   1.749  14.467 -0.1227 -0.2701  0.2649
21270W        W37744  16.414  13.458  15.301  0.0993  0.0995 -0.1091
21271W        W37745   4.621   1.859   0.851  0.0722  0.1330  0.0755
21272W        W37746  17.191   5.037   4.170 -0.0650  0.1567 -0.1900
21273W        W37747  15.159  12.148  14.385 -0.1588 -0.3086 -0.1269
21274W        W37748   4.228   1.222   5.026 -0.0988  0.0057  0.3014
21275W        W37749   7.031  15.471   3.132  0.0031 -0.2394  0.0010
21276W        W37750   9.657   4.199   0.633  0.0592  0.1671  0.1534
21277W        W37751  17.349   2.651   2.641  0.1573  0.0436 -0.1810
21278W        W37752  12.901   7.283  14.535 -0.1281  0.3114  0.0923
21279W        W37753  11.080   1.780   1.956  0.1778 -0.0946 -0.1035
21280W        W37754   2.359  14.519  16.535  0.0090  0.2488  0.3451
21281W        W37755   5.590   0.283  14.472  0.3828 -0.1346  0.0616
21282W        W37756  16.377  11.171   3.208  0.1310 -0.1809 -0.2937
21283W        W37757   7.898  12.079  16.534  0.1197  0.1473 -0.0121
21284W        W37758   5.071   9.852  16.054 -0.2181  0.1689 -0.1898
21285W        W37759  11.710  15.532  16.231 -0.2941  0.0884 -0.0075
21286W        W37760   5.915  15.048   2.292  0.0832  0.0537 -0.0264
21287W        W37761   1.377  11.538  12.608 -0.1911  0.2142 -0.0338
21288W        W37762  16.617   6.387  11.509 -0.1130 -0.0690 -0.0587
21289W        W37763   9.519   8.292  12.132  0.0028  0.1413  0.2361
21290W        W37764  12.665   6.597   1.830  0.2590  0.0564  0.2118
21291W        W37765   9.965  14.511  11.925 -0.3384  0.0942 -0.1855
21292W        W37766   5.700   6.368   2.552  0.1844 -0.1590 -0.2608
21293W        W37767  15.943   3.963   4.615 -0.1359  0.0600  0.2520
21294W        W37768  10.974  12.019   0.763  0.0758 -0.2984 -0.2999
21295W        W37769   9.002  13.355   1.473 -0.1174 -0.0750 -0.0036
21296W        W37770   1.681   3.924  15.714 -0.3395 -0.0886 -0.1729
21297W        W37771   0.270   2.248   6.433 -0.1804 -0.0314 -0.1072
21298W        W37772   3.965   0.463  15.247 -0.2573  0.3973  0.0512
21299W        W37773   2.389  10.239  14.346 -0.1225  0.3445 -0.3032
21300W        W37774  17.786   9.295  14.112  0.0898 -0.0363  0.0564
21301W        W37775   7.548   8.774   1.055 -0.1366 -0.1599  0.3255
21302W        W37776  10.846   6.698   3.685  0.1904  0.2226 -0.0857
21303W        W37777  16.076  16.905   4.216 -0.0304 -0.1098 -0.0407
21304W        W37778   8.012   2.127  13.693  0.0113 -0.4901  0.1037
21305W        W37779  15.699  16.134   5.567  0.1520  0.0093  0.0204
21306W        W37780  12.232  14.499  15.999 -0.0629 -0.0870 -0.1766
21307W        W37781   2.583  12.009   3.485 -0.2505  0.0686 -0.1953
21308W        W37782   4.315   8.188  11.925 -0.3501 -0.1804 -0.1565
21309W        W37783   6.001   9.791  15.652  0.2546  0.2135 -0.1076
21310W        W37784   8.058   5.118   4.092  0.0710  0.0436 -0.1514
21311W        W37785   2.771   7.243  16.384 -0.3315 -0.0449 -0.0198
21312W        W37786   4.650   7.851  11.591  0.0029  0.0470 -0.0574
21313W        W37787   0.995   2.073  16.033 -0.1887  0.0915 -0.0379
21314W        W37788   9.281   3.989  11.766 -0.0669 -0.1465  0.1303
21315W        W37789   6.768  17.641  14.944 -0.0196 -0.1615  0.3928
21316W        W37790   4.795   5.936  16.745 -0.1427 -0.2071 -0.1081
21317W        W37791  15.864  14.014  14.833  0.0320  0.0832  0.0777
21318W        W37792  16.328  14.520   4.546 -0.1118  0.0842  0.2586
21319W        W37793   1.301  13.079  16.169 -0.1589  0.1877 -0.0300
21320W        W37794   5.787  10.960  13.253  0.2064 -0.0007  0.1467
21321W        W37795   6.591   8.247   4.281  0.2266  0.2375  0.2008
21322W        W37796  17.196   1.134  12.960  0.3344 -0.2872  0.1983
21323W        W37797   5.588  15.568  15.169  0.1362  0.0997  0.0117
21324W        W37798   4.818  16.703  13.479 -0.0980 -0.2252  0.0990
21325W        W37799  15.188  12.290   5.040 -0.0986  0.2665 -0.0200
21326W        W37800   9.563   9.640  16.907  0.0789  0.0362 -0.2860
21327W        W37801   1.604   1.867   0.467 -0.2442  0.1761 -0.2585
21328W        W37802   6.013   2.820   3.548 -0.0300  0.0053  0.0063
21329W        W37803   2.751  15.525  14.097 -0.2954  0.1278  0.0057
21330W        W37804   8.885  11.475   0.135  0.1041  0.1309 -0.0158
21331W        W37805  12.407  16.124  13.346 -0.1128 -0.0499  0.0101
21332W        W37806  10.123  16.217   3.675 -0.1510  0.0051  0.0484
21333W        W37807   5.610  11.674  12.119 -0.0334  0.2592  0.2431
21334W        W37808   7.670   8.836  13.878 -0.1869 -0.1523 -0.1378
21335W        W37809   1.484   3.283   0.403  0.2339  0.1608 -0.2641
21336W        W37810  10.419  10.156   4.105  0.0004  0.1094 -0.2368
21337W        W37811   2.716  16.287  12.936 -0.2423 -0.2016  0.3515
21338W        W37812  16.968  13.988   5.275 -0.0263 -0.3026 -0.2323
21339W        W37813   7.038   0.868  16.914  0.1876  0.2430  0.0971
21340W        W37814   4.298   3.060   0.472 -0.0721  0.1707  0.0505
21341W        W37815  14.348   1.134  15.930  0.2552 -0.2910  0.1761
21342W        W37816   4.837   0.357   0.043  0.1120 -0.0787  0.2382
21343W        W37817  17.664   5.878  12.693 -0.1865  0.1155  0.1360
21344W        W37818   3.057  10.097   3.792 -0.2617 -0.0474 -0.2164
21345W        W37819  12.993   9.085   2.439 -0.0015  0.2594  0.3284
21346W        W37820   5.954   9.751   3.619 -0.1357 -0.0891 -0.0262
21347W        W37821   6.326  14.260  16.393 -0.0909  0.0971  0.1706
21348W        W37822   3.768   1.716   6.721  0.0246 -0.0241  0.2047
21349W        W37823   9.390  15.793  11.032 -0.0757  0.2767 -0.2863
21350W        W37824  14.271   7.820  14.075 -0.0312  0.3637  0.1001
21351W        W37825   2.321   8.436  16.791  0.2390 -0.0777  0.1333
21352W        W37826  10.917  17.136   5.812 -0.1434  0.0623  0.6265
21353W        W37827   7.698  14.101   0.592 -0.3124  0.0787 -0.0514
21354W        W37828  13.577   6.228  14.771 -0.2663 -0.3543 -0.0079
21355W        W37829  10.506   1.569  16.181  0.1554 -0.0072  0.0574
21356W        W37830  13.971  12.450   3.368 -0.0969  0.0962  0.0528
21357W        W37831   7.419   8.259   0.477 -0.1215 -0.0286 -0.1134
21358W        W37832   3.989  13.865  13.285  0.0236  0.1601  0.1581
21359W        W37833   3.002   1.628   3.826 -0.2791 -0.2667  0.0854
21360W        W37834   5.368  10.251   0.206 -0.0442 -0.1696  0.2480
21361W        W37835   6.955  11.298   2.006  0.0002 -0.0707  0.2602
21362W        W37836  15.764   7.484   4.723 -0.0553 -0.1255  0.0776
21363W        W37837   7.060  11.677   1.194  0.0209  0.2248 -0.0323
21364W        W37838  15.292  16.650  16.239  0.0174  0.2309 -0.0353
21365W        W37839  11.468   2.560  13.535 -0.0358 -0.2421  0.0643
21366W        W37840   6.310  12.320   0.309 -0.1190 -0.2042 -0.1121
21367W        W37841   3.915  11.549   3.280 -0.2305  0.0819 -0.0727
21368W        W37842   3.307  10.793   5.697  0.1315  0.0085 -0.0063
21369W        W37843  15.327  14.079  14.039  0.1305 -0.1034 -0.2084
21370W        W37844  15.083  17.103   5.702  0.1670  0.2920  0.2635
21371W        W37845   9.056   1.372  14.728  0.0337  0.0685  0.0875
21372W        W37846   8.464   7.816   0.400  0.1788 -0.5395  0.0893
21373W        W37847   2.941  14.056   0.016  0.2020 -0.2802  0.1024
21374W        W37848   9.376  16.881  11.751 -0.0135  0.0170  0.1114
21375W        W37849   5.166   8.378  15.084 -0.4873  0.2846  0.1251
21376W        W37850  10.171  11.405   4.625  0.0768  0.5133  0.2459
21377W        W37851   9.676   7.357  16.814  0.3102  0.2395 -0.1971
21378W        W37852   5.468   1.666  14.536  0.0874 -0.0629 -0.0052
21379W        W37853   6.535   6.197  11.575  0.2313 -0.1021  0.1688
21380W        W37854   9.539   0.173  12.850 -0.0899  0.1208  0.0676
21381W        W37855   5.203   1.654   4.334 -0.4729 -0.1317 -0.0680
21382W        W37856  15.334   4.300   2.673  0.0018  0.2287 -0.0325
21383W        W37857   2.211   6.442  14.828  0.1432  0.1473  0.0541
21384W        W37858   7.958   5.171   0.167  0.0939  0.2683 -0.2729
21385W        W37859   7.302   4.544   6.139 -0.0575  0.1672  0.1365
21386W        W37860   0.684  17.008  13.386  0.0063  0.0072 -0.2463
21387W        W37861   4.280  12.222   2.728 -0.0765 -0.0922  0.3170
21388W        W37862  16.440   0.353   5.454 -0.2253  0.0398  0.1917
21389W        W37863   2.177  17.268   1.657 -0.1745  0.4911 -0.1496
21390W        W37864  15.505  10.159  12.887 -0.1232 -0.0057  0.1549
21391W        W37865   7.356  12.778  16.574 -0.0536 -0.1491  0.0640
21392W        W37866  16.871   3.090  13.725 -0.1325 -0.2550  0.2852
21393W        W37867  15.868  11.180   2.939 -0.0315 -0.0637 -0.0087
21394W        W37868   8.582   0.420   5.017 -0.0758 -0.1750  0.2896
21395W        W37869   9.494   8.157  15.489  0.0067  0.2807  0.1654
21396W        W37870  17.760   2.880   0.852 -0.2112  0.1076 -0.1987
21397W        W37871  17.252   4.227   4.547 -0.2185 -0.1176 -0.0962
21398W        W37872   6.724   4.782  14.843 -0.3204  0.1100  0.1457
21399W        W37873   3.983  17.058   6.207 -0.0796  0.0393  0.2464
21400W        W37874   6.358   8.204   1.702 -0.0483 -0.0373 -0.3036
21401W        W37875   7.941   0.380  13.290 -0.2621  0.0520 -0.2032
21402W        W37876   8.181   2.167   6.450  0.0899  0.1682 -0.2566
21403W        W37877  11.253  14.742   3.657 -0.0895 -0.2113 -0.0493
21404W        W37878  15.584   7.712   5.564  0.1580  0.0823 -0.0721
21405W        W37879   5.752  11.683   2.650  0.0815  0.0606  0.0284
21406W        W37880  15.862  14.241   5.199  0.1382 -0.1015  0.1213
21407W        W37881  10.964  13.459   3.030 -0.1298 -0.3048 -0.1580
21408W        W37882   3.828   5.834  16.848 -0.2386  0.0737  0.0121
21409W        W37883   0.290  17.363  14.238  0.0488  0.1731 -0.2554
21410W        W37884   5.003   6.383   0.063  0.0190  0.2767 -0.1708
21411W        W37885  13.786  16.549   2.845  0.0507 -0.2640  0.0549
21412W        W37886   1.517  13.030  11.379  0.1290  0.1093  0.0600
21413W        W37887   8.818   4.781   2.774  0.0289  0.1805 -0.0175
21414W        W37888   5.249   2.051   5.197  0.2100 -0.4649  0.1302
21415W        W37889   8.453   5.069  13.652 -0.1262 -0.3354  0.0491
21416W        W37890   2.000  11.346  15.022  0.1402 -0.2371  0.0462
21417W        W37891   1.593   3.014  15.701 -0.0494  0.1359  0.2169
21418W        W37892   3.792  16.709   3.649 -0.1467  0.0754  0.0748
21419W        W37893   3.980   5.692   4.211  0.0129  0.1560 -0.1532
21420W        W37894  11.034   7.787  14.188 -0.0586  0.1906  0.0384
21421W        W37895   7.758   9.180  16.786  0.0631  0.3477 -0.1457
21422W        W37896   7.843  14.409   2.432 -0.0243 -0.1311  0.0012
21423W        W37897  11.240  12.964   4.991 -0.2824  0.1411 -0.2000
21424W        W37898  13.621   3.161  15.487 -0.2532 -0.1372 -0.1435
21425W        W37899  16.902   9.562   5.075 -0.2755 -0.4590 -0.0716
21426W        W37900  17.825  15.816   5.661 -0.2639  0.0784  0.1574
21427W        W37901   0.428   8.515  13.366  0.0939 -0.0061 -0.0832
21428W        W37902  14.286  13.721   3.070 -0.3555 -0.1069  0.1919
21429W        W37903  13.498   9.948  16.559  0.4092 -0.0891 -0.0068
21430W        W37904   3.191   7.458  14.395 -0.3720 -0.3546  0.1251
21431W        W37905   9.517   2.033  14.215  0.0991 -0.3140 -0.3032
21432W        W37906   8.673   0.638   5.501  0.0971  0.2922 -0.0055
21433W        W37907   4.303  14.251  13.544 -0.0574  0.1765  0.0099
21434W        W37908   8.328   5.886   0.514 -0.0055  0.1449  0.0424
21435W        W37909   0.432   0.510  15.751  0.0416  0.1339 -0.0466
21436W        W37910  16.279   8.701   0.532  0.1312 -0.1904 -0.2941
21437W        W37911   3.803   4.832   0.706 -0.4130 -0.0818  0.0414
21438W        W37912   4.529  12.919   2.219  0.0595  0.4569 -0.2540
21439W        W37913  17.741   7.189  15.144  0.2643 -0.0349  0.0737
21440W        W37914   4.707   4.835  15.988  0.0429  0.1933 -0.0810
21441W        W37915   2.342   5.931   5.424 -0.0192  0.0862  0.0102
21442W        W37916  12.608  12.075   5.625  0.1192  0.0269  0.0482
21443W        W37917  10.801   6.564   2.860  0.3021 -0.2673 -0.0646
21444W        W37918  11.831   9.029  15.230  0.1029 -0.1401 -0.0227
21445W        W37919  10.088  11.018  12.032  0.2258  0.1293  0.1800
21446W        W37920  15.134   8.252   0.481 -0.0981  0.0399  0.0171
21447W        W37921   8.506  15.393  11.000 -0.0530  0.0122  0.3840
21448W        W37922   5.832  13.672  13.191  0.2584 -0.2643  0.0949
21449W        W37923  14.629   9.409   3.210 -0.1593 -0.1167  0.3012
21450W        W37924   3.559  15.015   0.079 -0.2503  0.1790 -0.1829
21451W        W37925   9.056  13.846   4.121 -0.0565 -0.1555 -0.0345
21452W        W37926  14.352  16.635  14.102  0.0946  0.0993  0.1185
21453W        W37927  15.208  11.118   2.405  0.1976 -0.0957 -0.1752
21454W        W37928  12.424  10.238   3.045 -0.1036 -0.1153  0.1363
21455W        W37929   4.938   1.544   1.083 -0.0292 -0.0204  0.1997
21456W        W37930  14.443  13.131   4.873 -0.0084  0.2341  0.0609
21457W        W37931  10.813  12.945  13.250  0.0713  0.2527  0.3714
21458W        W37932   2.625  13.420  16.468 -0.0340  0.1978  0.1046
21459W        W37933   4.581  17.327   5.087 -0.2911 -0.1490 -0.2958
21460W        W37934  15.006   8.365   3.843 -0.0126 -0.1057  0.2839
21461W        W37935   9.093   2.113   0.438 -0.0237  0.0951  0.0816
21462W        W37936  15.546  10.228   0.327 -0.1038 -0.0164 -0.1172
21463W        W37937   0.333  16.784  16.470 -0.1139  0.1736  0.0740
21464W        W37938   0.924  12.524   1.346 -0.2614 -0.3143  0.1678
21465W        W37939  15.910   8.773   5.313 -0.0839 -0.0585 -0.1350
21466W        W37940  16.493   6.058   4.443 -0.0954  0.1369  0.1117
21467W        W37941   4.847  12.943  14.528  0.0276  0.0087 -0.2299
21468W        W37942   6.441  12.360   4.189 -0.0250  0.0252  0.0729
21469W        W37943  13.176   9.902   1.984  0.0664 -0.0298 -0.1355
21470W        W37944  16.945  13.761   0.989 -0.0512 -0.1685  0.3140
21471W        W37945   1.871   5.202  12.371 -0.1576 -0.4297 -0.2634
21472W        W37946   9.885   4.898   4.587  0.0388 -0.0771 -0.0379
21473W        W37947  16.597   6.274  15.013 -0.0147 -0.0796  0.0570
21474W        W37948  10.279  16.539   2.086 -0.1692 -0.4658 -0.3464
21475W        W37949   2.535  11.937  13.309  0.1747 -0.1467  0.1322
21476W        W37950  10.453   0.660   2.145 -0.0153  0.3450 -0.0849
21477W        W37951  15.103  15.632   5.157  0.1812  0.0880  0.1073
21478W        W37952   2.091   3.565   3.668 -0.0039 -0.1359 -0.0814
21479W        W37953  13.204  12.009   1.285 -0.0110  0.1543 -0.2732
21480W        W37954   8.506  11.120   3.601  0.0553 -0.2092 -0.1858
21481W        W37955  11.281   1.469  12.692  0.0555  0.1068 -0.3329
21482W        W37956   0.658   1.682   4.482  0.0341 -0.0009 -0.1379
21483W        W37957  10.630  14.521  11.368 -0.1695 -0.0149 -0.0547
21484W        W37958   8.023  12.016  13.187  0.0763 -0.0848 -0.0277
21485W        W37959  12.177   2.761   4.130  0.0274  0.0799 -0.0098
21486W        W37960  12.571  10.432   4.587 -0.2551 -0.0693  0.0749
21487W        W37961  14.661   6.456   0.165  0.2624 -0.0961  0.2466
21488W        W37962   3.936   2.525   1.234 -0.0987 -0.2906 -0.2234
21489W        W37963   5.094   9.270   2.776  0.2115 -0.0594 -0.1157
21490W        W37964   8.122  10.635  13.128 -0.0663  0.0050 -0.1209
21491W        W37965  17.072   1.294  16.649 -0.1810 -0.2511 -0.1576
21492W        W37966  11.053  10.358  12.611  0.1052 -0.0821  0.4464
21493W        W37967   2.177  10.578  14.677  0.0162 -0.0724  0.0842
21494W        W37968  13.241  15.543  15.087 -0.0191  0.2892  0.1930
21495W        W37969   0.470   8.019   0.825  0.1222  0.1682  0.1138
21496W        W37970   6.736  10.179   3.945 -0.1320  0.1361  0.0815
21497W        W37971  12.758  17.150   3.767 -0.1420 -0.0617  0.0258
21498W        W37972  10.544  14.145  13.212  0.2397 -0.3117  0.1181
21499W        W37973  13.386  17.323   4.074 -0.2377 -0.0316  0.0687
21500W        W37974   0.357  10.398   0.928  0.0395 -0.2466  0.1310
21501W        W37975  16.873   4.688   4.291  0.1989  0.2785  0.0949
21502W        W37976   9.247  13.893  12.511 -0.1485  0.2637 -0.2490
21503W        W37977   5.350   4.107  13.222 -0.1032  0.0256 -0.2979
21504W        W37978  14.309  17.464  16.019 -0.1604  0.0618 -0.0801
21505W        W37979  15.401   9.573   0.924  0.1056 -0.1919 -0.0911
21506W        W37980   0.158   3.676  14.167 -0.4896 -0.3828  0.1458
21507W        W37981   4.669   7.046  16.137 -0.0461 -0.0604  0.0950
21508W        W37982  15.651  10.794   3.826  0.0464 -0.1846 -0.2181
21509W        W37983  10.494   8.810  15.664 -0.4036 -0.1383  0.2638
21510W        W37984  14.591   2.751  13.691  0.1036  0.0391  0.0826
21511W        W37985   4.181  11.615   0.548  0.1009 -0.0596  0.0903
21512W        W37986   2.753   8.885   5.321  0.0872  0.0267  0.1117
21513W        W37987  16.985   4.350   3.145  0.1288  0.3429 -0.0619
21514W        W37988   8.323  14.612   1.703 -0.3847  0.0704  0.4446
21515W        W37989   9.959   0.674   1.721  0.0481  0.3691 -0.1649
21516W        W37990  13.206   7.073  14.900 -0.1001 -0.2916 -0.0885
21517W        W37991  12.516   1.684  16.818 -0.0234 -0.2309 -0.0035
21518W        W37992  11.866   8.521  13.364  0.4016 -0.0334 -0.0202
21519W        W37993   9.595   9.537  12.852  0.3605  0.1235 -0.2326
21520W        W37994   4.819   4.804  12.044  0.1198  0.0162  0.1129
21521W        W37995   1.385   1.428   0.445  0.2261 -0.1838  0.0837
21522W        W37996  12.619  16.199   4.948  0.2085 -0.1187 -0.0074
21523W        W37997  15.638  12.887  14.217 -0.0008 -0.0286 -0.2150
21524W        W37998  13.884   1.665  12.448  0.1402  0.1595 -0.0229
21525W        W37999   6.879   8.320  14.555  0.0764  0.2459 -0.1483
21526W        W38000  16.288  10.167   0.739 -0.0116 -0.2809  0.1572
21527W        W38001  10.790   9.879  15.720 -0.3237 -0.0695 -0.1092
21528W        W38002   3.193  11.829  10.811 -0.1561  0.0056 -0.2034
21529W        W38003  17.308  11.183  16.778  0.0720 -0.0979  0.1381
21530W        W38004   2.037   9.646   5.126  0.2608  0.1433  0.1159
21531W        W38005  15.311  15.364  15.671 -0.2266 -0.1923  0.1247
21532W        W38006   7.146   6.220   1.316  0.3119 -0.0347 -0.0013
21533W        W38007  13.510  12.089  15.810 -0.0744  0.1810 -0.1817
21534W        W38008  13.064  17.049  15.273 -0.0305 -0.1416  0.5044
21535W        W38009   5.234   6.201   6.133 -0.0434 -0.0482  0.0495
21536W        W38010   8.264   0.755  13.404 -0.0296  0.3744 -0.2852
21537W        W38011   3.104   6.277   0.408  0.2407  0.2150  0.0848
21538W        W38012   7.004  13.656   4.188  0.2353  0.0262 -0.2241
21539W        W38013   6.031   0.683   1.134  0.0961  0.1949  0.2679
21540W        W38014  13.844   6.687   5.695 -0.1837 -0.1070  0.0459
21541W        W38015   8.578   5.378   4.027  0.1419  0.0228  0.2611
21542W        W38016   5.127  10.020  11.488  0.0501  0.1169 -0.1743
21543W        W38017  15.923   9.378  15.271  0.0629 -0.0338 -0.0262
21544W        W38018  17.071  17.288   3.912 -0.1350 -0.2233 -0.2911
21545W        W38019  13.068  12.727  16.727  0.2402 -0.1518  0.3404
21546W        W38020   8.377   9.182  14.292  0.1752  0.0996  0.4105
21547W        W38021  15.870   3.736  16.310  0.0375 -0.0858 -0.0684
21548W        W38022   7.431  14.778  11.588  0.1022  0.3146 -0.1495
21549W        W38023   6.406   4.989  12.279  0.1057 -0.1668  0.0062
21550W        W38024  10.103   3.934   5.990 -0.1311 -0.0009  0.0102
21551W        W38025   9.371   7.698  15.674  0.0184  0.1693  0.2022
21552W        W38026   1.017  10.129  15.494 -0.0476 -0.2396 -0.0092
21553W        W38027   5.358   5.357  13.159 -0.1917  0.1946 -0.0531
21554W        W38028   8.515   8.006  15.818 -0.0546 -0.1630  0.1043
21555W        W38029  11.807   9.791   3.712 -0.2514  0.1766  0.0266
21556W        W38030   1.060   2.577  15.018 -0.0441  0.0267 -0.1602
21557W        W38031   5.419  15.401   4.229  0.0323  0.0693 -0.0719
21558W        W38032   5.259  10.159   2.383  0.0737  0.0565 -0.0041
21559W        W38033  11.506  16.927  12.557 -0.1084  0.2329 -0.1756
21560W        W38034  14.789   3.539  16.633  0.1089 -0.1525 -0.0854
21561W        W38035   8.404   8.409   1.402  0.1019  0.3032  0.0346
21562W        W38036   0.363   7.579   1.887 -0.0012 -0.1759  0.0206
21563W        W38037  11.904   1.819  14.205  0.0325 -0.0355 -0.0950
21564W        W38038   1.642   8.007   1.715  0.2941  0.1961 -0.0893
21565W        W38039   9.809   3.092   0.281  0.1664  0.0509 -0.0753
21566W        W38040   3.957   5.033  14.559  0.1817 -0.3477  0.0274
21567W        W38041  12.846  13.994  16.688 -0.0586 -0.1216  0.0027
21568W        W38042   4.953   8.084  16.445 -0.2299 -0.1758  0.1231
21569W        W38043   3.465   0.121  16.878  0.1095 -0.1069 -0.0004
21570W        W38044   3.813  13.581  15.586 -0.0850 -0.0411 -0.2745
21571W        W38045   4.443   0.057   0.260 -0.4575  0.4088 -0.1327
21572W        W38046   0.825   7.827   2.316  0.0984 -0.1771  0.1168
21573W        W38047   2.110   9.085  12.501 -0.1527 -0.1183  0.4124
21574W        W38048   1.310  15.282  11.679 -0.3195 -0.0317  0.1193
21575W        W38049  11.411  13.365   3.283  0.0290  0.2640 -0.0906
21576W        W38050   7.768   4.340   6.007  0.2219  0.0993  0.1031
21577W        W38051   9.257   9.951   5.462 -0.1400 -0.0622 -0.0658
21578W        W38052   4.263  12.400   0.779  0.1762 -0.3023 -0.1858
21579W        W38053   6.869  15.393   2.252 -0.4554 -0.1106 -0.2461
21580W        W38054   5.620  16.814  16.135  0.0728 -0.0046  0.1929
21581W        W38055   2.519   7.791   0.521  0.1417  0.2342  0.0481
21582W        W38056  15.432   6.615   3.868  0.2475 -0.1844 -0.0436
21583W        W38057  14.073   4.279   3.821  0.1501 -0.0419 -0.0530
21584W        W38058  14.885   1.468  12.473  0.0271  0.1973 -0.0268
21585W        W38059   6.876  12.060   4.348  0.0107  0.0312  0.1755
21586W        W38060  11.310   1.473   5.243 -0.3779 -0.2657 -0.0827
21587W        W38061  10.908   0.420   2.122 -0.0877  0.0383  0.1176
21588W        W38062   2.107   0.223   1.106  0.2005  0.2085 -0.1792
21589W        W38063   1.010   9.443  12.035 -0.1858  0.0865 -0.0447
21590W        W38064   3.119   7.424  12.508 -0.1956  0.0143  0.1880
21591W        W38065  14.145  11.363  11.853 -0.3039  0.0004  0.2125
21592W        W38066  15.840   6.853  13.290  0.1716  0.2938  0.0613
21593W        W38067   4.062  13.248   1.029 -0.1112 -0.0142 -0.0128
21594W        W38068  12.662   2.093   0.665 -0.0798  0.3209  0.0971
21595W        W38069  10.833  14.496   3.970 -0.1045 -0.0071  0.0391
21596W        W38070   9.380  16.205   1.273  0.0992  0.2138 -0.0599
21597W        W38071  15.664  12.646   1.967 -0.1184  0.1474 -0.2946
21598W        W38072   6.285   6.692  14.575 -0.2350  0.0314 -0.0360
21599W        W38073  15.957  17.222  12.571  0.3398 -0.0448 -0.2835
21600W        W38074   9.602   8.028   3.445  0.0540  0.0786 -0.1518
21601W        W38075   0.228   1.578  16.856  0.1122  0.0221 -0.0443
21602W        W38076   0.718  12.888  11.082 -0.0113  0.1514 -0.2935
21603W        W38077  15.457   5.854  12.115 -0.2301  0.0799  0.2953
21604W        W38078  14.186  11.334   4.374 -0.0214  0.4225 -0.0359
21605W        W38079  10.948  13.327   2.538 -0.1393  0.1338  0.2466
21606W        W38080  17.299   3.713  16.052 -0.0782  0.0415 -0.1551
21607W        W38081  15.981  12.704   3.285  0.3143 -0.3174 -0.0508
21608W        W38082   9.158  16.529   2.750  0.1390  0.0890 -0.0698
21609W        W38083   8.408   8.538  12.912  0.1814 -0.2493 -0.0862
21610W        W38084  11.389   0.844   2.190 -0.2847 -0.1383 -0.1323
21611W        W38085  10.272   8.600   0.159 -0.0245  0.0283  0.1804
21612W        W38086   7.866   6.991   1.444  0.0412  0.1375 -0.2951
21613W        W38087  11.628   2.933   5.624  0.0502  0.1606 -0.5785
21614W        W38088   4.966   5.918  13.880 -0.0980 -0.0260  0.0423
21615W        W38089  10.322  16.499  15.036  0.2050 -0.0332  0.1008
21616W        W38090   9.765   2.094  16.011 -0.2605 -0.0763  0.2874
21617W        W38091  16.376  17.630  11.871 -0.1049  0.4038  0.0040
21618W        W38092  11.940   1.541  11.604  0.1041  0.0186 -0.1143
21619W        W38093  17.722   8.125   4.651  0.1091  0.2038  0.0746
21620W        W38094   5.013  16.742  11.982 -0.2323  0.3854 -0.1385
21621W        W38095  12.336   5.017   5.667  0.2684 -0.0918 -0.1622
21622W        W38096  14.336   3.196   1.717 -0.0879 -0.2614  0.2582
21623W        W38097   2.991   2.724  16.778  0.0551  0.1987 -0.0426
21624W        W38098  17.180   5.262  13.471 -0.0616  0.1147  0.1245
21625W        W38099  13.042  12.038  12.230 -0.4298  0.3273 -0.0877
21626W        W38100  15.994   1.805  15.273  0.4024 -0.0623 -0.0832
21627W        W38101   4.064  17.313  14.396 -0.2585 -0.2431 -0.2242
21628W        W38102   1.431   3.899   3.734 -0.2317 -0.2406  0.0228
21629W        W38103  12.549  10.337  11.822 -0.0537 -0.2743 -0.0419
21630W        W38104   6.498   6.499  15.050 -0.0164 -0.0209 -0.2569
21631W        W38105  12.217  15.272  16.804  0.0775  0.4470 -0.1999
21632W        W38106   3.205  11.775  16.166  0.0322  0.2235 -0.0263
21633W        W38107   3.610   3.547  14.258 -0.3832  0.2258 -0.1112
21634W        W38108  17.344   5.010  14.335 -0.0776 -0.0279 -0.0461
21635W        W38109  17.769   8.351  13.375  0.1538 -0.1207  0.2361
21636W        W38110  15.691   2.469   0.824  0.3424  0.0730 -0.1970
21637W        W38111   6.589   5.382  11.980 -0.0518  0.0828 -0.1570
21638W        W38112   0.635   4.622  15.758  0.0404  0.0485  0.1305
21639W        W38113  12.683   9.988   3.962 -0.3850  0.1125 -0.2874
21640W        W38114  17.615  10.839  13.644  0.0705  0.2628 -0.1434
21641W        W38115   7.932  15.497   4.028  0.2041  0.5591  0.3379
21642W        W38116   2.890  15.216  14.562  0.0028 -0.0595  0.0701
21643W        W38117  11.332   1.329   4.329  0.1084  0.0172 -0.3073
21644W        W38118  16.970   2.698  14.651 -0.0911  0.1688  0.0367
21645W        W38119  11.261  10.688  11.803 -0.0479 -0.0086  0.0325
21646W        W38120   9.660  12.452   3.957 -0.1186  0.0551  0.1645
21647W        W38121  14.341  15.238  15.472  0.1763 -0.1193  0.0404
21648W        W38122  10.627  15.711  12.400 -0.2627  0.0544  0.0621
21649W        W38123  10.602  13.610   3.872 -0.0128  0.1604  0.1169
21650W        W38124  10.728   5.637   2.700 -0.1996 -0.0095  0.0501
21651W        W38125  17.457  17.302   1.079 -0.0360  0.0381  0.1807
21652W        W38126   0.471   5.032  12.104 -0.1257  0.1174  0.1988
21653W        W38127  13.553  13.677  16.719 -0.2062  0.0766  0.1529
21654W        W38128  11.569   1.397   1.256 -0.2500 -0.1468  0.5289
21655W        W38129  16.995  10.327  15.815 -0.0788 -0.1044  0.1216
21656W        W38130   9.918  17.146   1.013 -0.1305 -0.1174 -0.1852
21657W        W38131   5.939  10.527  13.565  0.0428  0.2970  0.2308
21658W        W38132   8.033  17.667  13.700  0.2504 -0.2322 -0.0512
21659W        W38133  15.860  17.448  11.880 -0.0813 -0.0008  0.1063
21660W        W38134   4.222   6.746   0.383 -0.1076 -0.4235  0.1155
21661W        W38135  10.644   0.182  13.790 -0.1566 -0.0509 -0.1775
21662W        W38136   7.253  17.209  16.899 -0.2494 -0.1581  0.0682
21663W        W38137   7.646   1.080   0.393 -0.1918 -0.1132 -0.0006
21664W        W38138   8.873  15.430  15.719  0.0140 -0.0834  0.2583
21665W        W38139  17.727  14.845   4.230  0.1562  0.0930  0.2681
21666W        W38140  17.576   1.317  16.696 -0.1891 -0.0217  0.0564
21667W        W38141  14.181   3.052  12.568  0.1563  0.0686  0.1240
21668W        W38142   0.414  11.470   4.324  0.0703  0.3817 -0.0375
21669W        W38143   5.334   1.856  15.871 -0.1118 -0.0073  0.1288
21670W        W38144  10.133   3.974   5.498  0.3175 -0.1160  0.1029
21671W        W38145   0.572   8.652   3.290  0.4172 -0.1941 -0.0083
21672W        W38146  13.078  13.956   0.581  0.2693 -0.1279  0.2279
21673W        W38147   1.817  15.250   2.979  0.0955  0.1453 -0.0649
21674W        W38148  10.585   4.829   0.793  0.0515  0.0741  0.1579
21675W        W38149   8.422  14.531   3.749  0.0783  0.2024  0.1044
21676W        W38150  14.355  10.333   5.541  0.0341  0.0389  0.0068
21677W        W38151   4.730   1.450   4.320  0.2407 -0.0699 -0.1078
21678W        W38152   7.837  15.801   5.470  0.0407  0.0052 -0.0016
21679W        W38153  11.654  13.683   1.463  0.0008  0.2307 -0.1948
21680W        W38154   1.977   9.981  12.987 -0.1835 -0.0013  0.1522
21681W        W38155   2.381  12.510  16.450  0.3258  0.1542  0.2994
21682W        W38156   5.402  13.502  12.983 -0.2626  0.1506  0.2975
21683W        W38157  15.050  16.945   4.784  0.0405 -0.1728 -0.0726
21684W        W38158  15.448  10.524  16.301  0.0650  0.1468  0.0595
21685W        W38159  10.879  16.410   5.317  0.2913  0.0717 -0.2805
21686W        W38160   5.771   9.762  14.241 -0.0578  0.0304  0.1549
21687W        W38161   6.435   9.891   3.682 -0.3237 -0.0192  0.0054
21688W        W38162   1.376  14.528   5.879 -0.3305  0.2260 -0.0869
21689W        W38163   3.639   0.378  15.578  0.1082 -0.0903 -0.2022
21690W        W38164   2.938   8.805  12.450  0.0587 -0.0203 -0.0435
21691W        W38165  16.201   5.364   3.266 -0.0944  0.0501 -0.1377
21692W        W38166   7.123  13.423  12.840 -0.3102  0.1103  0.1118
21693W        W38167  15.274  17.078   3.533  0.0918  0.0225 -0.3199
21694W        W38168   6.936  15.412   1.560 -0.1473 -0.1166  0.2044
21695W        W38169   9.051  17.620   5.261 -0.1696 -0.0171 -0.2536
21696W        W38170  12.375  10.182   5.595 -0.3038 -0.1076  0.0760
21697W        W38171   0.927   4.223   1.132  0.0637 -0.1080  0.0936
21698W        W38172   3.691   0.983  13.594 -0.0602  0.1854 -0.0506
21699W        W38173   3.239  10.422  15.738 -0.1530  0.1512 -0.2851
21700W        W38174   2.785  15.370   4.135  0.0922  0.0612 -0.0831
21701W        W38175  17.753   8.815   3.921 -0.0307 -0.1208  0.2661
21702W        W38176  12.031   4.657   0.490 -0.2826 -0.1770 -0.2450
21703W        W38177  14.811  12.606   1.360 -0.2126 -0.5739 -0.0761
21704W        W38178   9.663   0.710  16.324  0.0394 -0.1509  0.1607
21705W        W38179   2.382   1.960   3.235  0.3491 -0.0913  0.1990
21706W        W38180  15.375   7.020   5.242  0.0428  0.0591 -0.2198
21707W        W38181  16.067   8.248   3.795 -0.2665  0.3508 -0.1415
21708W        W38182   2.404  15.428   4.949  0.2024  0.2759 -0.0799
21709W        W38183   4.111   8.369  15.980  0.0735 -0.1485  0.3449
21710W        W38184  16.780   8.292   3.344  0.3659  0.1862 -0.3246
21711W        W38185   8.186  17.672  13.213 -0.0863 -0.0745 -0.3549
21712W        W38186   7.425  13.189   4.701 -0.1185 -0.1868 -0.0593
21713W        W38187   7.687   2.403   3.792 -0.1129  0.1099  0.1959
21714W        W38188  13.185   7.093   5.584  0.1202  0.2048  0.1749
21715W        W38189  11.665   2.199  13.138 -0.2215  0.2244 -0.0207
21716W        W38190  11.006  17.541  13.340 -0.3408 -0.0417  0.0113
21717W        W38191  13.288  11.410   3.928  0.0469 -0.2004 -0.1133
21718W        W38192  15.213  11.207  14.161 -0.0020 -0.4435 -0.1100
21719W        W38193   0.970  16.253   3.549 -0.2116  0.1330  0.0718
21720W        W38194   0.061  14.902   5.313 -0.2871 -0.0823 -0.1197
21721W        W38195   4.061  10.217   1.454  0.0350  0.0434  0.0612
21722W        W38196   5.877   2.616   1.106  0.1412  0.2333  0.0083
21723W        W38197   3.455  15.716   2.244  0.0482 -0.1598  0.1008
21724W        W38198  11.127   6.817  14.200  0.1752  0.2310  0.3271
21725W        W38199  16.675  13.382  12.836 -0.5297 -0.0768  0.1214
21726W        W38200  17.361  13.788  13.649 -0.0547  0.0890  0.3485
21727W        W38201   1.017   5.679   3.227 -0.0988 -0.0328  0.1102
21728W        W38202  13.764   7.368  12.955  0.2693 -0.1106  0.2024
21729W        W38203   1.557  13.505  14.189  0.1299 -0.0203 -0.0499
21730W        W38204  12.081  16.065   5.774 -0.1199  0.1267  0.1781
21731W        W38205   2.895   4.994   1.116 -0.0291  0.1054 -0.0712
21732W        W38206  12.206  16.339  14.171 -0.0443 -0.0069 -0.2282
21733W        W38207  11.712  15.601  13.267  0.0715  0.0974 -0.2913
21734W        W38208   7.195  11.870  16.755 -0.2761  0.2679  0.3022
21735W        W38209   0.271   0.914   5.202 -0.1980  0.1204  0.0807
21736W        W38210   1.406  11.142   3.846 -0.0651 -0.2284  0.0473
21737W        W38211  16.372   8.896  15.785 -0.0543 -0.1257  0.0364
21738W        W38212   4.299  16.962  11.408  0.0933  0.1655 -0.3827
21739W        W38213  16.292  17.722   0.477 -0.1058 -0.2021 -0.0124
21740W        W38214  11.297  16.414  14.294  0.0926 -0.0358 -0.0020
21741W        W38215  17.478  13.446   1.812 -0.2983 -0.0929  0.1896
21742W        W38216   6.260  13.290  11.517  0.0852 -0.2563  0.1743
21743W        W38217   6.578  13.402  12.041  0.1647  0.1940  0.0801
21744W        W38218   2.107  16.297   4.059 -0.0789  0.1694 -0.2453
21745W        W38219   8.762   9.719  14.508  0.1015 -0.0216 -0.0360
21746W        W38220  16.643   3.721  13.033 -0.0205 -0.0618  0.1386
21747W        W38221   1.966   1.549   0.279  0.5772  0.0986  0.0155
21748W        W38222  16.818  10.741   2.758 -0.0383 -0.1695 -0.2629
21749W        W38223   9.562   6.365   1.799 -0.2269  0.3057  0.1910
21750W        W38224   0.441   3.745   5.464  0.2595 -0.1156  0.1033
21751W        W38225   0.721  10.075   3.645 -0.0709 -0.1818 -0.1304
21752W        W38226   4.373   7.432  16.514 -0.1500  0.1025  0.1008
21753W        W38227   2.721   1.860  12.114 -0.2624 -0.1435  0.1148
21754W        W38228  11.477  12.246  14.003  0.0477  0.1053  0.2921
21755W        W38229   9.800   3.198  16.683  0.0606 -0.1909 -0.0616
21756W        W38230   1.481  13.338  12.160 -0.1019 -0.2997  0.0882
21757W        W38231  11.470  12.289  15.446 -0.0421  0.2183  0.2134
21758W        W38232  11.171   4.990   5.083 -0.1398 -0.3251  0.0109
21759W        W38233   5.271   2.565  15.232 -0.0339 -0.1777 -0.3568
21760W        W38234  12.198   6.068   0.228 -0.2355 -0.3552 -0.1408
21761W        W38235   7.238  10.213   0.753 -0.0588  0.0756 -0.0674
21762W        W38236  10.401   9.265   0.196  0.0494 -0.2219  0.3191
21763W        W38237   2.156   4.880  16.358  0.4229  0.2149  0.1109
21764W        W38238  10.905  15.992   4.796  0.3264  0.0061 -0.1222
21765W        W38239  11.755  11.957   1.384  0.0891  0.0837 -0.1792
21766W        W38240   8.511   5.373  15.828 -0.1608 -0.3948  0.1237
21767W        W38241   6.858  12.105  11.622 -0.0032 -0.4296  0.4353
21768W        W38242   3.497   6.512  15.932 -0.0303  0.0293 -0.0402
21769W        W38243  10.161  13.754  13.378  0.0978 -0.2855 -0.0298
21770W        W38244  14.436   6.289  16.482 -0.3678  0.0839 -0.0002
21771W        W38245   4.504   3.243  12.822 -0.3100  0.0188 -0.0839
21772W        W38246   4.278   0.740   2.033 -0.0718 -0.0734  0.0474
21773W        W38247   7.203  15.390  14.165  0.2083 -0.1350  0.0596
21774W        W38248   5.185   7.503   1.107 -0.1930 -0.1939  0.0894
21775W        W38249  14.488  10.227   6.096 -0.1597  0.0476 -0.0495
21776W        W38250  13.102   8.397   5.085  0.0616 -0.1561  0.0292
21777W        W38251   3.066   2.418  13.352  0.0197 -0.2757 -0.1208
21778W        W38252   9.936   5.871   0.691 -0.2459  0.0702  0.2611
21779W        W38253   1.184   3.460   4.744  0.2098 -0.0427 -0.1886
21780W        W38254  16.224   8.650   2.147 -0.1145 -0.0752 -0.0848
21781W        W38255   5.836   8.182  13.452 -0.1431 -0.4191  0.3407
21782W        W38256  14.993   0.214  13.639 -0.2881  0.2777  0.2350
21783W        W38257   7.684   6.308   3.161 -0.0489  0.1180  0.0477
21784W        W38258  16.033   5.617  15.156 -0.2687  0.2090 -0.1994
21785W        W38259  10.404   5.768   0.905  0.1554 -0.2705  0.0019
21786W        W38260   4.906  14.142  12.181  0.1419  0.1752  0.3078
21787W        W38261  11.222   5.545  13.136 -0.0816 -0.2043  0.0822
21788W        W38262  14.143   3.156  16.693  0.2292 -0.1217  0.1499
21789W        W38263  17.674  12.895   5.133  0.5982 -0.3489  0.2237
21790W        W38264   3.645   9.075  11.380 -0.1021  0.3796  0.2694
21791W        W38265  16.526   4.195   3.425 -0.0354  0.0294 -0.1161
21792W        W38266  15.360   7.914   1.262 -0.0728  0.3201  0.1541
21793W        W38267   0.438   2.024  16.870  0.2960  0.1060 -0.0626
21794W        W38268   2.849   4.817   5.957  0.1618 -0.1140 -0.1943
21795W        W38269  11.456  13.320  14.137  0.0704 -0.0348 -0.1171
21796W        W38270   5.918  11.560   0.783 -0.0274 -0.0493  0.1710
21797W        W38271  10.672  10.591   5.110  0.1918 -0.0292  0.2732
21798W        W38272   9.495   8.855  13.456  0.2639 -0.0128  0.0227
21799W        W38273  15.199   5.858   3.296 -0.1542 -0.1267  0.0582
21800W        W38274  10.620   2.536   4.320 -0.1800 -0.0139 -0.1181
21801W        W38275   0.471   5.175   2.047  0.5856  0.0221 -0.1303
21802W        W38276   0.287  11.480  12.150 -0.0210  0.0507 -0.1578
21803W        W38277  10.677   1.888  13.806 -0.2300  0.1968 -0.1332
21804W        W38278  12.026  11.802   2.528 -0.0342  0.2527  0.0933
21805W        W38279  17.660   8.157  14.717  0.1479 -0.0282 -0.0156
21806W        W38280  14.543  12.359   4.283  0.1535 -0.3227  0.0999
21807W        W38281  11.206   6.770   4.015 -0.0380  0.3468 -0.2834
21808W        W38282  10.499  11.598  16.675 -0.0889 -0.0371  0.1587
21809W        W38283  15.129  11.149   5.383  0.2220 -0.0961 -0.0878
21810W        W38284   6.328   9.807  12.916 -0.1439 -0.2899  0.0403
21811W        W38285   0.051  14.479  14.713  0.1353  0.1111 -0.2233
21812W        W38286   5.937  14.275  16.098  0.0747 -0.1147 -0.4763
21813W        W38287  16.983   5.425   0.605  0.2444 -0.0317 -0.1100
21814W        W38288   6.869   5.975   4.599 -0.0157  0.0370 -0.1501
21815W        W38289   7.785   2.191  15.140  0.2973 -0.1868 -0.0625
21816W        W38290   0.021   5.038  14.558 -0.0293  0.0415 -0.1672
21817W        W38291  11.414  17.255  16.447 -0.0379 -0.0707 -0.1862
21818W        W38292  15.388   9.370   4.225  0.0588  0.2964 -0.0765
21819W        W38293  14.524   3.831   2.797 -0.3129 -0.0808  0.1110
21820W        W38294  15.213   8.255  15.879 -0.1696  0.0826 -0.2082
21821W        W38295  10.307  13.521   4.858 -0.1116 -0.2026 -0.0080
21822W        W38296   6.179   1.419   0.769  0.2234  0.1842  0.0634
21823W        W38297   7.362  16.328  14.131  0.2323  0.0089  0.1518
21824W        W38298  14.627  14.325   1.685 -0.3162 -0.2565  0.0831
21825W        W38299   2.161   4.016  11.968  0.0419 -0.0807  0.0207
21826W        W38300   1.160   7.960  16.097  0.0422  0.1438 -0.0384
21827W        W38301   4.019   2.468  14.982  0.0583 -0.1479 -0.0215
21828W        W38302  10.370   2.982   1.593  0.2396  0.0210  0.2596
21829W        W38303   3.662   2.603   3.186 -0.3293  0.1971  0.1657
21830W        W38304   9.858  14.593  13.450  0.3171 -0.0089  0.0709
21831W        W38305   2.982   4.332  12.405  0.4547 -0.0911 -0.0573
21832W        W38306  15.505  13.894   5.169 -0.1179  0.0856 -0.3366
21833W        W38307   7.053  13.444  14.205  0.1643  0.0661  0.0637
21834W        W38308  15.603  15.920  12.294  0.1685  0.3510 -0.0526
21835W        W38309  14.932  11.793  15.599  0.0940 -0.3968 -0.4023
21836W        W38310   7.671   7.944  13.913 -0.0397  0.2591 -0.0537
21837W        W38311   5.080   3.278  13.972  0.1001 -0.0942 -0.0582
21838W        W38312  12.081   6.517   0.096  0.0898 -0.1872  0.1507
21839W        W38313   4.144  17.448  13.962 -0.1335  0.0154  0.1261
21840W        W38314  11.491   9.208  13.787 -0.0089  0.0614 -0.1030
21841W        W38315   7.817   7.274   2.545  0.0033  0.5094 -0.2086
21842W        W38316  16.577   4.744   1.282 -0.4286 -0.5368 -0.0993
21843W        W38317   8.275   9.936  13.509  0.0185  0.1475  0.2732
21844W        W38318   2.587   2.226  15.162 -0.0226  0.4722 -0.1065
21845W        W38319  10.947  11.863  14.241  0.2393  0.2831  0.2165
21846W        W38320  12.336   6.887  13.292  0.5080  0.1048 -0.0074
21847W        W38321   0.299  16.982  15.382 -0.3759  0.1014  0.0745
21848W        W38322  12.618   0.348  15.611  0.1262 -0.1572  0.0354
21849W        W38323   2.954   0.928  16.381 -0.3175  0.0111 -0.2232
21850W        W38324   0.138  11.426  13.029  0.0313  0.1500  0.1904
21851W        W38325   7.748   8.557   3.251 -0.2731 -0.1482  0.0633
21852W        W38326  17.171   9.766   2.685  0.3684  0.0351  0.1237
21853W        W38327  13.930   0.410   0.293  0.0936 -0.1518  0.2733
21854W        W38328   3.734   6.155  16.319 -0.0402  0.1992 -0.1051
21855W        W38329   2.983   8.255  12.304  0.0049  0.2811 -0.0934
21856W        W38330  10.710   9.691   1.352 -0.0632 -0.0829 -0.0627
21857W        W38331   6.546   9.160   1.286  0.0821  0.1808  0.1961
21858W        W38332  12.757   2.952  14.131 -0.1087 -0.0722  0.1152
21859W        W38333   8.041   8.534  14.671 -0.1361  0.1984  0.1057
21860W        W38334   5.477   1.182   5.068  0.1776 -0.1523 -0.0327
21861W        W38335   3.608   2.198   4.094 -0.0517 -0.2863  0.0541
21862W        W38336  16.650   2.499   5.564 -0.2139  0.3608 -0.1024
21863W        W38337   1.455  16.988  16.412  0.0445  0.1303 -0.2048
21864W        W38338   0.789   4.062   0.501 -0.0861 -0.2053 -0.1078
21865W        W38339   6.332  15.220  13.741  0.2810  0.1031 -0.5633
21866W        W38340   6.989   8.895   1.214 -0.0775  0.3273  0.0232
21867W        W38341  11.877   4.116  11.873  0.0433 -0.2402  0.3255
21868W        W38342   5.263  17.202   3.753  0.2280 -0.1789 -0.1083
21869W        W38343  13.139  14.010  12.323 -0.0271 -0.3588 -0.3389
21870W        W38344   4.633   0.116   1.971 -0.0281  0.1195 -0.0343
21871W        W38345   5.761  15.864  12.413 -0.0363 -0.1493 -0.1558
21872W        W38346   0.596   6.606   2.174 -0.1430  0.2235 -0.0091
21873W        W38347   0.768   2.214  14.710  0.0005  0.2750 -0.0178
21874W        W38348   6.419  15.445  15.196  0.0802  0.1092  0.0375
21875W        W38349  16.805   7.247  16.062  0.2592 -0.1426 -0.0169
21876W        W38350   3.954  10.539  15.205  0.0568 -0.0571  0.1752
21877W        W38351  12.737   3.115   0.869  0.1765 -0.1865  0.1901
21878W        W38352  13.888   9.752  14.159  0.4815 -0.1843 -0.4845
21879W        W38353  17.489   2.962   1.257 -0.0051 -0.1629  0.2430
21880W        W38354   8.419   6.678   4.108 -0.0637 -0.0787 -0.0600
21881W        W38355   0.613  11.104  14.959 -0.0353 -0.1397 -0.4380
21882W        W38356  10.830  14.038  16.097  0.1217  0.0584 -0.0619
21883W        W38357   2.280   1.565   5.152 -0.0901 -0.0437  0.1124
21884W        W38358   0.895  12.162  12.811 -0.0328 -0.0611  0.1795
21885W        W38359  10.354  14.799  15.883 -0.0925 -0.0164 -0.0107
21886W        W38360   6.971   7.607  15.930 -0.0618 -0.2341  0.0722
21887W        W38361  11.374   4.640   3.296  0.0462 -0.0723 -0.0093
21888W        W38362  10.095  15.454  16.864 -0.2384  0.0161  0.0300
21889W        W38363   1.523   4.236  13.060 -0.1539 -0.1398  0.1732
21890W        W38364  11.794  14.432   0.915 -0.0611  0.2526  0.1566
21891W        W38365   9.652   5.507   5.980 -0.1755 -0.0331  0.0352
21892W        W38366   7.820   4.039   2.444 -0.1955 -0.0248 -0.1079
21893W        W38367  11.715  12.645  16.202 -0.1003 -0.1765  0.0770
21894W        W38368   2.597   9.964  12.035  0.0239  0.1472 -0.0924
21895W        W38369   4.291   9.180  10.703 -0.1305 -0.0029  0.2096
21896W        W38370   8.550  17.764   3.715 -0.2728 -0.1693  0.0850
21897W        W38371   2.327   2.378  15.615 -0.0444  0.0956 -0.3501
21898W        W38372   4.557   3.861  12.142  0.1972  0.0280  0.0212
21899W        W38373  13.332   0.011  13.943 -0.2994 -0.4004  0.2361
21900W        W38374   2.589  16.702   2.188 -0.1328 -0.1395  0.0448
21901W        W38375  15.881  16.303   3.297 -0.1840  0.0620 -0.0413
21902W        W38376  12.992  15.486   5.589  0.1239  0.0253  0.1090
21903W        W38377   2.148  13.804  11.829  0.1201  0.1302  0.0277
21904W        W38378  11.965  12.202   5.443  0.0208 -0.0592  0.0365
21905W        W38379   5.150   5.706   2.488 -0.0046 -0.0455 -0.1857
21906W        W38380   2.653   6.191   2.037 -0.0498 -0.0810  0.3129
21907W        W38381   5.172  17.698  12.623  0.2022  0.1157  0.1732
21908W        W38382  17.493   3.658   2.965 -0.0098  0.0737 -0.1520
21909W        W38383   9.262  16.861   4.903  0.0207 -0.2662  0.0093
21910W        W38384   6.954   8.898   3.013 -0.2250 -0.1187 -0.2189
21911W        W38385  15.405   0.361   1.165  0.0442 -0.2700  0.1981
21912W        W38386  16.070  12.442  13.423 -0.0179  0.3700  0.4520
21913W        W38387   9.227   3.622  12.099 -0.0570  0.0337 -0.2376
21914W        W38388   7.750   2.831  15.871 -0.1537 -0.4369  0.1416
21915W        W38389  15.744   0.245  12.509  0.2353 -0.2473  0.0854
21916W        W38390  10.645   7.239   3.547  0.1171 -0.2325  0.0022
21917W        W38391  14.602  11.389  14.832  0.0953 -0.2347 -0.2776
21918W        W38392   6.900   2.100   2.841 -0.2156 -0.2731 -0.2079
21919W        W38393  16.784  11.344  14.416  0.1259  0.1384 -0.0068
21920W        W38394  13.862  15.526  13.313  0.0375  0.3571 -0.1056
21921W        W38395  10.403  13.231   1.481  0.2930 -0.1698  0.0201
21922W        W38396   1.860  17.791  12.154 -0.3186  0.0207  0.1469
21923W        W38397   2.249  16.722   1.408 -0.1763 -0.1283  0.1599
21924W        W38398  17.278   2.178   2.393 -0.0451 -0.0245 -0.0258
21925W        W38399  11.779   6.449  15.401  0.0559 -0.1440  0.0904
21926W        W38400   1.081  14.416  11.158  0.1779 -0.2240 -0.2911
21927W        W38401   1.916   1.013  12.970  0.1823 -0.2240 -0.1223
21928W        W38402  15.526   6.240  12.974 -0.1389 -0.1189 -0.2401
21929W        W38403   2.155  13.200  12.022 -0.1477 -0.0451 -0.0631
21930W        W38404  17.033  10.428   4.915  0.0026  0.3070 -0.0237
21931W        W38405  15.053   0.920   0.161  0.0217  0.0270 -0.1402
21932W        W38406   3.814  12.986  11.422  0.1293  0.2182 -0.2604
21933W        W38407  10.575  12.348  12.510 -0.1661 -0.2856 -0.0812
21934W        W38408   3.765  15.010  12.264 -0.1291 -0.3055 -0.0290
21935W        W38409  13.134  10.259  13.832  0.4643  0.0001 -0.2864
21936W        W38410  10.495   4.083  12.373 -0.3962  0.2656  0.1002
21937W        W38411   7.470   5.186   2.019 -0.0222 -0.0943 -0.2689
21938W        W38412  12.890   5.920   6.493  0.0327 -0.1961  0.0253
21939W        W38413  13.389   3.745   4.583 -0.0130  0.0156 -0.4330
21940W        W38414  15.701  11.358  14.263  0.3136  0.0823 -0.2683
21941W        W38415   6.280  11.319  11.643 -0.0025 -0.0676 -0.2891
21942W        W38416   7.651   8.965  11.579 -0.0931 -0.1118  0.1941
21943W        W38417   4.641   7.661  12.453  0.0586 -0.0757 -0.0142
21944W        W38418  17.612   7.110   2.765 -0.1364 -0.0918  0.2337
21945W        W38419   0.560   8.683  16.592 -0.3010  0.3796  0.0054
21946W        W38420  13.844   8.973  11.675  0.1068  0.0754  0.0737
21947W        W38421  15.122  16.449  16.747  0.0274  0.0868  0.1420
21948W        W38422   2.559   6.330   5.232 -0.1247  0.2597  0.0124
21949W        W38423   3.088   8.370   4.033 -0.0271  0.0401 -0.1067
21950W        W38424   0.865   7.155  15.551  0.0073  0.2205 -0.3421
21951W        W38425   3.728   1.247   4.855  0.3489 -0.1700  0.3053
21952W        W38426  11.308  13.842  14.922  0.1746 -0.0659 -0.0326
21953W        W38427   4.224  15.622  11.761 -0.1436  0.0589 -0.0050
21954W        W38428   4.031  12.249  16.186 -0.3490 -0.0746  0.1356
21955W        W38429  10.372   4.721   6.077  0.0859 -0.2389  0.1108
21956W        W38430   1.943   9.469  13.840  0.3194  0.2483 -0.4178
21957W        W38431  17.133  12.922  15.658  0.1643 -0.0925  0.3512
21958W        W38432  16.172  12.174  11.938  0.0668 -0.4374  0.3133
21959W        W38433  15.412  14.579   4.379  0.1711 -0.1507 -0.1586
21960W        W38434   8.507   1.338  12.674 -0.0987  0.0334 -0.0947
21961W        W38435   1.283   9.368  14.414 -0.0425 -0.0500  0.2536
21962W        W38436   1.666   4.500  15.627  0.0026  0.6200  0.1508
21963W        W38437  16.634   3.603   5.187 -0.0872  0.5244 -0.1438
21964W        W38438  17.629   9.922  16.048  0.0434 -0.2228 -0.1336
21965W        W38439   9.816   9.530  12.274 -0.2774  0.1581  0.0732
21966W        W38440   5.284   5.983   5.685  0.0678  0.0732  0.1797
21967W        W38441  15.422   4.689  14.172 -0.0302 -0.2713 -0.0427
21968W        W38442   9.646  15.419  15.426  0.0105  0.2646  0.1005
21969W        W38443   6.825  14.246  16.637  0.2144 -0.0060  0.0269
21970W        W38444   9.575   0.189  16.355 -0.0464 -0.1028 -0.0002
21971W        W38445  14.957   7.199  15.643 -0.1751  0.1268 -0.1606
21972W        W38446  12.305  12.945   2.364 -0.0906 -0.0733  0.0139
21973W        W38447   3.274  10.076  16.583  0.1068  0.1755 -0.1153
21974W        W38448  14.350   9.113  14.602 -0.4091  0.4709  0.0256
21975W        W38449   8.018  10.029  16.108 -0.0921 -0.1194  0.1053
21976W        W38450   8.343   7.644   1.908  0.3384 -0.1023 -0.0462
21977W        W38451   9.984  12.482  11.656  0.3093  0.1890 -0.1099
21978W        W38452   8.736   2.890  15.744 -0.1195  0.1357 -0.0887
21979W        W38453   4.612  16.001  12.840 -0.1550 -0.0908  0.3225
21980W        W38454   3.548   5.459  12.596 -0.0016 -0.0244 -0.0856
21981W        W38455   6.228  17.347  14.161 -0.2496  0.3155 -0.0634
21982W        W38456   6.414  14.510  14.930  0.2135  0.1945 -0.0508
21983W        W38457  15.003  17.479  16.585 -0.1665  0.1007  0.1838
21984W        W38458  12.907  17.729   0.959  0.0751  0.2332 -0.2889
21985W        W38459   1.461   0.877  14.889  0.1299 -0.2324 -0.0703
21986W        W38460   3.793  12.955  10.763  0.1330 -0.0412  0.0267
21987W        W38461   4.107   5.560   3.699 -0.0580  0.2764  0.0474
21988W        W38462   8.457   8.527   3.020 -0.1227  0.2119 -0.3582
21989W        W38463   4.995   6.640   3.986  0.3638  0.2436  0.0563
21990W        W38464  17.332  17.362  15.389  0.1880  0.1242  0.1191
21991W        W38465  11.968   1.011  11.739  0.1166 -0.0720 -0.1228
21992W        W38466   5.357   2.723  11.193 -0.1270 -0.3267 -0.0899
21993W        W38467  13.117  16.595  16.205  0.1291  0.2372  0.2677
21994W        W38468   3.140   8.527   0.291 -0.0551 -0.1643 -0.1036
21995W        W38469   7.064   4.675   2.240 -0.3144  0.1963 -0.2545
21996W        W38470   1.301  16.626   1.943  0.0735  0.2764 -0.0503
21997W        W38471   6.282  13.985  13.216  0.1609 -0.0182 -0.2416
21998W        W38472   7.368  16.313   4.926 -0.0088 -0.1330 -0.1022
21999W        W38473   8.974   0.654   2.728  0.0767 -0.1540 -0.1335
22000W        W38474  10.506  14.383  12.780 -0.1009  0.0402  0.0933
22001W        W38475  16.089  10.271  12.054 -0.1956 -0.0380  0.0692
22002W        W38476  14.117  13.747  14.425  0.1085  0.2577 -0.0020
22003W        W38477  17.174  15.773  16.186 -0.1651 -0.0435  0.0065
22004W        W38478   1.029  11.456   5.248 -0.1152  0.1504  0.1071
22005W        W38479  16.815  15.326   5.433 -0.0173 -0.0103 -0.1078
22006W        W38480  10.340   5.623   3.055 -0.4277 -0.0316 -0.0635
22007W        W38481   7.138   9.637   0.351 -0.0550  0.4142  0.1659
22008W        W38482  15.575  13.008   3.429  0.0799 -0.0202  0.0203
22009W        W38483   2.775   3.725  15.862 -0.3922  0.1764  0.0313
22010W        W38484   9.173  11.895  11.757  0.0573 -0.1620 -0.2065
22011W        W38485   6.616  11.462  14.948  0.0077 -0.2484  0.3224
22012W        W38486   4.091  14.552   2.850 -0.0958 -0.1483  0.1266
22013W        W38487   9.926  16.871  10.179  0.0660 -0.0206 -0.1082
22014W        W38488   1.377  10.286  12.026  0.0952 -0.1872 -0.0093
22015W        W38489   1.559  14.413   3.365 -0.1150 -0.3526 -0.0321
22016W        W38490  16.724   2.049  16.011  0.0411 -0.0308  0.1354
22017W        W38491  16.199   4.878   5.754 -0.2349 -0.0532  0.0448
22018W        W38492   4.557  13.634  13.924 -0.0261  0.1090  0.1249
22019W        W38493   3.632  16.266   3.456 -0.0865 -0.1420  0.2039
22020W        W38494   1.793   0.614   1.056  0.0104  0.1845 -0.0254
22021W        W38495   3.857  13.102  12.352  0.2145 -0.2545 -0.2205
22022W        W38496  12.489   7.891   5.380 -0.1670 -0.0118 -0.0417
22023W        W38497   0.457   2.625  11.244  0.0024  0.2121 -0.2614
22024W        W38498  10.600  14.412  15.339 -0.2071 -0.3615  0.0004
22025W        W38499  10.500  14.416   0.943 -0.1129  0.0670 -0.0676
22026W        W38500  11.814  13.395  11.895  0.1594 -0.1316 -0.0211
22027W        W38501  16.934  17.735   4.027 -0.1204  0.1205  0.2109
22028W        W38502   6.774   5.299   0.001 -0.0321  0.1859  0.0642
22029W        W38503  16.452   6.619   3.096  0.1282 -0.1534  0.2626
22030W        W38504   3.682   1.061  13.088  0.0661  0.0742  0.1181
22031W        W38505   0.822  12.743  12.530 -0.1239 -0.0493 -0.3237
22032W        W38506   7.096   4.464   0.038 -0.0854 -0.2591 -0.5325
22033W        W38507  12.595   4.764   5.106 -0.2079  0.3297  0.2342
22034W        W38508  17.473  11.501  12.922  0.0482 -0.2065  0.0440
22035W        W38509   5.521  16.321  12.543  0.1830  0.0759 -0.3888
22036W        W38510  17.033  14.268  12.567  0.0882  0.1583  0.0566
22037W        W38511  13.066  10.690  14.507  0.1587 -0.3283  0.2387
22038W        W38512   4.913  12.452  14.802  0.2462 -0.1431  0.0903
22039W        W38513  10.320  15.169   4.001  0.2213 -0.3060 -0.1120
22040W        W38514   6.620  14.552  12.010  0.0878 -0.0725 -0.3300
22041W        W38515   1.404  15.642   3.527 -0.0446  0.1087 -0.0598
22042W        W38516   4.125   7.034   3.773 -0.1259 -0.0706  0.0453
22043W        W38517   6.192  13.174   4.204 -0.0314  0.0042  0.2990
22044W        W38518   0.988  14.792   1.145  0.3613 -0.2131  0.0042
22045W        W38519   2.862   3.112  14.410 -0.0289  0.0629  0.1780
22046W        W38520  12.623   6.869   4.063 -0.1581 -0.0529  0.1144
22047W        W38521  15.473   5.638   4.663 -0.0145  0.3547 -0.1470
22048W        W38522   3.225   1.524   6.587  0.0969 -0.3029  0.0890
22049W        W38523   0.856   6.077   0.137  0.0953  0.1911  0.0816
22050W        W38524   0.629   1.738   3.388  0.0055 -0.0457 -0.1153
22051W        W38525  16.511   0.666   0.733  0.1520 -0.0822 -0.0448
22052W        W38526  12.286   3.936   4.592 -0.1317 -0.0578  0.1231
22053W        W38527  13.277  14.613   0.332 -0.2207 -0.3445 -0.1830
22054W        W38528  10.943   4.089   3.526  0.2069  0.0952  0.0122
22055W        W38529  10.874   3.273  14.884  0.2245 -0.2398 -0.0525
22056W        W38530   1.011   3.328  14.036 -0.5688  0.0513  0.2485
22057W        W38531   2.431   2.163   5.800 -0.0621  0.0959  0.2099
22058W        W38532   6.890   4.534   4.193 -0.0500 -0.0995 -0.1870
22059W        W38533   4.097   8.678   0.729  0.2270  0.2525  0.2552
22060W        W38534   6.452  15.699  13.538  0.0414 -0.1808 -0.1300
22061W        W38535  11.171  11.544  11.560 -0.2888  0.2435  0.0376
22062W        W38536   4.310   4.980  12.106  0.2655 -0.0398 -0.0054
22063W        W38537   5.465  17.366   1.738 -0.1061  0.1305 -0.0340
22064W        W38538   6.066  16.877  11.879  0.3148 -0.0589  0.0685
22065W        W38539  13.778   6.706  12.550  0.2290 -0.1126  0.1329
22066W        W38540  10.734   4.750   0.337  0.2457 -0.3393  0.1064
22067W        W38541   8.198   8.963  13.808  0.1185  0.1219 -0.0553
22068W        W38542   0.786  15.298   2.844 -0.1385 -0.0468  0.0735
22069W        W38543   9.029  17.408  13.439 -0.1871 -0.3542 -0.1309
22070W        W38544   3.447   0.349  12.235 -0.2290  0.0246  0.2779
22071W        W38545  11.258  14.696  16.522  0.0888  0.1407 -0.3158
22072W        W38546   9.560   0.419   4.686  0.1945 -0.0178  0.2042
22073W        W38547  13.570   5.099  12.627 -0.0911 -0.2163 -0.0489
22074W        W38548   2.174  15.815  11.564 -0.2380 -0.0619 -0.0712
22075W        W38549  11.874   5.169   1.317 -0.1549  0.1442 -0.1878
22076W        W38550   8.483   3.542   2.103 -0.1883  0.1578 -0.1296
22077W        W38551  13.376   3.832  15.939 -0.0501  0.2263  0.1261
22078W        W38552  14.016   4.717   5.167  0.0442  0.3663 -0.4780
22079W        W38553   2.282   7.093  15.365 -0.0566  0.1807 -0.2038
22080W        W38554  11.961   1.456  15.069 -0.0306 -0.2259 -0.0461
22081W        W38555   9.345   7.550  14.040  0.0244 -0.1086  0.0642
22082W        W38556   1.212   9.663  15.582 -0.2259  0.2988  0.3162
22083W        W38557  11.526   1.058  16.146 -0.0377  0.2007  0.2221
22084W        W38558   4.174   2.533   0.443 -0.1721  0.0015  0.3694
22085W        W38559  15.811   8.743   3.575  0.0717 -0.1658  0.0057
22086W        W38560   8.670   9.543   3.772  0.0606  0.0528 -0.0118
22087W        W38561   3.108   4.766   6.374  0.1558  0.2374 -0.0284
22088W        W38562  13.264   4.791  12.913  0.4526 -0.0601 -0.0856
22089W        W38563   3.488  13.299   3.622  0.1978 -0.2398 -0.2684
22090W        W38564   5.053  12.601  13.005 -0.0701  0.1440  0.0244
22091W        W38565  15.987  12.282   4.260 -0.0595 -0.1927 -0.1519
22092W        W38566  10.669   3.378   5.342 -0.0571 -0.2629  0.0949
22093W        W38567  10.504   3.115  16.053  0.0557 -0.0410  0.1206
22094W        W38568  16.263   8.438   5.541  0.2501 -0.1037  0.3818
22095W        W38569  12.905  10.546   1.352  0.1597  0.2464  0.0043
22096W        W38570  17.430  15.772   4.361 -0.4633 -0.3806 -0.2943
22097W        W38571   9.271   5.746   4.617 -0.1661  0.1322  0.1691
22098W        W38572  17.759  16.383   2.611  0.0172 -0.1381  0.1778
22099W        W38573   8.153   1.283  14.724  0.0373  0.3197  0.0686
22100W        W38574   6.230  14.296   1.678  0.1982 -0.0870 -0.0660
22101W        W38575   3.057  10.625   1.662 -0.0072 -0.0717  0.0190
22102W        W38576   1.797   2.756  13.656 -0.1648  0.0364 -0.0976
22103W        W38577   6.545  16.964   0.503  0.0526  0.2588 -0.2121
22104W        W38578   8.258  10.891  15.779 -0.0160  0.0874 -0.0949
22105W        W38579   4.887   1.853   5.445 -0.2639  0.1437 -0.1005
22106W        W38580   7.093   1.373   4.389 -0.0688  0.2651  0.0120
22107W        W38581   5.836  16.517   2.178 -0.3014 -0.1899 -0.2580
22108W        W38582   4.820  16.278  15.002  0.0474  0.0001  0.1880
22109W        W38583   2.507   3.323  15.709 -0.2078 -0.1079 -0.1526
22110W        W38584  12.492  10.931  13.729  0.1267  0.1097  0.2106
22111W        W38585   6.268  12.987  11.871  0.1142 -0.0058 -0.1987
22112W        W38586  11.989  14.117   4.139 -0.1554 -0.2997  0.1795
22113W        W38587   4.536   3.381   4.855 -0.2095 -0.1895 -0.2945
22114W        W38588   3.097   3.497   5.510 -0.2407 -0.0937  0.1052
22115W        W38589  10.501  17.394   2.097 -0.0378  0.1077 -0.1662
22116W        W38590   0.095  10.992  15.167 -0.1305 -0.3839 -0.2385
22117W        W38591   9.487  15.882  12.032  0.2489 -0.0230 -0.2821
22118W        W38592   2.043   8.147   3.726  0.2485  0.1559  0.1026
22119W        W38593   3.516   5.551   6.303  0.1071  0.4324 -0.0257
22120W        W38594  11.745   9.448   6.049  0.2621  0.1754 -0.0449
22121W        W38595  17.405  15.665   0.862  0.1504 -0.0697 -0.0042
22122W        W38596  10.117  11.542  12.093 -0.0318  0.1875  0.1046
22123W        W38597   7.431   5.953  12.487 -0.0402 -0.0300 -0.0073
22124W        W38598   3.684  12.180   5.754  0.1352  0.2078 -0.2116
22125W        W38599   2.058  16.663   5.874  0.0427 -0.0208  0.2664
22126W        W38600  17.240   1.586   1.145  0.0935  0.1384  0.0767
22127W        W38601   2.776  16.015   4.726  0.0400 -0.1667 -0.1339
22128W        W38602   9.556  13.180   1.903  0.1132 -0.1161 -0.0238
22129W        W38603  14.779  12.336  13.142  0.3739  0.0119  0.2404
22130W        W38604  14.831  14.336   5.593  0.2115 -0.2305  0.3058
22131W        W38605  15.835   0.572  16.029 -0.0450 -0.2924 -0.0184
22132W        W38606   5.871   1.551   5.720  0.0288 -0.0380 -0.0402
22133W        W38607   0.705  16.573   3.000 -0.1942 -0.0758  0.0992
22134W        W38608  15.456  15.322   0.001 -0.0681 -0.1266 -0.1678
22135W        W38609   3.946  12.622  14.498 -0.3054  0.1411  0.0900
22136W        W38610   2.235   1.993   1.627 -0.2582  0.1221  0.0791
22137W        W38611  12.418   5.373   5.268  0.0420 -0.2009  0.0794
22138W        W38612  13.845  17.493   1.906  0.2034  0.1067  0.1836
22139W        W38613  17.263   5.345  11.931 -0.0605 -0.1610 -0.1371
22140W        W38614  10.774   1.734  12.792 -0.1977  0.0490 -0.0723
22141W        W38615  11.210   0.222   3.570  0.0265  0.0652  0.0778
22142W        W38616  12.950   5.282  13.391 -0.1378 -0.0419 -0.0201
22143W        W38617  16.416   3.315   0.838 -0.0448  0.0133  0.0186
22144W        W38618  11.618  14.528  10.394 -0.3290  0.1064  0.3056
22145W        W38619  16.426   4.071  16.667 -0.1932 -0.0259 -0.0513
22146W        W38620   0.503   2.871  15.852 -0.1354 -0.0456  0.2333
22147W        W38621   2.843   7.668   5.138 -0.0033 -0.0926 -0.0931
22148W        W38622  11.410   4.437  15.514  0.1295  0.0156 -0.2129
22149W        W38623  11.928   8.572  16.120  0.2235 -0.0366  0.0577
22150W        W38624  17.318   2.836   0.003 -0.1332 -0.1884 -0.2182
22151W        W38625   6.252   1.127  12.815  0.0004  0.1111  0.1044
22152W        W38626  10.794   1.349   5.184  0.1836 -0.0396 -0.1412
22153W        W38627   4.536  15.606   0.271 -0.1552  0.0203  0.2174
22154W        W38628  12.212   0.462  16.869  0.0651 -0.2585 -0.0751
22155W        W38629  15.311   3.640  16.539  0.3139  0.1028 -0.3215
22156W        W38630  12.909  12.292  16.042  0.0733  0.1957 -0.2140
22157W        W38631  11.707  14.780   3.526 -0.0908 -0.1996  0.3648
22158W        W38632   6.989   1.163  13.363  0.2312 -0.0688  0.1068
22159W        W38633   2.025  15.161   0.195  0.1208  0.1308 -0.0693
22160W        W38634  16.743   6.544  14.146 -0.0467  0.1298 -0.5278
22161W        W38635  12.626   9.053  13.348  0.2415 -0.1242  0.0833
22162W        W38636   0.351  12.174   1.699 -0.3583 -0.0267  0.1101
22163W        W38637   3.085  11.978  16.628  0.1347 -0.1691 -0.1849
22164W        W38638  14.873  16.144   4.218 -0.1616 -0.0744  0.4412
22165W        W38639   1.607  11.971  15.480 -0.0800  0.2794 -0.0152
22166W        W38640  12.012  10.426  15.320 -0.2618  0.2010  0.0091
22167W        W38641  14.557  14.599  12.849 -0.2075 -0.0880 -0.2491
22168W        W38642   7.964   0.080   5.726  0.1313  0.0089 -0.2962
22169W        W38643   9.502   5.999   0.398  0.1638 -0.4255 -0.0953
22170W        W38644   5.359   5.954  12.866 -0.0780 -0.1163 -0.1385
22171W        W38645  14.713   8.078  12.273  0.0231  0.0004  0.2140
22172W        W38646   9.826  14.654   0.256  0.1101  0.2333 -0.4034
22173W        W38647   1.946  10.579   3.171  0.0053 -0.0778 -0.3281
22174W        W38648   3.844   1.492   5.290 -0.2053  0.1784  0.1363
22175W        W38649   2.214   9.827   0.041 -0.0179  0.0294 -0.1571
22176W        W38650  14.478   5.418  12.260 -0.0160 -0.2710 -0.0744
22177W        W38651   9.389   8.495  14.323 -0.0649 -0.1594 -0.3369
22178W        W38652   8.878  16.260  16.710  0.0164  0.2268  0.1482
22179W        W38653   9.844   1.436   3.154  0.0100  0.2711 -0.0560
22180W        W38654  10.267   4.936   0.330 -0.2599  0.4444  0.0790
22181W        W38655  15.871  12.757  13.822  0.3148  0.0154 -0.2667
22182W        W38656  14.520   4.772  15.601  0.1384  0.0176 -0.1118
22183W        W38657   5.339   9.041  15.785  0.1320 -0.0311  0.2224
22184W        W38658  17.016  17.589  14.435 -0.0338  0.2106  0.0108
22185W        W38659   0.885  14.566   4.492 -0.1646 -0.0968  0.1350
22186W        W38660  12.364  12.449   2.410  0.0367  0.1864 -0.3107
22187W        W38661   3.797  13.194  15.875  0.0944 -0.0861  0.0197
22188W        W38662   4.156   5.154   2.095  0.0183  0.0497 -0.1330
22189W        W38663   0.181  16.682   2.315  0.2467 -0.1586 -0.3292
22190W        W38664  15.912  16.149  14.215 -0.2386  0.0134 -0.1969
22191W        W38665   2.047  10.515   4.632  0.0806 -0.3395  0.1182
22192W        W38666  10.804  10.962  13.883 -0.3787  0.0792  0.1187
22193W        W38667  13.935   5.241  15.898  0.0386  0.0864  0.0516
22194W        W38668  16.945  12.522   5.234  0.0638  0.3774  0.0078
22195W        W38669  12.102  17.690   1.339  0.3863 -0.0952 -0.1854
22196W        W38670  12.866   9.827  14.957 -0.0181  0.1851 -0.2511
22197W        W38671   5.534   5.174   1.860  0.0159  0.0668  0.0743
22198W        W38672   1.517   7.027  12.403  0.1854 -0.1391  0.1411
22199W        W38673  11.147   1.529   1.495  0.2166 -0.0122 -0.0144
22200W        W38674  10.362  16.383   1.259 -0.1432 -0.0298  0.2625
22201W        W38675  16.050  10.234   3.033 -0.0808 -0.2255 -0.3199
22202W        W38676   9.988   4.416  16.616 -0.0086  0.2013  0.1410
22203W        W38677   1.770   3.413   1.392  0.2423 -0.1415 -0.0253
22204W        W38678  14.263   4.989   1.320  0.0191  0.0188 -0.1247
22205W        W38679   2.499  11.539  11.825  0.0107 -0.1493 -0.0166
22206W        W38680   0.790  14.027   3.990  0.2137 -0.1341 -0.1798
22207W        W38681   8.104  13.706   1.679 -0.2066 -0.2695  0.0338
22208W        W38682   9.238   0.211   1.320  0.2918  0.2193 -0.0586
22209W        W38683   7.192   8.074   1.372  0.0290  0.0034  0.1395
22210W        W38684  17.283   8.875  11.483  0.0993 -0.0369  0.1454
22211W        W38685  13.117   6.348   4.925 -0.0452  0.0636 -0.0635
22212W        W38686   0.413   0.172  12.615 -0.2145  0.0286 -0.2094
22213W        W38687   2.625   6.732  13.436  0.1526 -0.1793  0.1581
22214W        W38688   6.475   5.591   1.628  0.0339  0.0229 -0.0192
22215W        W38689   3.528  14.633   5.043  0.1299  0.0126 -0.0148
22216W        W38690   0.258   1.555   5.166  0.0821  0.0861 -0.0721
22217W        W38691  16.939   3.255   1.930 -0.2474 -0.1679  0.0209
22218W        W38692  12.084   4.848   4.106 -0.3341  0.1531 -0.2163
22219W        W38693  14.349   3.546  16.340 -0.0102 -0.3843 -0.2708
22220W        W38694  16.736   2.112  15.523  0.0536 -0.0832 -0.1423
22221W        W38695  10.619   4.350  12.812 -0.3648  0.2206 -0.3584
22222W        W38696  17.366   9.428  15.875 -0.0574 -0.1461 -0.1501
22223W        W38697   7.401   1.273   2.771 -0.5906  0.1571 -0.3731
22224W        W38698  15.285  17.606  15.956 -0.0797 -0.1574 -0.0469
22225W        W38699  15.742  11.314  12.446  0.1387  0.0323 -0.0971
22226W        W38700  11.075   7.204  15.441 -0.2431 -0.0963 -0.1780
22227W        W38701   7.057   3.578  12.808 -0.1043  0.1809 -0.0176
22228W        W38702   0.004   5.720  14.000 -0.0798 -0.0164  0.2283
22229W        W38703   2.079   8.441   1.686 -0.1888 -0.0229  0.0496
22230W        W38704   8.183  14.177  11.847  0.0966 -0.0853 -0.0880
22231W        W38705  16.651   2.836   2.658 -0.0212 -0.1175 -0.1303
22232W        W38706   1.288  13.620  12.534 -0.0407  0.0516  0.1564
22233W        W38707   3.457   4.172  13.530 -0.0967 -0.2813 -0.1204
22234W        W38708  11.391   8.861  15.325 -0.0216  0.0512  0.2596
22235W        W38709   2.765  14.956   2.515  0.2047  0.0451 -0.2879
22236W        W38710  13.098  15.897   2.571  0.1973  0.0547  0.3521
22237W        W38711   8.442   0.156   0.106 -0.0149  0.2424  0.1353
22238W        W38712   8.926   7.840   3.369 -0.2619  0.1244 -0.0608
22239W        W38713   7.285   4.552   0.480 -0.1690  0.0047 -0.0623
22240W        W38714   1.115  16.325   2.741 -0.0206 -0.1724 -0.2737
22241W        W38715   3.154  12.815  13.248 -0.0273 -0.2259  0.0365
22242W        W38716  15.950   4.621   1.498  0.1141  0.1109 -0.1479
22243W        W38717   1.431   8.543   1.025  0.0315 -0.0131  0.1300
22244W        W38718   3.034  14.547   2.573  0.0889  0.0908 -0.2775
22245W        W38719  14.539   0.514  14.566 -0.0100  0.2997  0.1243
22246W        W38720  13.677   8.750   2.885 -0.1911  0.1158  0.3385
22247W        W38721  16.444  11.635  13.153 -0.0284 -0.0182  0.1064
22248W        W38722   7.687  14.654   3.393 -0.1052 -0.0732  0.1156
22249W        W38723   2.249  17.635  10.709  0.4406  0.4208  0.0287
22250W        W38724   3.068   9.205  13.720  0.0619 -0.1875  0.1604
22251W        W38725   3.276  13.969  16.075  0.2007 -0.0362 -0.0062
22252W        W38726  10.262  15.172  14.044 -0.2804 -0.4305  0.1668
22253W        W38727   4.169  15.241  12.498  0.0140 -0.0901 -0.1307
22254W        W38728   4.436  17.649   1.593 -0.4006  0.0109 -0.1432
22255W        W38729  13.155   8.608   2.681 -0.1343 -0.0457 -0.0091
22256W        W38730  17.043   2.955  16.024 -0.4562 -0.3880 -0.2341
22257W        W38731  16.702  16.642   5.507 -0.4914  0.0848 -0.0862
22258W        W38732   5.664   4.448  16.285  0.0766  0.6569  0.1522
22259W        W38733  16.718   7.348   3.750  0.1997  0.1119  0.0410
22260W        W38734   8.911  10.322   2.525  0.0059 -0.0774  0.0292
22261W        W38735  15.812   1.941  10.853 -0.0321  0.2421 -0.1066
22262W        W38736  10.595   9.410  14.861  0.0588 -0.0722  0.1118
22263W        W38737   3.160  11.262  11.151 -0.2818 -0.1152  0.1898
22264W        W38738   0.713   6.871   3.426 -0.0565  0.1049  0.0980
22265W        W38739   4.996   5.836   3.917  0.2763 -0.0701  0.1426
22266W        W38740   8.519   4.313   1.520 -0.0395  0.1056 -0.0027
22267W        W38741   0.271  11.858   3.399 -0.0899 -0.2834  0.0075
22268W        W38742   5.942   4.352  15.020  0.0079 -0.2253 -0.3084
22269W        W38743  14.556  14.252  11.718  0.1204 -0.3556  0.0073
22270W        W38744   1.983  14.025   2.924 -0.1519  0.2162 -0.1378
22271W        W38745  16.544   8.850  12.606  0.1114 -0.1035  0.0115
22272W        W38746   2.825  15.747  12.895 -0.1612  0.0855 -0.1778
22273W        W38747   1.682  17.374   3.957 -0.1614  0.1157 -0.0674
22274W        W38748  10.815  16.234  15.530  0.4384 -0.0174 -0.1546
22275W        W38749  16.364   2.054  14.281 -0.3984 -0.2676  0.1809
22276W        W38750  11.833  13.707  16.811 -0.0175 -0.1301  0.0470
22277W        W38751   8.212  12.821  11.672 -0.2764  0.1208 -0.5119
22278W        W38752  13.991   0.407   3.536 -0.0834  0.0360 -0.0951
22279W        W38753  13.254   9.843  13.614 -0.2760  0.1076 -0.1688
22280W        W38754  15.159  10.595   3.852  0.0935  0.1385  0.3550
22281W        W38755  16.742  13.457   5.029 -0.1303  0.0577 -0.0728
22282W        W38756   7.443   6.650  11.332  0.3107  0.2333  0.1651
22283W        W38757  11.578   0.339  14.512 -0.0484  0.4400 -0.1206
22284W        W38758  15.141   6.906  13.433  0.1968 -0.1725 -0.0850
22285W        W38759  11.158  15.781  16.172 -0.1701  0.3564  0.1388
22286W        W38760  13.004   4.002  10.934 -0.1736  0.0728 -0.1630
22287W        W38761  16.271   7.195   4.815  0.0132 -0.2699 -0.1731
22288W        W38762   5.881  11.868  15.987 -0.2086  0.1822  0.1846
22289W        W38763   8.888   8.482  12.844  0.2698  0.0849  0.0916
22290W        W38764   4.468   1.339   1.036  0.1256 -0.0333  0.2116
22291W        W38765   1.799  17.595  12.622 -0.2477 -0.0090 -0.0128
22292W        W38766   6.204   1.458   2.382 -0.0402 -0.0962 -0.2304
22293W        W38767  16.572   6.838  15.072 -0.1822  0.2510  0.1794
22294W        W38768   3.314   9.041   2.249  0.1922  0.2154  0.0940
22295W        W38769   8.681   4.637  14.736 -0.0607 -0.0819 -0.1706
22296W        W38770  13.829   0.543   0.797 -0.0940 -0.1877 -0.1362
22297W        W38771   3.426  13.122  12.915  0.1801 -0.1130 -0.0892
22298W        W38772  17.240   6.134  12.962 -0.2319 -0.0839 -0.1126
22299W        W38773   0.235  15.441  12.010  0.2827  0.3451  0.1405
22300W        W38774   2.727   5.302  14.334  0.4888 -0.1068 -0.0329
22301W        W38775   8.055   8.248  12.635 -0.1606 -0.0143  0.1072
22302W        W38776   6.561   2.865   0.563 -0.0727  0.1548 -0.0737
22303W        W38777   8.296   9.886   1.809 -0.0585  0.2415 -0.1445
22304W        W38778  12.882  11.940   0.437  0.1819  0.1849  0.3461
22305W        W38779   8.575  14.700  13.202  0.5959 -0.1692 -0.1232
22306W        W38780  10.517   3.204   2.137 -0.1635  0.1226  0.1188
22307W        W38781   2.368   0.167  12.307 -0.1951  0.0035 -0.2665
22308W        W38782  15.655  12.242  12.860  0.2564 -0.0622  0.2464
22309W        W38783  15.595   5.088   0.768 -0.0403 -0.0551 -0.1028
22310W        W38784   3.057   8.069   4.929  0.1329  0.0929  0.0305
22311W        W38785   7.949   5.789  15.980 -0.5020 -0.0951  0.1087
22312W        W38786   4.552   8.138  15.105  0.0673 -0.3687 -0.0727
22313W        W38787  11.610   0.926   4.242  0.0440  0.0458 -0.1705
22314W        W38788   1.898   3.944   2.045 -0.0792 -0.1879 -0.0936
22315W        W38789  10.186  14.312  16.043 -0.1116 -0.1506 -0.1829
22316W        W38790   3.042   5.528  11.861  0.0112 -0.1263 -0.0561
22317W        W38791  11.262   8.487   4.156 -0.1633  0.0202 -0.2093
22318W        W38792   8.182   9.561  15.908 -0.2523 -0.0729  0.2778
22319W        W38793   7.152  17.537   5.216  0.0112  0.0165 -0.1019
22320W        W38794  15.249   4.405   0.198 -0.2142  0.3713 -0.0782
22321W        W38795   3.031  12.612   0.552 -0.3058 -0.1596 -0.0292
22322W        W38796  10.624   8.803   1.621  0.0025 -0.0419 -0.3471
22323W        W38797   6.682   4.624   3.133 -0.5229 -0.2128  0.2268
22324W        W38798  13.699   3.489   5.991 -0.1090  0.3237  0.2389
22325W        W38799  12.479  10.641   2.369 -0.1999 -0.0472  0.1562
22326W        W38800   2.502   5.788  14.668  0.0544  0.0992 -0.0488
22327W        W38801   5.355  11.472   2.989 -0.2633 -0.2886 -0.0097
22328W        W38802   1.702   8.281   4.157  0.1146 -0.0423 -0.0506
22329W        W38803   8.304   9.756  15.392 -0.1494 -0.1587  0.2125
22330W        W38804   8.624  13.836  11.523  0.0882  0.0855  0.1431
22331W        W38805  15.086   3.184   0.517  0.0423  0.0048 -0.1280
22332W        W38806   4.804   0.121  12.419 -0.0517 -0.2061  0.0863
22333W        W38807   4.611  11.453  12.495 -0.0627 -0.0629 -0.2575
22334W        W38808  10.210  13.996   4.870 -0.1081 -0.1580  0.0883
22335W        W38809  12.310   2.697   0.215  0.2346  0.0320  0.4524
22336W        W38810  16.562   9.426  14.049 -0.2923  0.1746  0.0247
22337W        W38811   2.641  14.353  12.424 -0.1230  0.5830  0.1036
22338W        W38812   2.989  17.176  12.194  0.1652  0.2111 -0.3138
22339W        W38813  10.024  12.392  14.171  0.0003  0.0623  0.0227
22340W        W38814  14.446  16.603  12.719 -0.0216 -0.0807  0.1588
22341W        W38815   1.924  17.628  16.209 -0.0986  0.0867 -0.1427
22342W        W38816  13.569   4.916   5.525  0.1542  0.1509  0.2345
22343W        W38817   7.494  11.042  16.291  0.2026 -0.1984  0.2947
22344W        W38818  14.212  11.202  12.556 -0.0735  0.0810 -0.1504
22345W        W38819  13.637  15.520   2.733 -0.0804 -0.0439 -0.0991
22346W        W38820  13.651   4.622   3.255  0.2136  0.1712 -0.2801
22347W        W38821   4.758  17.412   2.881 -0.0816  0.1539  0.0760
22348W        W38822   6.171  17.252   0.721  0.0968  0.1057  0.0005
22349W        W38823   6.944   4.970  11.981 -0.0943 -0.1864 -0.1544
22350W        W38824   3.220   5.457   3.518 -0.1528 -0.4357 -0.1904
22351W        W38825   5.390  15.991  11.626  0.2614 -0.0324 -0.1351
22352W        W38826   5.319   8.380  12.615 -0.1425  0.0420  0.0409
22353W        W38827   2.558   8.605   3.212  0.1324 -0.1245  0.1637
22354W        W38828  13.795   1.158   2.982 -0.0726  0.0514  0.1682
22355W        W38829  13.275   4.937   4.133  0.0951 -0.0261  0.0040
22356W        W38830   8.517   9.501   2.128  0.0365  0.1788 -0.2166
22357W        W38831   2.322  15.751   2.359  0.2310 -0.3312  0.2682
22358W        W38832   8.210  14.013  12.314 -0.2812  0.1099 -0.2933
22359W        W38833   1.933  11.123  10.457 -0.3064 -0.1478  0.0721
22360W        W38834  11.656   6.424  14.065 -0.2177  0.2504  0.1882
22361W        W38835  12.843   0.397  13.986 -0.0389 -0.0613 -0.0149
22362W        W38836   6.467   2.679   1.237 -0.0340 -0.2586 -0.0445
22363W        W38837  15.703  13.928   1.872  0.1564 -0.1301  0.0020
22364W        W38838  13.585   9.726   3.649 -0.1464  0.1096 -0.0519
22365W        W38839  14.136  11.008   2.337 -0.0577 -0.0540  0.2169
22366W        W38840  15.810   7.375   5.306 -0.2045 -0.3158  0.0156
22367W        W38841   7.017   7.120   4.054  0.0738  0.1685  0.1534
22368W        W38842  13.262   4.423   3.925  0.1777  0.1415  0.4502
22369W        W38843  11.250  13.181   0.475  0.1460 -0.2377 -0.3081
22370W        W38844  16.552   4.617  13.250  0.0784 -0.3019  0.0681
22371W        W38845  14.328  13.960   2.003 -0.2332  0.0621  0.2798
22372W        W38846   1.040   0.650  13.903 -0.1033  0.1427  0.0185
22373W        W38847  10.692   3.123   0.812 -0.1583  0.0075  0.0185
22374W        W38848   5.612  13.124  12.634  0.0684  0.1608  0.1359
22375W        W38849   4.217  11.745   5.182 -0.0449  0.0951  0.3328
22376W        W38850   2.531  15.613   4.499 -0.0080  0.0093  0.0554
22377W        W38851   9.810  15.852  11.442 -0.0480 -0.2766  0.2032
22378W        W38852   1.735   6.468  16.863 -0.0039 -0.1938  0.1596
22379W        W38853   6.414  17.059   2.256  0.2455 -0.0011  0.2192
22380W        W38854   7.825   1.506   2.753  0.3732 -0.0386  0.0919
22381W        W38855   4.140   5.624  16.555  0.0409 -0.2638  0.0320
22382W        W38856  14.850   9.024   3.450 -0.0339 -0.1298  0.2364
22383W        W38857   9.540   9.172   5.158 -0.2148 -0.0320  0.2009
22384W        W38858   6.854   3.366   0.102 -0.1643  0.0699  0.2824
22385W        W38859   9.058   1.514   2.759  0.0029  0.1286 -0.1515
22386W        W38860   1.649  16.846   0.564  0.1866 -0.1345  0.2660
22387W        W38861   3.376   2.109   3.206 -0.1475 -0.1119  0.3216
22388W        W38862  11.003  10.155   1.935  0.0219 -0.0453 -0.2808
22389W        W38863  17.431   8.280   0.887 -0.0778  0.1116 -0.0113
22390W        W38864   0.668  15.919  13.951  0.1256 -0.1692  0.0274
22391W        W38865   6.566   3.200   2.260  0.0504 -0.0197 -0.1150
22392W        W38866   5.764   6.904   4.488  0.0192 -0.0886  0.0921
22393W        W38867  13.364   4.540  14.766  0.0852  0.2460 -0.2116
22394W        W38868   9.646  16.726  11.359 -0.0484 -0.1033 -0.1475
22395W        W38869   9.049  10.367   0.319 -0.3951  0.0308  0.0736
22396W        W38870   6.642  17.677  14.432 -0.0198  0.1458 -0.0917
22397W        W38871   4.472   6.726  14.227  0.2824  0.0235 -0.1486
22398W        W38872  17.289  15.820  14.294 -0.0085 -0.0955 -0.0798
22399W        W38873  12.427  10.763   1.176 -0.1357 -0.0975 -0.0592
22400W        W38874   7.637   9.653  16.874 -0.2240  0.0498 -0.2263
22401W        W38875   6.025  10.474  12.076  0.1335  0.2058  0.0701
22402W        W38876   0.770  16.901  15.582  0.0822  0.0850  0.1499
22403W        W38877   7.601  17.399   2.232 -0.0129  0.2526 -0.1881
22404W        W38878   6.571  10.402  11.832 -0.0681 -0.5040  0.0034
22405W        W38879   7.284  16.436   3.758  0.0516 -0.0088 -0.3909
22406W        W38880   5.420  17.588   6.241  0.3723 -0.0878 -0.0615
22407W        W38881  13.483  16.000   2.938  0.0794  0.1014  0.2891
22408W        W38882   6.527   2.153  12.909 -0.0761 -0.0768 -0.3155
22409W        W38883  13.891   4.898   4.625  0.1656  0.1570  0.2379
22410W        W38884   4.839   5.293   5.105 -0.0443  0.3253  0.1118
22411W        W38885  12.020   5.991  12.875  0.0470  0.0411 -0.1562
22412W        W38886  12.213   7.172  14.606  0.1586 -0.1114 -0.1219
22413W        W38887  13.261   9.078  16.037  0.0153  0.0892  0.1971
22414W        W38888   4.274  13.229  12.063  0.2054  0.1785 -0.0490
22415W        W38889  17.217   7.591  12.077  0.2468  0.2328 -0.2172
22416W        W38890  16.270   3.934   5.011 -0.0489  0.0467  0.2483
22417W        W38891   2.842  14.358  16.584  0.5205 -0.1029  0.0970
22418W        W38892   4.217   4.768  12.916  0.0418 -0.1262  0.1969
22419W        W38893   2.284   2.786  13.460  0.3757 -0.1134  0.2445
22420W        W38894  17.027   4.201   3.604  0.3606  0.2289 -0.0726
22421W        W38895   3.367   6.354  14.929 -0.0620  0.1211  0.0755
22422W        W38896  10.324   3.072   4.347  0.1214  0.0924 -0.0610
22423W        W38897  14.532  17.128  12.814 -0.1644  0.0173 -0.2557
22424W        W38898  12.408  17.061  13.625 -0.2858 -0.1819  0.1437
22425W        W38899   6.140  16.941  15.368 -0.0958  0.0573  0.0873
22426W        W38900   4.071  10.066  15.087  0.0908  0.1763  0.0248
22427W        W38901   5.262   6.778   4.392  0.1897 -0.2043  0.1865
22428W        W38902   0.045  14.838  16.102  0.1578  0.0550  0.2405
22429W        W38903  13.752   2.640  13.334  0.2403 -0.3129 -0.1849
22430W        W38904   2.917   9.992   2.406 -0.1730 -0.5324  0.1300
22431W        W38905   9.821  11.397  15.841  0.3414 -0.0136  0.1152
22432W        W38906   2.298   8.710   4.608  0.0747 -0.0257 -0.2167
22433W        W38907   9.334   6.884  11.784 -0.0750 -0.3564  0.2974
22434W        W38908   5.147   0.649  16.722 -0.0669 -0.3699  0.0078
22435W        W38909   5.667   0.744   2.448  0.1102  0.0321 -0.0299
22436W        W38910  14.201  17.807   4.212 -0.1832 -0.3026  0.1065
22437W        W38911  13.513   2.156   0.741 -0.2158 -0.1296 -0.0608
22438W        W38912  14.383  14.973   5.128  0.0390  0.1920 -0.0747
22439W        W38913  16.634   2.581  12.332 -0.1747  0.3241 -0.1223
22440W        W38914  17.062   5.251  12.775  0.1080 -0.0077 -0.3249
22441W        W38915   3.876  12.724   3.999 -0.2759  0.0032  0.0816
22442W        W38916  13.704  14.082  12.151 -0.1789 -0.0979 -0.1401
22443W        W38917  10.773  11.158   3.475  0.2443 -0.1656  0.0786
22444W        W38918   5.214   8.019  13.703 -0.0212 -0.0461  0.1714
22445W        W38919  17.704   0.442  15.677 -0.2862 -0.1301  0.1524
22446W        W38920   5.632   7.866  11.607 -0.3601 -0.3336  0.0493
22447W        W38921   4.559   1.015  13.115  0.0224  0.0507  0.3141
22448W        W38922   0.382   8.073   2.407  0.3165  0.2257 -0.1718
22449W        W38923   0.528   7.416  15.870  0.0003  0.1717 -0.4000
22450W        W38924  12.513  11.931   2.610 -0.2212  0.1011 -0.3402
22451W        W38925   5.661   8.357  14.607  0.1208  0.0794 -0.0006
22452W        W38926  12.505  14.150  13.436 -0.0915  0.0007  0.3503
22453W        W38927  13.939   8.849   5.251 -0.1306 -0.2369  0.2595
22454W        W38928   9.755   2.803   3.667  0.1639  0.0417  0.1118
22455W        W38929  14.520   4.795   2.665  0.2195  0.1073 -0.0094
22456W        W38930  15.172  12.205  15.721  0.2097  0.1212  0.0791
22457W        W38931   4.681   9.106   5.507 -0.3899 -0.2541  0.0275
22458W        W38932   4.415   7.859  14.669 -0.2596  0.0486 -0.0270
22459W        W38933   9.194   0.929  11.671  0.0517  0.0744 -0.2134
22460W        W38934   5.182  10.496  12.773 -0.1717  0.1906  0.1981
22461W        W38935   6.149   2.580   2.996  0.3275 -0.1370  0.3990
22462W        W38936   6.019  10.043   3.083 -0.2298  0.2218 -0.0165
22463W        W38937  15.348  12.881   2.347 -0.1408  0.0148  0.2065
22464W        W38938   7.340   2.950   1.704 -0.1023 -0.2039 -0.0625
22465W        W38939  10.811   7.581  15.263  0.5701 -0.1008 -0.0028
22466W        W38940  14.747   4.360  15.449  0.0545  0.0865 -0.0867
22467W        W38941  13.150  11.204  15.219  0.2148 -0.0689  0.1433
22468W        W38942  16.803  14.045  12.164  0.0300 -0.1529  0.1190
22469W        W38943  13.067  13.706   5.479  0.0480 -0.0198  0.0172
22470W        W38944  15.098  16.618   4.366 -0.1877 -0.1146  0.1086
22471W        W38945  13.909   9.293  13.826  0.0110  0.1317 -0.0158
22472W        W38946   8.875   3.235   3.571  0.1236 -0.1615 -0.1141
22473W        W38947  12.152  15.187   2.027  0.1626  0.1962 -0.3323
22474W        W38948   8.790   4.364   2.491  0.0787  0.0230  0.1263
22475W        W38949  17.531  15.303   1.190  0.0137 -0.0995  0.1436
22476W        W38950  12.046  13.502   0.672 -0.0321  0.0099 -0.3004
22477W        W38951  14.444   8.217  15.186 -0.2371  0.2348  0.0654
22478W        W38952  17.163  14.045  14.979 -0.0022  0.1627 -0.1785
22479W        W38953  12.911   8.006   5.943 -0.1666  0.0683 -0.3026
22480W        W38954  17.540  11.573  15.326 -0.4135 -0.0362 -0.0898
22481W        W38955  13.847  15.576  16.321  0.2382  0.0663 -0.0078
22482W        W38956   4.802   5.966  14.817 -0.0398  0.0117 -0.0194
22483W        W38957  13.012   0.870  14.019 -0.0437 -0.0416 -0.2994
22484W        W38958   2.619   2.120  12.564  0.1984  0.0060  0.0889
22485W        W38959   0.575  15.893   4.099  0.1239  0.0763  0.0161
22486W        W38960  15.341  10.690   4.331  0.1752 -0.0101  0.4229
22487W        W38961  16.508   8.212  11.684 -0.0540 -0.1434 -0.1244
22488W        W38962   8.429   7.475   4.683  0.1323  0.0309  0.0295
22489W        W38963  11.086   4.205   1.834 -0.0990  0.1056 -0.0054
22490W        W38964  11.266  11.117   3.537 -0.0283  0.1489  0.2304
22491W        W38965  13.956  10.674  12.519  0.0030 -0.0186  0.1037
22492W        W38966  15.976  10.383   2.005  0.0307  0.1900  0.5475
22493W        W38967   9.229   7.197  14.481  0.1785 -0.0591  0.2252
22494W        W38968   9.708   9.351   2.083 -0.2288  0.0640  0.3093
22495W        W38969  12.959   9.003   0.563 -0.1701  0.0670  0.0014
22496W        W38970   5.753   3.153  16.335 -0.0965 -0.1141 -0.3373
22497W        W38971   9.780   1.431  16.551 -0.4599  0.1939  0.2104
22498W        W38972  12.427   4.232   1.215  0.1219 -0.0212  0.1465
22499W        W38973   8.324  16.325   3.565  0.0480  0.3176  0.1966
22500W        W38974   9.276   8.204   2.110 -0.0939  0.3284 -0.1730
22501W        W38975  13.473   2.214  11.750 -0.2554 -0.1939 -0.2587
22502W        W38976  15.359  17.401   2.915 -0.0338 -0.0837  0.1266
22503W        W38977  12.869   8.891  16.211  0.0191  0.1334 -0.1175
22504W        W38978   7.608  17.522  16.612  0.1650  0.1823 -0.3227
22505W        W38979  16.288   4.680   3.759 -0.0162 -0.0301  0.4498
22506W        W38980   2.887   0.522   4.859  0.0971 -0.0608  0.0716
22507W        W38981   2.597   1.224  15.004 -0.2360  0.0835 -0.0992
22508W        W38982  11.366  17.522   1.853  0.1527 -0.1398 -0.2944
22509W        W38983   5.392   6.986  14.550 -0.2230  0.1006 -0.0514
22510W        W38984   5.362  13.704   0.809  0.2158 -0.0119 -0.0706
22511W        W38985   2.767  14.063   5.834  0.3080 -0.0782  0.0269
22512W        W38986   3.533  12.143  11.125  0.0721  0.1891  0.1652
22513W        W38987  11.725   9.124   0.991  0.2411  0.1476 -0.2515
22514W        W38988  15.978  16.758   2.977 -0.0383 -0.0836  0.1354
22515W        W38989   2.832   1.820   2.850 -0.2880  0.0446 -0.2367
22516W        W38990   7.842   8.365   2.215 -0.0508  0.0213 -0.0791
22517W        W38991  15.298   9.112  14.338  0.0531  0.1101 -0.1255
22518W        W38992   0.880   3.721   1.330  0.4047 -0.0699 -0.1709
22519W        W38993   1.192   1.213   0.853  0.0978  0.0368  0.0232
22520W        W38994   9.298  12.193  15.079 -0.2478 -0.1011  0.2523
22521W        W38995   4.691   0.389   2.853 -0.0409  0.1354 -0.0510
22522W        W38996   0.589  16.319   4.316 -0.0168  0.4060  0.1728
22523W        W38997   2.298  16.886   5.063  0.0373 -0.1456 -0.0369
22524W        W38998  12.591   7.342  13.259 -0.0589  0.3308 -0.0032
22525W        W38999   6.440   3.343  15.181  0.0294 -0.1825  0.2533
22526W        W39000   1.831  15.648  13.993 -0.0709 -0.2123 -0.0806
22527W        W39001   8.243   4.142  14.837  0.2367 -0.2216  0.1009
22528W        W39002   9.119   2.522  13.563  0.0715  0.0219 -0.1499
22529W        W39003  14.795  13.696   0.626  0.2249  0.1663 -0.2552
22530W        W39004   1.852   0.697  11.593  0.2360  0.0496  0.2095
22531W        W39005   5.566   2.976   0.990  0.0331  0.0740  0.1042
22532W        W39006   1.115  15.994  14.978  0.5285  0.0414  0.0718
22533W        W39007  10.779  10.348   2.750 -0.1096 -0.3210 -0.0836
22534W        W39008  13.795  12.727   4.625 -0.1094  0.1089  0.3098
22535W        W39009   2.362   5.311  11.692  0.0799  0.1877  0.0237
22536W        W39010  11.815   0.724  12.848 -0.1250  0.0070 -0.2354
22537W        W39011   7.981  13.516   2.496 -0.3544  0.0847  0.0409
22538W        W39012   4.403   4.541  13.420  0.1334 -0.0558 -0.0079
22539W        W39013  11.463   9.334   1.875  0.1740 -0.0456 -0.5498
22540W        W39014  13.361  11.349   4.862  0.1700  0.0843 -0.2317
22541W        W39015   3.038   1.504  15.709  0.2152 -0.1885 -0.0799
22542W        W39016  16.230   6.316   1.961  0.0698  0.1176  0.2409
22543W        W39017  11.526  16.011  16.903  0.0184 -0.1589 -0.3092
22544W        W39018  10.775  14.510   0.350  0.3036  0.1044  0.1216
22545W        W39019  10.875   5.833  13.997 -0.3241  0.3817 -0.0622
22546W        W39020  11.278  16.195   1.295 -0.0856  0.2463 -0.2690
22547W        W39021   6.456   4.251  16.293 -0.0761 -0.0263 -0.0508
22548W        W39022  10.194   1.599   1.475 -0.0827  0.1434 -0.1678
22549W        W39023   6.039  10.710   3.542  0.2059 -0.1552 -0.0427
22550W        W39024   7.420  10.229   2.651 -0.0106 -0.1057  0.0712
22551W        W39025   6.701   1.596   2.335  0.2560 -0.3396  0.0654
22552W        W39026   2.470   5.378   2.362  0.0636 -0.0005  0.1169
22553W        W39027  13.291   2.895  14.259 -0.3070 -0.3056 -0.0374
22554W        W39028  12.582   9.073  13.927 -0.3428 -0.0211 -0.1248
22555W        W39029   2.945  13.962  12.654  0.3079  0.0090  0.1917
22556W        W39030   1.413   5.080   3.965 -0.1697 -0.1791 -0.0427
22557W        W39031   3.638   7.038   1.961 -0.0774 -0.0546  0.0222
22558W        W39032  11.698  17.116   2.632 -0.0881  0.0866 -0.4890
22559W        W39033   9.962   2.249  16.750 -0.2996 -0.2335  0.0319
22560W        W39034  12.276  13.201  11.990  0.1316  0.0916 -0.3047
22561W        W39035  13.690  13.189   0.353 -0.2715  0.2391  0.1011
22562W        W39036  10.657   2.945   3.555  0.3021  0.0135  0.1849
22563W        W39037   9.051   0.004   5.885  0.3292  0.2956  0.1578
22564W        W39038   8.372   4.428   4.071 -0.1267 -0.0723 -0.0844
22565W        W39039  15.767   1.369   6.475 -0.0077  0.0770  0.1899
22566W        W39040   7.165   4.943  12.877 -0.2834 -0.2258  0.1000
22567W        W39041   6.073   1.397  12.401 -0.2213 -0.0576 -0.2076
22568W        W39042   1.763   6.758  14.114  0.1447  0.1358  0.0291
22569W        W39043  16.192  17.769  13.797 -0.2913 -0.1187 -0.1627
22570W        W39044   0.759  15.282   0.489 -0.1876  0.3484 -0.1013
22571W        W39045   8.593  13.080   1.949  0.0867 -0.1194 -0.0401
22572W        W39046  12.128   3.252   3.963  0.0448 -0.0523 -0.3122
22573W        W39047   7.231   2.271  14.294  0.1669 -0.1353 -0.0914
22574W        W39048   9.232  14.195  12.970  0.2672 -0.3898  0.0565
22575W        W39049   1.883  11.488  10.152 -0.1103  0.0044 -0.4495
22576W        W39050   6.223   2.972  16.109  0.0819  0.2105  0.0495
22577W        W39051   6.644  17.228  11.316  0.0797  0.2597 -0.3680
22578W        W39052   5.410   3.670  11.996 -0.2756  0.0993  0.0587
22579W        W39053  13.512  10.292   5.049  0.1761  0.1967 -0.0218
22580W        W39054  17.501   7.115  13.827  0.1545  0.0440  0.4128
22581W        W39055   4.992   6.058   2.116 -0.1113  0.3506 -0.1630
22582W        W39056  16.971   8.089   2.542 -0.0768  0.0600 -0.0712
22583W        W39057   3.002   1.529   2.057 -0.0753 -0.3016 -0.1088
22584W        W39058   5.138   6.382   2.539 -0.0394 -0.0233  0.0766
22585W        W39059  10.958  10.784  12.185  0.1939  0.1149  0.0691
22586W        W39060   1.464  16.124  16.019 -0.1732  0.0747  0.1107
22587W        W39061   0.444  17.592  14.651 -0.0598 -0.1961 -0.1463
22588W        W39062  13.641  10.281   3.717 -0.0202 -0.2208 -0.1573
22589W        W39063  12.356   5.184  11.796 -0.1082 -0.3173 -0.0969
22590W        W39064  10.172  16.655   0.397  0.2027 -0.2740 -0.2210
22591W        W39065   9.244   7.931  11.974 -0.3214  0.0067  0.1067
22592W        W39066   6.134   8.813  14.328  0.1263  0.0981 -0.0211
22593W        W39067   1.626   6.198  16.383  0.2902  0.1129  0.4370
22594W        W39068  12.501  15.099   4.252 -0.2347  0.2525  0.0927
22595W        W39069   8.259  14.181   1.453  0.2104  0.0595 -0.1527
22596W        W39070  11.242   8.364   3.277  0.1067  0.1125  0.3941
22597W        W39071   2.833  16.333  15.581  0.0998  0.0314 -0.0286
22598W        W39072  13.012   7.295   0.016 -0.1637 -0.0012  0.1007
22599W        W39073   3.548  16.924  12.718  0.0831 -0.1641 -0.1073
22600W        W39074   8.102  13.467  13.999  0.0503  0.0164  0.0121
22601W        W39075  14.782  13.235  16.485  0.0309 -0.2796 -0.1628
22602W        W39076   0.275   1.935   4.165  0.0847  0.0908 -0.1044
22603W        W39077   9.127   4.422  14.728  0.1075 -0.2220  0.1278
22604W        W39078   3.145   6.792  12.753  0.0422  0.2706 -0.0993
22605W        W39079  14.810  16.162  13.496 -0.0454  0.2023 -0.0760
22606W        W39080  10.347  17.032   1.818  0.0672 -0.0858  0.2171
22607W        W39081  14.849   8.727   1.027 -0.0037  0.0505 -0.1315
22608W        W39082   1.241   2.016  15.584 -0.0800  0.2034 -0.2463
22609W        W39083   9.530   4.667  13.885  0.0174 -0.0607 -0.0455
22610W        W39084   6.630  15.489  14.126  0.4065 -0.0989 -0.1646
22611W        W39085   9.204   6.279  14.069 -0.1736  0.1442  0.0979
22612W        W39086  12.333   9.139  15.357 -0.1255  0.0477 -0.1648
22613W        W39087  12.716  11.431   4.209 -0.1685  0.1386 -0.1459
22614W        W39088   8.257   3.549   2.571  0.1037 -0.0018 -0.2226
22615W        W39089  12.483   8.381   2.959 -0.2199  0.0569  0.0601
22616W        W39090   7.513  12.063  13.175 -0.0180  0.2326  0.3711
22617W        W39091  16.292   5.679   2.727 -0.0630  0.1394  0.3723
22618W        W39092   5.237  10.369   2.886 -0.1560  0.1965 -0.0677
22619W        W39093   1.049  17.786  13.168 -0.2891  0.1427  0.2271
22620W        W39094   3.348   9.091  12.023 -0.2157 -0.0404  0.1691
22621W        W39095   8.253   8.566   2.382 -0.0511 -0.0103 -0.2646
22622W        W39096   0.559   5.847   5.357  0.1513  0.0296  0.0377
22623W        W39097   0.479  16.495  15.553  0.0145  0.0597 -0.1644
22624W        W39098  15.987   6.444  12.354 -0.1403  0.0259  0.2630
22625W        W39099   1.031  10.164   2.394  0.3540  0.0774  0.1138
22626W        W39100  11.795   3.312  11.898 -0.0411 -0.2542  0.2804
22627W        W39101   8.386  14.902  13.666 -0.0021  0.0009  0.0754
22628W        W39102   7.975  12.980   2.409 -0.0059 -0.0955  0.2811
22629W        W39103  10.403   2.207  14.612 -0.0322  0.0691  0.1321
22630W        W39104   5.601   2.002  16.399  0.2443  0.0469 -0.0523
22631W        W39105   3.841  13.268  11.897 -0.0073 -0.0233 -0.1242
22632W        W39106   8.416  11.459   1.687  0.0951  0.1426 -0.2317
22633W        W39107  16.661   9.716   2.831  0.2276  0.1239 -0.2249
22634W        W39108   9.532   1.697   5.867  0.0893 -0.2022  0.3318
22635W        W39109   0.373  15.783   2.238 -0.0125  0.0162  0.0357
22636W        W39110  15.839   1.935   0.842  0.2965 -0.0379  0.2066
22637W        W39111   3.462   5.794  14.224  0.1694  0.0297 -0.0404
22638W        W39112   5.789   1.142   1.409 -0.2347  0.0680 -0.0150
22639W        W39113   5.664   3.664  14.674  0.1619 -0.2628  0.3860
22640W        W39114  15.498   9.667  15.069 -0.1704  0.1846  0.0425
22641W        W39115  11.159   0.938  12.014 -0.1400 -0.0277 -0.1447
22642W        W39116  13.759  12.130  13.516  0.1584  0.0027  0.1398
22643W        W39117  12.830  14.527  13.707  0.1843 -0.0091  0.1006
22644W        W39118  10.619   6.897   0.789  0.0030  0.2161  0.4489
22645W        W39119   3.694   5.527  14.621 -0.0808  0.1049 -0.0084
22646W        W39120  14.892  13.582   5.853  0.0515  0.0505  0.0398
22647W        W39121   1.446  10.698  11.634 -0.0846  0.0009  0.1397
22648W        W39122  11.845  15.586   3.219 -0.1213 -0.0976 -0.1043
22649W        W39123   2.923   4.391   5.719 -0.1758  0.0468  0.0695
22650W        W39124   2.699  10.014   0.387 -0.1636 -0.3008  0.2519
22651W        W39125  15.484  15.345  13.482 -0.0619 -0.0064  0.0112
22652W        W39126  11.136  16.072  13.445  0.2453 -0.1117 -0.1414
22653W        W39127   4.558   1.420   3.396 -0.0518  0.4233  0.0620
22654W        W39128  10.900  15.366  10.338 -0.0547  0.0056 -0.1027
22655W        W39129  16.070   2.082  12.278  0.1599 -0.0062 -0.1343
22656W        W39130  13.177   3.867  12.996  0.2632  0.0324 -0.1453
22657W        W39131   3.381   1.080  16.630 -0.0673  0.0999 -0.2288
22658W        W39132   1.054  17.011  13.907 -0.1046 -0.0501  0.1078
22659W        W39133   1.949   0.907  15.020 -0.3809 -0.2007  0.1416
22660W        W39134  17.666   8.428   2.078  0.0153 -0.0625 -0.0259
22661W        W39135   4.922  12.987   3.063 -0.2341 -0.1269 -0.0713
22662W        W39136   3.005  13.757  11.696  0.0152 -0.0851  0.2183
22663W        W39137   5.290   5.340   6.259 -0.0981  0.0532 -0.1448
22664W        W39138   7.761   4.298   3.653  0.0755 -0.1702 -0.0247
22665W        W39139   2.969  15.645  16.271  0.2175 -0.0538  0.0849
22666W        W39140  12.449   0.936   2.042 -0.1992  0.2731 -0.0768
22667W        W39141   7.634   5.737  16.616  0.0053  0.1124  0.0835
22668W        W39142  14.617  15.748   4.595 -0.1401 -0.6087 -0.1108
22669W        W39143   1.158  14.410  10.678  0.0554  0.0745 -0.0233
22670W        W39144   3.830   0.569   5.608  0.0323 -0.1484 -0.1040
22671W        W39145   8.533  14.715   4.184  0.0406  0.1008  0.2832
22672W        W39146  15.377  10.581  13.152  0.0890 -0.2529 -0.1886
22673W        W39147   7.806  12.185   2.695  0.0965 -0.0534  0.0743
22674W        W39148  12.829   3.405  16.504  0.1324 -0.0509  0.1692
22675W        W39149  12.202  11.979  12.891  0.0330 -0.4264  0.2929
22676W        W39150   1.939   6.720   3.169  0.2221  0.0110  0.1694
22677W        W39151  13.720  12.347   2.867  0.0237 -0.2916 -0.2561
22678W        W39152   3.549  17.072  14.230  0.0731  0.0134 -0.3499
22679W        W39153   1.037  10.263  12.847  0.0339  0.1785 -0.1471
22680W        W39154   1.297  12.249   2.775  0.0271  0.2645 -0.6541
22681W        W39155   8.923  13.298   2.434  0.0259 -0.2995  0.0452
22682W        W39156   1.266   3.932   6.261  0.0776  0.1502  0.0081
22683W        W39157  12.850   1.766  11.611 -0.1045 -0.0392 -0.1496
22684W        W39158  11.383   7.655   2.526  0.1252  0.1483  0.0746
22685W        W39159  13.516   8.237  16.233 -0.1392  0.0471  0.2086
22686W        W39160   5.600   3.154  13.167  0.1040 -0.0708  0.0574
22687W        W39161  12.232   2.183   0.931 -0.2630  0.2443 -0.1516
22688W        W39162  15.271  12.144  13.250 -0.1645  0.0816 -0.3608
22689W        W39163   5.664  16.771   1.008 -0.1281 -0.0247  0.0130
22690W        W39164  16.191   1.702  13.858 -0.1916  0.2953  0.2087
22691W        W39165  11.597   5.557  15.554  0.1851  0.2371 -0.1573
22692W        W39166   4.288   0.837  14.526  0.0153 -0.1690  0.0477
22693W        W39167   1.271  11.284  12.058 -0.0517 -0.0607 -0.0758
22694W        W39168   3.627  11.923  16.608  0.0079  0.2208  0.0107
22695W        W39169   5.394  14.969   4.476 -0.2040  0.1159 -0.0659
22696W        W39170  14.608  15.183  12.867 -0.0736  0.2200  0.0975
22697W        W39171   2.910   0.313  12.357  0.1123 -0.0866  0.0720
22698W        W39172  12.244   2.131  16.849  0.2247 -0.0499 -0.0690
22699W        W39173   9.933   2.542  16.013  0.1228 -0.1850 -0.0624
22700W        W39174  10.067  12.441  16.101  0.3556 -0.3272  0.0320
22701W        W39175  10.859   0.007  11.211 -0.2482 -0.1410  0.2699
22702W        W39176   1.517   0.400  13.816 -0.0125  0.0881  0.0260
22703W        W39177  14.478   8.280   4.712  0.0793 -0.0889 -0.3791
22704W        W39178   4.284   7.723  12.032 -0.1656  0.1074  0.1219
22705W        W39179  17.732   9.852   5.207 -0.0159 -0.0687 -0.3432
22706W        W39180   6.312  12.435  15.680 -0.0373  0.0762  0.2269
22707W        W39181  13.675   8.474   2.004  0.0349 -0.3530 -0.2354
22708W        W39182  12.139  14.073   3.531 -0.0831 -0.1163 -0.1764
22709W        W39183   2.138  14.936  11.760  0.3626 -0.1832  0.3392
22710W        W39184   6.434  10.288  16.296  0.0394  0.2437 -0.3199
22711W        W39185  11.985  13.168  14.387 -0.0199 -0.0668 -0.1820
22712W        W39186   5.170   7.236  16.377  0.0819 -0.0216  0.2630
22713W        W39187  11.422   7.776  12.809 -0.3216  0.1438  0.0919
22714W        W39188   3.116  16.862  13.527 -0.0814  0.0329  0.2791
22715W        W39189   5.151  15.978   4.088  0.1335 -0.2685  0.0562
22716W        W39190  16.713  15.181   1.165  0.0222 -0.1296  0.1741
22717W        W39191  15.466  16.671   0.581  0.0755  0.0045  0.1196
22718W        W39192  17.382  12.508  16.612 -0.1336  0.0030 -0.1654
22719W        W39193  12.064  12.771   1.554 -0.3911 -0.0616 -0.0720
22720W        W39194   5.801  15.543   0.906  0.1994  0.1692 -0.0034
22721W        W39195   2.868   4.777  12.279  0.1268 -0.0606  0.0501
22722W        W39196   7.223   4.045  12.742 -0.1089 -0.1151 -0.1820
22723W        W39197   7.190   9.916   3.670 -0.2487 -0.1260  0.0249
22724W        W39198  14.072   5.591   0.008 -0.3095 -0.1266  0.0644
22725W        W39199   3.183   3.910   1.857  0.3808 -0.3324 -0.3828
22726W        W39200   4.273   4.374   2.442  0.0219 -0.0879 -0.1881
22727W        W39201   0.752   9.107  16.753 -0.0553 -0.0310  0.1646
22728W        W39202   8.845   4.739   1.360  0.1334 -0.3033 -0.4007
22729W        W39203  10.169   1.868  15.297  0.1225 -0.0704 -0.0474
22730W        W39204  12.423   3.457   5.953 -0.0069  0.2849  0.0816
22731W        W39205   0.480   5.261  13.053  0.1808  0.2454  0.0298
22732W        W39206  13.242  13.309   6.394  0.0870 -0.1558 -0.0350
22733W        W39207   7.355   8.836   2.325  0.1007  0.0090 -0.0270
22734W        W39208  12.910   0.984   1.251 -0.0065 -0.0200 -0.0553
22735W        W39209  11.931  14.405   2.224  0.1665 -0.2440 -0.0654
22736W        W39210   0.386  15.330   2.506  0.2078  0.1182 -0.2848
22737W        W39211   1.138   0.716   1.698 -0.0031 -0.0556 -0.0828
22738W        W39212   0.629  17.645  16.378  0.2621 -0.3628  0.0381
22739W        W39213   7.615   2.939  12.877 -0.1605  0.0359  0.0500
22740W        W39214   9.474   3.138  14.008  0.1387  0.2191  0.1141
22741W        W39215  16.195  15.800   1.125  0.0856 -0.0061  0.0448
22742W        W39216   3.211   4.177   2.380 -0.0581 -0.1317  0.0318
22743W        W39217   8.779  12.583  16.764  0.2714 -0.0494  0.1256
22744W        W39218   6.272  17.110   5.118 -0.3853 -0.2259 -0.0951
22745W        W39219  14.252  17.219  15.217  0.2095  0.0187 -0.1081
22746W        W39220  16.328  10.472  16.161  0.0159  0.2242  0.0774
22747W        W39221  12.100   9.940  16.478 -0.1302 -0.0901 -0.3008
22748W        W39222   5.631   0.014  15.459 -0.0832  0.1541  0.1586
22749W        W39223   6.160   5.372   2.307 -0.0626 -0.2704 -0.1329
22750W        W39224  14.234  10.281  12.239 -0.2217 -0.4971 -0.1119
22751W        W39225  11.140   0.967   4.579  0.0566 -0.2146  0.3384
22752W        W39226   1.396  12.470   3.758 -0.1391 -0.1662 -0.0541
22753W        W39227  11.432  16.327   4.643 -0.1243  0.1783  0.3065
22754W        W39228   3.979   6.709  15.669  0.0427 -0.3349  0.1881
22755W        W39229   2.979   6.008  12.072  0.2480  0.5028  0.3556
22756W        W39230   3.670   3.435  16.676 -0.0799  0.0124 -0.0698
22757W        W39231  17.061   3.517  15.580  0.1711 -0.2294  0.0751
22758W        W39232  14.327   0.950  14.800  0.0431  0.0793  0.2102
22759W        W39233   9.222  10.753   5.391 -0.3396 -0.0347  0.0764
22760W        W39234   5.544   0.647   1.128  0.0250  0.2620 -0.0240
22761W        W39235   3.704  17.329   2.780  0.2047  0.0919  0.0629
22762W        W39236   0.981  16.056  16.245  0.1509 -0.2417 -0.0916
22763W        W39237   6.193   4.078   5.657 -0.1691  0.0177 -0.1083
22764W        W39238   8.490   7.651   3.313  0.1699  0.0893 -0.2678
22765W        W39239   1.008  13.413  14.761  0.2550 -0.0404 -0.1430
22766W        W39240  12.746   4.760   5.588  0.0674 -0.0977  0.0021
22767W        W39241   2.669  10.037  16.718  0.0148  0.0835  0.0298
22768W        W39242  15.512   0.342   0.232  0.1288 -0.1586 -0.0439
22769W        W39243   8.033   8.362   4.017  0.0301  0.0176 -0.1969
22770W        W39244  15.325   3.768  15.796  0.1265 -0.1941  0.1316
22771W        W39245   5.646  17.559   4.340  0.2760 -0.2466  0.2177
22772W        W39246   6.016   7.980  16.592  0.2970  0.0808  0.1209
22773W        W39247   9.446   6.873   3.995 -0.2612  0.2040 -0.0533
22774W        W39248  17.740   4.437  11.737 -0.2275 -0.1407  0.2808
22775W        W39249  15.014  12.509  13.530 -0.3983  0.1596 -0.0858
22776W        W39250  11.887  10.797   0.782  0.1389 -0.0736  0.0749
22777W        W39251   9.163   5.570   0.180 -0.0560 -0.0589  0.1037
22778W        W39252  15.975   0.409  13.430 -0.1093  0.0761 -0.1566
22779W        W39253   8.126   1.635   2.349 -0.1326  0.0867 -0.1269
22780W        W39254   3.380  14.197  11.120 -0.1714 -0.0202  0.2145
22781W        W39255  10.605  15.570   1.616  0.1418  0.2306 -0.0091
22782W        W39256   9.540   8.269   3.884 -0.0074  0.0069 -0.4643
22783W        W39257  13.061   2.295   2.687  0.0155  0.0284 -0.0269
22784W        W39258  17.083   3.889  12.807  0.0066 -0.0470  0.2034
22785W        W39259   6.216  13.395  12.760 -0.0540  0.0376 -0.1442
22786W        W39260   0.923   4.928  14.042 -0.3587 -0.1819  0.1715
22787W        W39261  13.710   4.779   2.219  0.0474  0.3629  0.0352
22788W        W39262   0.223  11.050  13.295  0.0837  0.2431  0.1312
22789W        W39263   6.670   8.952   2.571 -0.1545 -0.0237 -0.1526
22790W        W39264  12.595  11.284   4.715 -0.1804  0.1400  0.1827
22791W        W39265   1.526   6.902   2.910 -0.1039  0.2981  0.2492
22792W        W39266  12.871   7.504  16.501  0.0508  0.1184 -0.0444
22793W        W39267   0.142   2.786   6.439  0.0852  0.0069  0.1341
22794W        W39268  14.869  11.383  12.659 -0.0226 -0.1653  0.2296
22795W        W39269  15.998  11.306  15.668  0.0448  0.1790 -0.4236
22796W        W39270  16.718   6.473  15.478 -0.0210  0.3108 -0.1833
22797W        W39271  16.965   5.918  16.494 -0.1803 -0.0222 -0.0435
22798W        W39272  11.828  13.751  12.816 -0.2268 -0.2314 -0.1016
22799W        W39273  17.397  15.992   2.929  0.0905 -0.0572  0.1791
22800W        W39274  11.319   2.145  11.510 -0.0140  0.1685  0.0483
22801W        W39275   8.305   5.558  12.540  0.1187  0.0211 -0.0077
22802W        W39276   7.177  14.565   4.436 -0.0121  0.0506  0.2005
22803W        W39277   4.936   4.622   3.989 -0.4872  0.0156  0.1029
22804W        W39278   5.881   9.674  14.715 -0.0006 -0.1444  0.1200
22805W        W39279   9.894   3.971   0.144 -0.0711  0.0923 -0.2855
22806W        W39280   6.753  15.428  11.635  0.4369  0.1731  0.0512
22807W        W39281  16.619  16.406  14.946  0.1317 -0.0250  0.0344
22808W        W39282  12.409   9.701  10.886 -0.2389 -0.1236  0.2931
22809W        W39283   7.795   7.499   1.495 -0.1907  0.0692 -0.0559
22810W        W39284  15.457   6.142   2.538  0.0846  0.1522  0.2119
22811W        W39285   0.975   4.947  12.987 -0.0562 -0.1988 -0.0955
22812W        W39286   9.372  14.815   5.253 -0.1456 -0.3534 -0.1564
22813W        W39287   9.562   6.623   0.900 -0.0488 -0.0587 -0.1876
22814W        W39288  16.805   8.565  15.685  0.0181 -0.0972  0.1460
22815W        W39289  13.963   9.177   4.379  0.3298  0.0104 -0.0771
22816W        W39290   1.650   5.056   2.986  0.0575 -0.1435 -0.0429
22817W        W39291  17.467  12.799   0.079 -0.2986  0.2265 -0.0455
22818W        W39292   3.959   8.701  12.751  0.0616  0.0578 -0.0463
22819W        W39293  14.870  16.225   4.667  0.1621 -0.2897 -0.2693
22820W        W39294  14.404  16.074  16.318 -0.2137  0.2325  0.1992
22821W        W39295   7.932  11.662  12.335 -0.2329 -0.2373  0.1843
22822W        W39296  11.409  10.362   0.247 -0.0255 -0.2912  0.1327
22823W        W39297   4.472  13.929   4.007 -0.0692 -0.0726 -0.1937
22824W        W39298   2.772   3.721  13.724 -0.1777  0.1459 -0.0855
22825W        W39299  14.041  15.580   0.286  0.0382 -0.0866  0.1996
22826W        W39300  11.705   5.249  16.356 -0.2304 -0.0847  0.1005
22827W        W39301  14.533  16.034  11.551 -0.1645 -0.2125 -0.0071
22828W        W39302   2.911   0.208   1.842 -0.2887 -0.1066  0.1245
22829W        W39303  12.680   9.030  15.011  0.0095 -0.0850 -0.0872
22830W        W39304  14.631  10.442   3.380 -0.2317  0.3819  0.1430
22831W        W39305  13.687  10.151  12.536 -0.0586  0.1137  0.1649
22832W        W39306  13.777  13.404  14.377 -0.0353 -0.0082  0.0870
22833W        W39307  10.311   6.429   2.946  0.3612 -0.4026  0.1408
22834W        W39308   9.247   5.424   5.423  0.0439 -0.1948  0.0155
22835W        W39309   1.853   3.696   2.785 -0.2077 -0.2390 -0.2837
22836W        W39310   9.026   2.204  13.975  0.4191 -0.1843  0.1981
22837W        W39311   1.778  13.907   3.421  0.3737  0.1916 -0.1434
22838W        W39312   8.260   0.754  14.926  0.0456  0.0271 -0.3246
22839W        W39313  14.589   4.275   2.556 -0.0252  0.2652  0.3051
22840W        W39314  14.951  17.388   0.626  0.2020 -0.0495  0.0713
22841W        W39315  16.651  15.468   4.466 -0.0573 -0.0816 -0.0611
22842W        W39316  14.032  13.724   5.454  0.0020  0.2874  0.2313
22843W        W39317  11.713   2.677   1.536 -0.1237 -0.0663  0.6568
22844W        W39318  17.046  12.789  16.801  0.1445  0.2790 -0.0295
22845W        W39319  12.878   1.087   0.445  0.0917 -0.1617 -0.3559
22846W        W39320   0.380   8.405   4.473 -0.0484  0.2134  0.0729
22847W        W39321   3.984   4.431   4.071  0.3958  0.0571 -0.0484
22848W        W39322   1.884  11.289   3.674  0.1768 -0.3219 -0.3015
22849W        W39323   5.587  15.922   1.148  0.0997 -0.1521  0.0931
22850W        W39324   0.052   6.116  13.686  0.0718  0.0175  0.2902
22851W        W39325   9.415  13.568  14.219  0.0596  0.1298  0.0948
22852W        W39326  10.445   8.923  13.495  0.1839 -0.1203 -0.0532
22853W        W39327   7.837   4.467  16.521  0.1564  0.6388  0.1651
22854W        W39328  10.589   2.340   3.274 -0.2661  0.0937  0.0313
22855W        W39329   9.891  10.224   0.968 -0.1028  0.2489  0.2482
22856W        W39330  16.805   7.127   3.092  0.2555 -0.0396  0.0024
22857W        W39331  16.444  15.233  13.232 -0.0139 -0.0570 -0.0172
22858W        W39332   6.540  14.607   1.882 -0.1177 -0.4502 -0.0088
22859W        W39333  13.872  17.804   0.783  0.0943 -0.0502 -0.0532
22860W        W39334   7.473  10.274   1.254 -0.2024  0.2550  0.1446
22861W        W39335   8.353  10.599  12.160  0.1873 -0.0459 -0.0807
22862W        W39336   6.203   4.953   2.621  0.1963 -0.2115  0.1316
22863W        W39337   2.992  14.752  12.989 -0.1181 -0.0550 -0.1395
22864W        W39338  16.289   5.941   0.388 -0.3668  0.1754  0.2043
22865W        W39339  15.600   6.939   3.125  0.1479 -0.1254 -0.1820
22866W        W39340  11.359   6.366  15.085 -0.1488 -0.1585 -0.0961
22867W        W39341   8.832  16.266  15.154  0.2766 -0.2190 -0.0817
22868W        W39342  16.131   9.055  12.422 -0.1090  0.1225  0.0444
22869W        W39343   7.392  11.727   0.811  0.1522  0.3426 -0.0172
22870W        W39344   6.632  15.053   0.700 -0.4018  0.0035  0.3324
22871W        W39345   7.777   0.293   3.241  0.1569  0.0977 -0.1376
22872W        W39346  15.147   0.122  16.460  0.2247  0.0161  0.1539
22873W        W39347   9.784   1.454  13.499  0.0412  0.3139 -0.0180
22874W        W39348   1.316   4.220  14.306 -0.1376 -0.0358 -0.0380
22875W        W39349   4.854   1.097  16.316  0.0806 -0.1413 -0.1069
22876W        W39350   1.880   8.533  16.623  0.1226  0.1543 -0.2738
22877W        W39351  14.533  13.829   2.611 -0.0410  0.2061 -0.0272
22878W        W39352   7.029  14.839   2.739  0.0039  0.0983 -0.4474
22879W        W39353  17.805  14.715   2.902 -0.1269 -0.0026  0.1347
22880W        W39354   8.871   4.400   4.169 -0.2780  0.3584 -0.0736
22881W        W39355   5.984   3.229  14.797 -0.0864 -0.0716 -0.1512
22882W        W39356  12.412   8.718  16.288  0.0722 -0.2031 -0.2495
22883W        W39357   2.453   5.055   5.018  0.4080  0.1784  0.0436
22884W        W39358   9.770  11.691   2.026 -0.0563 -0.0772  0.1123
22885W        W39359  14.998  17.212  11.870 -0.1395  0.4192 -0.0156
22886W        W39360   7.507   6.865  13.512  0.0616  0.1899 -0.0170
22887W        W39361   9.889  13.483   1.617  0.3028  0.1080 -0.0158
22888W        W39362   5.330   2.158   5.693  0.0215 -0.3793  0.1748
22889W        W39363  16.898   0.402   0.930 -0.1267 -0.4681  0.0558
22890W        W39364  17.542   4.634  14.657  0.1413 -0.0303 -0.2625
22891W        W39365   1.799   6.541   1.649  0.0746  0.1721  0.1356
22892W        W39366   1.083   6.626  15.847  0.1652 -0.0176  0.1703
22893W        W39367   1.732  14.998  11.482 -0.1764  0.3792 -0.2363
22894W        W39368  11.464   3.013   2.333 -0.2105 -0.1189 -0.2684
22895W        W39369   6.834   8.472  13.112  0.0545 -0.0531 -0.3708
22896W        W39370   2.192  13.036   1.447 -0.1776  0.0499  0.1435
22897W        W39371  11.690   9.436   3.301  0.2714  0.3253  0.0325
22898W        W39372   9.888   0.478   1.048  0.0448  0.0627  0.1168
22899W        W39373  13.765  16.564  16.770  0.2611  0.3619  0.3184
22900W        W39374   6.782   7.312   6.271 -0.0911 -0.2189 -0.2340
22901W        W39375   0.378  15.060  12.260 -0.4020 -0.0380  0.0143
22902W        W39376  11.940  17.779  15.370  0.0355 -0.1974  0.1804
22903W        W39377   6.996   3.766   5.802 -0.3649 -0.2095 -0.2858
22904W        W39378  12.848   0.775  15.804  0.0876 -0.0139  0.1713
22905W        W39379  14.561   3.051  16.441 -0.2716  0.1842 -0.0379
22906W        W39380   2.700   1.290   5.612  0.0718 -0.0179 -0.0189
22907W        W39381  11.788  15.383   3.682  0.2014  0.0390 -0.0892
22908W        W39382  12.516   5.760   1.072  0.1292  0.0751 -0.0947
22909W        W39383  13.544   1.216   3.478 -0.0200  0.1938 -0.0094
22910W        W39384  12.237   3.820  13.905  0.1367 -0.0277  0.0463
22911W        W39385  10.621  13.605  14.080 -0.0363  0.0586 -0.0522
22912W        W39386   1.626  16.446   2.467 -0.1954  0.2896 -0.2032
22913W        W39387   7.336   8.455  16.253  0.0871 -0.1858  0.2219
22914W        W39388  13.244   8.521   5.577 -0.1969 -0.0459 -0.2957
22915W        W39389  15.588   9.969  14.652  0.3725 -0.1245 -0.3188
22916W        W39390   3.482   5.086  14.757 -0.0296  0.0533  0.2996
22917W        W39391  16.264   2.848   3.880 -0.1981  0.3001  0.1652
22918W        W39392  10.972   1.109   1.633 -0.0544 -0.1191 -0.2572
22919W        W39393   1.144   3.431   2.126  0.1145  0.1740  0.0024
22920W        W39394  16.127  13.773   0.195  0.1027  0.0079 -0.2020
22921W        W39395  12.546   5.851  14.260 -0.1043  0.1800 -0.1893
22922W        W39396  11.025   0.086  12.901  0.2776  0.1830 -0.1123
22923W        W39397  15.208  17.406  15.010 -0.3087 -0.2216 -0.5257
22924W        W39398  15.883   3.682   2.409 -0.0274 -0.1216  0.3298
22925W        W39399  12.838   8.543   0.186 -0.0092 -0.0964  0.2639
22926W        W39400  11.961   7.265  13.058 -0.0782  0.3179 -0.3857
22927W        W39401   0.710  10.202  11.391 -0.0086 -0.3032 -0.2611
22928W        W39402   4.382   4.388  15.911  0.0466  0.1722 -0.0356
22929W        W39403   2.070  11.397   4.914 -0.2521 -0.0590  0.1145
22930W        W39404   3.117  10.294   0.516  0.0984  0.0456  0.0600
22931W        W39405   9.425  16.798   3.398  0.1746  0.1636  0.0612
22932W        W39406  12.049   0.428  15.243  0.2092  0.0713  0.0352
22933W        W39407  15.246  10.854  15.129  0.0636 -0.0691 -0.1615
22934W        W39408  16.365   6.113  15.444 -0.0400 -0.3110  0.1375
22935W        W39409  10.415   8.555  16.472  0.0853 -0.3746  0.0803
22936W        W39410  10.148  12.260   4.905 -0.3351 -0.1589 -0.0120
22937W        W39411  16.568  13.701   5.457  0.0133 -0.1784  0.2216
22938W        W39412   3.341   2.177  13.859  0.3127  0.0081 -0.0582
22939W        W39413  15.440   7.740   5.082  0.0321  0.1531 -0.0801
22940W        W39414   3.827  12.961   4.886 -0.0987 -0.3279  0.0273
22941W        W39415  10.921   3.129   1.815  0.0936 -0.2111 -0.0062
22942W        W39416   3.463  10.248  16.188  0.0865  0.2274  0.2316
22943W        W39417   9.864   3.671   4.917 -0.0396  0.0078  0.0569
22944W        W39418   1.585   1.504  12.965 -0.0375 -0.0749 -0.0001
22945W        W39419   4.205  12.653  16.483 -0.0095  0.0033 -0.2405
22946W        W39420  13.204  10.148   3.587 -0.2241 -0.1716 -0.0617
22947W        W39421  14.531  11.424  15.313  0.1885 -0.1632  0.0778
22948W        W39422   0.542  14.371   3.693 -0.1039  0.0559 -0.1703
22949W        W39423  12.302  12.786  13.140  0.1563 -0.0756 -0.0498
22950W        W39424  15.587  13.477  16.246 -0.4514  0.0805  0.0507
22951W        W39425  15.406  15.975   1.741 -0.5025  0.0506  0.1819
22952W        W39426  10.938   1.588  14.200  0.0423  0.0156  0.1309
22953W        W39427  14.040  14.115   1.111 -0.3529 -0.0642 -0.2847
22954W        W39428  17.566   3.818  12.078  0.2376  0.0461 -0.0862
22955W        W39429   9.186   8.880  12.761  0.0313 -0.0577 -0.2696
22956W        W39430  17.013  14.306   2.198 -0.0362 -0.0295 -0.0312
22957W        W39431  11.560   6.114  15.684  0.0782  0.1494  0.0125
22958W        W39432   8.032   8.808  14.247  0.1249 -0.3869 -0.2676
22959W        W39433   5.850  14.264  15.567  0.1098  0.0787 -0.2003
22960W        W39434  11.912   5.256  14.015  0.1755  0.0762  0.2854
22961W        W39435  17.315  16.285  14.439 -0.0225  0.1315  0.1962
22962W        W39436   6.818   9.056  15.910  0.5396  0.1564 -0.2324
22963W        W39437   9.434  12.976   5.001 -0.1569 -0.1982  0.3620
22964W        W39438  16.487   7.595  15.058 -0.1035  0.2038  0.1609
22965W        W39439   4.186  13.334  14.097 -0.0603 -0.0646 -0.1512
22966W        W39440  10.164  12.162  13.755  0.1423 -0.0750 -0.1069
22967W        W39441   8.989   3.778   1.113  0.0258  0.0168  0.1009
22968W        W39442  15.215  15.267   3.350  0.1062  0.0271  0.2136
22969W        W39443   8.152   3.522   5.694 -0.4959 -0.1278  0.1711
22970W        W39444   1.257  11.697  16.765  0.2503 -0.0003 -0.0970
22971W        W39445  11.856   0.892   3.220 -0.2028 -0.1898 -0.1672
22972W        W39446  15.641   6.787  12.356  0.1937  0.2111 -0.2360
22973W        W39447   1.109   5.968  16.536 -0.0491  0.1575  0.0019
22974W        W39448  14.334  11.707  12.427  0.2389  0.0325 -0.2773
22975W        W39449   3.720  15.783  11.708  0.0366  0.1996 -0.3428
22976W        W39450   1.934   7.337  12.223 -0.1099 -0.0722  0.1816
22977W        W39451   1.746   7.102  16.082 -0.0019  0.0860 -0.1214
22978W        W39452   4.703   4.061   5.664 -0.1472 -0.1661  0.0481
22979W        W39453   4.515  14.564   4.902  0.0230  0.0106  0.6032
22980W        W39454  12.488   7.710   5.881  0.0654  0.0267 -0.0192
22981W        W39455   5.450   8.341  13.152 -0.0625 -0.1945  0.1770
22982W        W39456   3.264   0.731   3.943 -0.0983  0.1403  0.0541
22983W        W39457   1.909  12.167   5.605 -0.2122 -0.0483 -0.0949
22984W        W39458   9.039  12.941  11.812 -0.2997 -0.0746  0.0059
22985W        W39459   3.199  14.203   0.907  0.3826 -0.0335 -0.3368
22986W        W39460  13.091   7.948  16.400 -0.2706  0.0206  0.3832
22987W        W39461   3.660  15.196   2.885  0.0942  0.0453  0.2174
22988W        W39462   3.958   0.713   1.555 -0.1740 -0.1130 -0.0979
22989W        W39463   5.304  10.940  13.064  0.3240 -0.0170  0.1792
22990W        W39464  12.844   9.095  12.887 -0.1054 -0.2248  0.2373
22991W        W39465   0.727   0.790  12.232  0.1304  0.1741 -0.2219
22992W        W39466   8.115   3.164   4.249 -0.0414 -0.2085 -0.1383
22993W        W39467   9.252   0.468  16.048 -0.0419  0.1929  0.0551
22994W        W39468  15.323   8.800   3.507  0.0601  0.3183  0.1654
22995W        W39469   3.923   0.841   0.313 -0.3614 -0.4993  0.3200
22996W        W39470  13.112  13.318  13.205  0.1431  0.0488 -0.1010
22997W        W39471   7.622   7.279  13.843  0.0544 -0.0604 -0.2598
22998W        W39472  14.389   8.767   0.906  0.0146 -0.2324  0.0786
22999W        W39473  10.923   9.728   0.398 -0.0533 -0.0591 -0.0958
23000W        W39474   8.892  16.203  14.263 -0.2224 -0.0503 -0.3790
23001W        W39475   9.722   3.538  16.223 -0.1079 -0.1681  0.0396
23002W        W39476  13.566   0.136  12.006 -0.0827 -0.0032 -0.1690
23003W        W39477   2.282   7.235   3.937  0.1903 -0.1502  0.1328
23004W        W39478  12.665   3.263   6.417 -0.2215 -0.0498  0.0212
23005W        W39479   0.524   2.904  16.826 -0.1885  0.1479 -0.0353
23006W        W39480   9.798  14.470  16.743 -0.3100  0.1999  0.0209
23007W        W39481   5.736  10.880   4.932  0.1075 -0.0443  0.1291
23008W        W39482  15.335  17.723   0.027 -0.2715 -0.3173  0.1999
23009W        W39483   4.939   1.450  15.961 -0.0652  0.1145  0.1886
23010W        W39484   6.522   1.814   1.372 -0.0239 -0.0383  0.1871
23011W        W39485  11.908   2.127  15.848  0.0428  0.2900 -0.0228
23012W        W39486   6.686   0.923  13.686  0.1538 -0.0959 -0.1864
23013W        W39487  11.298  11.103  16.251  0.2035  0.0104 -0.2383
23014W        W39488   8.185   6.950   2.266 -0.1251  0.1014 -0.2315
23015W        W39489  11.859   9.275   4.730 -0.0582 -0.2345  0.0248
23016W        W39490   2.800  10.974  10.938 -0.0913 -0.0654  0.0969
23017W        W39491   4.091   3.780  12.010 -0.1306  0.0376  0.0100
23018W        W39492   6.425   1.821  14.300 -0.2412 -0.0287  0.2343
23019W        W39493   7.721   0.459  12.263 -0.0760  0.0091  0.3541
23020W        W39494  16.981  14.314   2.777  0.2219  0.1448  0.0380
23021W        W39495   1.244  12.994   4.889  0.0099  0.0313  0.1751
23022W        W39496  10.500  14.245   5.559 -0.1338 -0.0624  0.0057
23023W        W39497   6.745   6.389   4.206  0.0061  0.0588  0.0998
23024W        W39498  16.695  17.340  13.669  0.0785  0.0297  0.3461
23025W        W39499  17.116  15.179  16.420  0.1929  0.2338  0.2803
23026W        W39500   4.580   0.308  15.395 -0.0501 -0.0483  0.1828
23027W        W39501  14.293   3.337   5.302  0.1205  0.0237  0.1347
23028W        W39502   1.842   2.233  16.434  0.0098 -0.0193 -0.1626
23029W        W39503   7.931   7.325  14.749 -0.0475  0.0215  0.0292
23030W        W39504  14.536  16.190   5.060  0.1494  0.1821 -0.1327
23031W        W39505   5.144   4.801   2.001 -0.1707 -0.2594  0.0701
23032W        W39506  12.439   7.364   6.212  0.2573  0.0498 -0.1042
23033W        W39507   7.973   5.924  12.811 -0.2529  0.0445  0.1486
23034W        W39508   3.451   9.748   5.143 -0.1028  0.2132 -0.0555
23035W        W39509   4.424   9.917   6.117 -0.0559 -0.2158  0.2359
23036W        W39510  17.553   5.396  12.667 -0.3898  0.1243  0.1335
23037W        W39511   1.979   1.494   3.092  0.0212  0.1112  0.0137
23038W        W39512  16.200   0.218   1.455 -0.0104 -0.1953 -0.0872
23039W        W39513   5.632  15.164   0.502 -0.1220  0.0946 -0.2043
23040W        W39514   8.898   1.904  14.805  0.2275 -0.2221  0.0581
23041W        W39515   5.702  16.706   4.530 -0.0199 -0.1430 -0.1942
23042W        W39516  13.452  14.707   2.908 -0.4301 -0.1502 -0.0754
23043W        W39517  15.002   4.898   0.197  0.0975  0.0182  0.1066
23044W        W39518  13.872   3.807  14.728  0.2102 -0.0244  0.2749
23045W        W39519   6.692   3.665   0.590 -0.0315  0.2183 -0.2842
23046W        W39520   1.016  11.686  11.606  0.1346  0.2078  0.2490
23047W        W39521   2.581   1.116  11.367  0.0467 -0.0221  0.0715
23048W        W39522  14.473   4.843  13.724 -0.2769 -0.0347  0.4441
23049W        W39523  11.619   7.572   0.811 -0.1921  0.0611 -0.0965
23050W        W39524  11.976   4.803  13.348 -0.0380  0.1548  0.2443
23051W        W39525   4.133   0.208  12.807  0.3666  0.0539 -0.1610
23052W        W39526  11.211   4.727   0.429  0.0259  0.0194  0.2356
23053W        W39527   0.131   5.752   1.410 -0.2165 -0.1224 -0.1772
23054W        W39528   1.229  17.510   1.250  0.2787  0.1983 -0.0338
23055W        W39529   9.976   2.019  14.522 -0.0555 -0.0459 -0.0509
23056W        W39530   4.034  10.479  13.632  0.1128  0.1620 -0.2767
23057W        W39531   1.737  15.249  12.000 -0.1442  0.0836  0.2121
23058W        W39532   0.012   6.050   6.474  0.0153  0.0001  0.0623
23059W        W39533  13.041   5.815   0.321  0.1926 -0.3704  0.2226
23060W        W39534  13.458   7.195  10.788 -0.3064  0.1129 -0.0487
23061W        W39535  11.594  14.277  13.652 -0.1095  0.1056 -0.0052
23062W        W39536   1.421  16.888  12.194  0.1067  0.1092 -0.2496
23063W        W39537  17.241   1.300  15.556  0.0014  0.1657  0.2515
23064W        W39538   2.495  13.755  12.384 -0.0375 -0.0940  0.1043
23065W        W39539   3.230   5.113  11.928 -0.0204  0.2628  0.0301
23066W        W39540  15.372  16.387  12.614 -0.0292 -0.0629 -0.0642
23067W        W39541  17.034   3.379   2.818  0.0303 -0.1961 -0.1078
23068W        W39542   8.341   4.080  13.366 -0.1755  0.2248  0.0009
23069W        W39543  14.067   0.409   4.467  0.0775  0.2553 -0.0263
23070W        W39544  13.667   5.075   5.022  0.1258  0.1388 -0.0132
23071W        W39545   6.407   5.254  15.345  0.2041  0.0360  0.0968
23072W        W39546   9.325  17.405   6.119  0.1932 -0.0050  0.4589
23073W        W39547  15.715  10.793  12.567 -0.2920 -0.0881  0.0529
23074W        W39548   7.462   1.061  11.404 -0.0337 -0.0385  0.1629
23075W        W39549  11.281   1.624  13.289  0.0089 -0.1249  0.2640
23076W        W39550   7.070  16.297   2.490 -0.0029  0.2128  0.0420
23077W        W39551  15.314  17.604  11.888 -0.1963  0.0427 -0.0202
23078W        W39552   9.537  14.153   0.929  0.0484  0.1045 -0.0870
23079W        W39553   0.472  12.419  12.884  0.1821 -0.1938 -0.3087
23080W        W39554   6.345  14.949   4.176  0.3158 -0.0016 -0.0881
23081W        W39555   5.280  10.608  14.946  0.1303 -0.1243  0.3654
23082W        W39556  15.396  10.659   3.407  0.0312 -0.1705 -0.2330
23083W        W39557  15.532   8.313   3.696 -0.0326  0.1037 -0.0839
23084W        W39558   1.873   9.176  15.392 -0.1116 -0.1757  0.1830
23085W        W39559  15.275   5.571  14.346 -0.0143 -0.2509 -0.0102
23086W        W39560   3.552   2.354  14.706  0.0894  0.0147  0.0901
23087W        W39561   4.401  10.565   2.864 -0.0014 -0.0073 -0.2354
23088W        W39562  14.749   9.028  11.813  0.0044 -0.1571 -0.3008
23089W        W39563   2.818   5.989   6.105 -0.1746  0.0209  0.1997
23090W        W39564  13.155  14.599   1.664 -0.2278 -0.0429  0.0951
23091W        W39565   0.378   0.238  13.481 -0.1041 -0.0608  0.3192
23092W        W39566   9.959   8.820   0.888  0.1568  0.1983 -0.0617
23093W        W39567   2.433  12.794   2.343 -0.1736  0.0308 -0.0610
23094W        W39568  12.739   9.098   3.088  0.0365  0.0318 -0.0915
23095W        W39569   2.410   3.788  14.604  0.1668 -0.1494  0.0886
23096W        W39570  10.856   0.620   5.477  0.1158  0.1073  0.1200
23097W        W39571   0.647   8.844  15.930 -0.0427 -0.0645  0.0357
23098W        W39572  16.392   1.841   0.719  0.0074 -0.2195  0.1564
23099W        W39573   9.691  13.992   1.441  0.3636 -0.0249 -0.0057
23100W        W39574   7.603   9.334   2.506 -0.0004  0.1180  0.1948
23101W        W39575  10.583   0.419   2.900  0.1480 -0.1307 -0.2707
23102W        W39576   9.976   8.434  16.704 -0.1418 -0.0808  0.1690
23103W        W39577  16.532   7.662   5.718 -0.0410 -0.1053 -0.0862
23104W        W39578   0.845   4.472  15.275 -0.1633  0.0438  0.0143
23105W        W39579   2.820   5.090   0.640 -0.2855  0.2045 -0.0108
23106W        W39580   1.264   7.489   3.524  0.2823 -0.3781  0.0939
23107W        W39581   3.538  13.286   4.578 -0.2098  0.0038 -0.4754
23108W        W39582  15.669  13.903   3.954  0.1944  0.5209 -0.0484
23109W        W39583  15.698  17.428  15.231 -0.1749  0.1779  0.0022
23110W        W39584  15.886   4.516   0.484  0.4388  0.0929 -0.1074
23111W        W39585   6.396  11.057   2.796  0.0792 -0.1679  0.0526
23112W        W39586   0.991   1.846  12.900  0.0727 -0.1221 -0.0880
23113W        W39587  11.866   6.064  16.785 -0.0066  0.0106  0.3049
23114W        W39588  10.476   3.874   3.883 -0.1104  0.0966 -0.2555
23115W        W39589   9.144   8.282   3.551  0.0657 -0.0060 -0.3636
23116W        W39590   1.192   1.437  11.707  0.1074 -0.1340 -0.1269
23117W        W39591   3.959  10.526   4.236  0.0165  0.1445  0.0482
23118W        W39592   2.357   5.558   3.387  0.2244  0.1994  0.2110
23119W        W39593  13.213  12.554   2.721 -0.0687  0.1480 -0.0027
23120W        W39594  10.120  10.603  15.454  0.0428 -0.1313  0.0491
23121W        W39595   3.212  17.551   0.128  0.0958 -0.1349 -0.2520
23122W        W39596  14.562  12.092   3.327 -0.0800 -0.0710  0.0116
23123W        W39597  17.407   1.763  12.396  0.1088  0.0683 -0.2372
23124W        W39598  17.412  12.166  13.342 -0.0305  0.0632  0.0019
23125W        W39599  12.596  16.044   2.355  0.0904 -0.1675  0.2156
23126W        W39600  10.162  11.149  13.311 -0.0005 -0.1846  0.1986
23127W        W39601  14.628   6.941   2.381 -0.0557  0.0906 -0.0881
23128W        W39602   8.085   8.834   1.949  0.3794 -0.0341  0.0001
23129W        W39603  16.423   0.222   4.956  0.1293 -0.0428 -0.1022
23130W        W39604   5.847  11.218   1.266 -0.2592 -0.1425 -0.1543
23131W        W39605   1.550  13.589  13.430  0.0040 -0.2576 -0.0271
23132W        W39606   4.915  16.904   5.143  0.1838  0.3195  0.0481
23133W        W39607   8.396   6.788  14.290  0.1537  0.1162 -0.2415
23134W        W39608  13.829   0.929  13.025 -0.1570  0.1119  0.2450
23135W        W39609  12.461   9.012  15.846  0.1678  0.1970  0.3583
23136W        W39610   0.333   8.434   2.021 -0.3217  0.4846 -0.3583
23137W        W39611  15.973   4.760  14.344 -0.0238 -0.0320  0.2984
23138W        W39612   8.314  11.029  13.532  0.0769  0.2639  0.2778
23139W        W39613   0.040   2.917   4.622  0.0875  0.0166  0.0469
23140W        W39614   1.163   0.395  12.381 -0.1021  0.1154  0.0733
23141W        W39615  14.591   1.108   1.853 -0.0809 -0.0919  0.3784
23142W        W39616   5.257   9.681   4.209 -0.0224  0.0717 -0.0847
23143W        W39617  13.046   9.359  14.736 -0.0099  0.0617  0.1211
23144W        W39618   1.629  12.305   5.166  0.0117 -0.0489 -0.1700
23145W        W39619   8.541  15.315   5.248  0.0715 -0.0210 -0.0997
23146W        W39620   1.518  16.458  15.607 -0.1323 -0.0075  0.2359
23147W        W39621   0.863   2.967   4.328  0.1183 -0.0590 -0.2352
23148W        W39622   1.657  11.625  12.226  0.0249  0.1103 -0.1254
23149W        W39623   3.568   7.041  14.382 -0.3074  0.0080 -0.1088
23150W        W39624  11.793   2.191  14.510 -0.0437 -0.0265 -0.0514
23151W        W39625  12.544   4.211   2.947 -0.1544 -0.3197  0.2341
23152W        W39626  12.399   8.869   5.036 -0.0101 -0.0120  0.3720
23153W        W39627   3.898  17.822   1.771 -0.1497 -0.1494  0.3537
23154W        W39628  10.334  15.991  12.778  0.1768  0.0597 -0.4793
23155W        W39629   3.744   0.034  12.497 -0.1225  0.1108 -0.1075
23156W        W39630   2.204   3.186  13.039 -0.0160 -0.1895 -0.1099
23157W        W39631  10.699  15.962   0.431  0.3225 -0.0356  0.1789
23158W        W39632   8.632   7.252   2.127  0.0365  0.2167 -0.1708
23159W        W39633  15.610   3.095   2.528 -0.3423  0.0475  0.0487
23160W        W39634   4.755  12.870  15.025 -0.0897 -0.1178  0.1958
23161W        W39635  13.840   0.077  16.729  0.1242 -0.3212  0.3140
23162W        W39636   6.684  16.000   1.092  0.1276 -0.2528  0.1240
23163W        W39637   9.343   3.256   0.540  0.1451  0.1206 -0.1284
23164W        W39638  16.458   0.939  16.101 -0.0390  0.2157  0.2288
23165W        W39639   4.035   3.303   0.806 -0.0597  0.1359 -0.0063
23166W        W39640   7.980   7.284   1.951  0.2106  0.0246 -0.1609
23167W        W39641  12.246   4.050   3.928  0.0459 -0.2149  0.0319
23168W        W39642  16.437   9.071  13.319  0.1326  0.0261 -0.1581
23169W        W39643   8.062  11.213  15.256 -0.1950 -0.0943 -0.0425
23170W        W39644   7.462  12.792   2.594  0.2342 -0.3315  0.1098
23171W        W39645  17.234   9.280  15.366  0.1530  0.0819 -0.0377
23172W        W39646   2.945  14.810   4.282 -0.1780  0.0808  0.2096
23173W        W39647   7.982  10.298  12.620 -0.3868  0.0836  0.4379
23174W        W39648  15.136   4.761  14.794  0.1573 -0.0063 -0.0073
23175W        W39649  16.087  11.815   4.615  0.1887  0.0411  0.2139
23176W        W39650  10.430  13.038  14.128  0.1703 -0.0355  0.0963
23177W        W39651  13.982  10.995  14.620 -0.1962  0.1299 -0.0265
23178W        W39652   7.368   3.307   2.706 -0.2722 -0.0179 -0.0811
23179W        W39653   9.953  16.689  11.775  0.0676 -0.0102 -0.0145
23180W        W39654  11.255   9.792  15.388 -0.2721  0.0864 -0.0989
23181W        W39655   0.181   8.446  11.638 -0.1149 -0.1236 -0.1914
23182W        W39656   5.775   2.295   3.333  0.0102 -0.1018 -0.3302
23183W        W39657   5.937   7.231  15.355  0.0873 -0.3094 -0.1605
23184W        W39658   2.517   4.301   3.807 -0.0081 -0.0232 -0.0230
23185W        W39659  14.564   2.471   1.121  0.0292  0.2607  0.1018
23186W        W39660  11.336   9.503  14.231 -0.1298 -0.1652  0.1126
23187W        W39661   9.892  13.938  14.437  0.1334 -0.1983  0.1787
23188W        W39662   6.904   9.548   1.376 -0.0441 -0.1258 -0.2741
23189W        W39663  17.795  13.623   3.763 -0.1314  0.0253  0.1880
23190W        W39664  12.938  10.966  14.053 -0.2381 -0.3035 -0.3841
23191W        W39665  16.507  14.028   4.500 -0.0580  0.3107  0.3039
23192W        W39666   4.715  17.477  13.852  0.0875  0.0840 -0.3079
23193W        W39667   6.262   9.406   0.041 -0.1357  0.1002  0.0551
23194W        W39668  10.338  13.556  14.807  0.2702  0.0273 -0.1367
23195W        W39669   0.999  11.983   2.507  0.0945  0.1222  0.1563
23196W        W39670  14.956   4.384   1.562  0.1123  0.0141  0.0955
23197W        W39671  17.232   0.100   1.203  0.2488 -0.0046 -0.0893
23198W        W39672   4.268   1.038   0.646  0.2749 -0.3149 -0.0525
23199W        W39673  17.488  14.348  12.652 -0.0116  0.1150 -0.0087
23200W        W39674  10.719   0.579  16.308 -0.0241 -0.1003 -0.1593
23201W        W39675  15.477  10.876   5.579  0.2597 -0.1444 -0.0243
23202W        W39676  16.035   6.962  15.730 -0.1427 -0.1838  0.0343
23203W        W39677  16.791  11.954  13.384 -0.0053 -0.0743 -0.2555
23204W        W39678   1.137   6.671  12.704  0.0800 -0.3120  0.4129
23205W        W39679  10.540   4.423   1.594  0.1443  0.0842  0.1739
23206W        W39680   6.244   1.690  15.695 -0.3212  0.0255 -0.1414
23207W        W39681   5.620  14.145  12.888 -0.1299 -0.0470 -0.2869
23208W        W39682  16.254  15.722  14.249 -0.1248  0.1912 -0.1799
23209W        W39683  16.802   9.440  13.081 -0.1304 -0.1967  0.0012
23210W        W39684   0.113  16.340   4.154  0.3200  0.0884 -0.0682
23211W        W39685   3.277   5.771  15.288  0.2521 -0.3024  0.0831
23212W        W39686  11.486  10.747   3.852  0.3218 -0.2177 -0.2080
23213W        W39687   6.298   3.349   3.540  0.2090  0.3740  0.1809
23214W        W39688   2.193   2.388   4.388  0.0750  0.1077  0.0921
23215W        W39689   3.493   0.094   2.109 -0.1706  0.0609  0.2087
23216W        W39690   1.713  13.121   1.643 -0.2662 -0.0363  0.0197
23217W        W39691  10.837  11.396   2.734 -0.3121 -0.0580  0.0144
23218W        W39692   2.843   4.515   1.221 -0.1618 -0.2169  0.2484
23219W        W39693   0.887   0.034   4.516 -0.0330 -0.0531 -0.0590
23220W        W39694  14.130  13.382  15.496  0.1645 -0.0327 -0.2153
23221W        W39695   5.289  10.587  16.801 -0.2559 -0.2660 -0.0546
23222W        W39696   1.925  13.832  14.380  0.2708  0.0243  0.2466
23223W        W39697  10.836   5.858   6.379 -0.1061 -0.3467  0.0728
23224W        W39698  11.353  13.780  15.711  0.1057  0.0391  0.2642
23225W        W39699   0.091  13.208  12.595 -0.2504 -0.1516 -0.1701
23226W        W39700   8.483   6.399   1.717 -0.3380 -0.3460  0.1952
23227W        W39701   2.938  13.199  12.027  0.1565  0.0352 -0.1289
23228W        W39702  16.721  17.371   4.347 -0.0697  0.3279  0.0221
23229W        W39703   5.994  11.751  11.634 -0.2046  0.0700 -0.2022
23230W        W39704  16.252  12.749  15.414 -0.2354  0.1896 -0.1622
23231W        W39705  13.720   4.583  12.835  0.2069 -0.0852 -0.1525
23232W        W39706   6.491  15.409   3.140 -0.1456  0.0053  0.2824
23233W        W39707  13.191   4.753  16.027  0.2122  0.0947  0.0400
23234W        W39708  17.434   8.434  14.265  0.3084  0.2311  0.1005
23235W        W39709   4.499   5.895  13.031  0.0466 -0.2389  0.1973
23236W        W39710   9.213   4.475   0.155 -0.1310 -0.1211  0.3506
23237W        W39711  13.311  10.410  12.221  0.0402 -0.1704 -0.0999
23238W        W39712  14.054  17.563  15.543  0.0549 -0.1347 -0.0693
23239W        W39713  11.724   1.220  12.540 -0.0738  0.1672 -0.0379
23240W        W39714   0.972  11.452  13.458  0.3286  0.0970  0.4230
23241W        W39715   0.606   8.882  13.698  0.1006 -0.0452  0.0354
23242W        W39716   1.577  10.659  14.227 -0.1106 -0.1134 -0.1654
23243W        W39717   9.028   9.874  16.150 -0.2664  0.1315 -0.0923
23244W        W39718   5.091  13.916  16.200 -0.4352 -0.0221 -0.4204
23245W        W39719   6.225   4.760  14.649  0.1215 -0.1383  0.0439
23246W        W39720   3.384   6.982   3.965 -0.1250  0.1831 -0.0800
23247W        W39721  16.809  11.494  11.616 -0.0681 -0.1943  0.0884
23248W        W39722  17.378   6.479   4.225 -0.0675 -0.0585  0.1089
23249W        W39723  10.696  14.668   5.355 -0.2295  0.0236  0.1718
23250W        W39724  12.111  16.228   0.664  0.2016  0.0901 -0.3793
23251W        W39725   5.649   3.968   4.553 -0.3189 -0.0444 -0.0148
23252W        W39726  17.134   2.601  12.379  0.1852  0.0458 -0.3832
23253W        W39727  15.020  12.454  11.827  0.0083 -0.0551 -0.0714
23254W        W39728   4.489  13.734   4.955  0.1568  0.0483 -0.0446
23255W        W39729   0.223  16.474  12.275  0.1879  0.0010 -0.4084
23256W        W39730  15.521  10.666   5.108 -0.0132  0.0390 -0.0511
23257W        W39731   0.279  12.527  14.900 -0.1926  0.0788 -0.3453
23258W        W39732   4.946   2.909  14.520  0.3987 -0.2068 -0.3158
23259W        W39733  17.223   6.460  13.429 -0.0377 -0.3656  0.2254
23260W        W39734   7.208   8.168   5.790  0.0295 -0.2772 -0.0793
23261W        W39735  14.414   6.355   4.609 -0.0157  0.2135  0.1897
23262W        W39736   0.713   7.428  14.503 -0.0628  0.2219 -0.0615
23263W        W39737  16.880   9.941   1.995 -0.1831  0.1162 -0.0715
23264W        W39738  12.408   0.750  14.907 -0.1261  0.1924 -0.1490
23265W        W39739  15.243  13.423  14.829 -0.3406  0.0853 -0.2146
23266W        W39740   1.225   4.339  13.828  0.3639 -0.1612  0.0892
23267W        W39741  12.271  12.191  16.714  0.0408  0.1066 -0.1419
23268W        W39742   7.539   8.413  14.080  0.0940  0.0379  0.1296
23269W        W39743   0.355   8.838  14.140  0.1178  0.1755  0.0361
23270W        W39744   5.418  13.961  12.022 -0.1863 -0.0384 -0.1126
23271W        W39745  16.378   9.117  16.275  0.0486 -0.2247 -0.1676
23272W        W39746  13.050  16.233   1.750 -0.0561 -0.0229  0.0319
23273W        W39747   5.618  15.496   1.928 -0.2823  0.1286  0.0254
23274W        W39748  17.300  12.765   0.909  0.1901  0.2372  0.0094
23275W        W39749   4.839   2.034  12.100 -0.0338  0.0868 -0.0457
23276W        W39750   7.322  17.719  14.270  0.0313 -0.0111  0.2090
23277W        W39751  11.561   0.568   0.638 -0.2602 -0.1283 -0.0122
23278W        W39752   2.833  10.118   4.523  0.3480 -0.0703  0.1113
23279W        W39753  15.830   6.960   4.932  0.3158  0.1731 -0.3774
23280W        W39754   4.675   5.594  15.819  0.4473  0.1057 -0.3410
23281W        W39755  15.374  17.625   6.003 -0.1823 -0.3194  0.1108
23282W        W39756  13.510   6.259   1.654 -0.4051 -0.1312 -0.0075
23283W        W39757  13.708   5.151   4.236 -0.3371  0.3214  0.0722
23284W        W39758  16.522   4.493  12.384  0.1306 -0.2489 -0.0480
23285W        W39759   7.385   1.581  14.807  0.0886 -0.0503  0.0173
23286W        W39760  12.205  12.705  16.530  0.1847  0.2217  0.0679
23287W        W39761  10.569  10.137   4.975  0.2748  0.0236  0.1090
23288W        W39762   0.751  11.741  16.900  0.0017 -0.1999  0.2469
23289W        W39763  15.057   1.914   4.799  0.1352  0.2272  0.1188
23290W        W39764   0.858   4.151  13.479  0.2742  0.0051 -0.0014
23291W        W39765  13.915  12.202  16.232  0.2693 -0.2958 -0.1176
23292W        W39766  16.427   3.696   0.530 -0.3615 -0.1055  0.2035
23293W        W39767   6.162   9.198   4.375  0.2353  0.0154  0.0968
23294W        W39768   2.227  10.094   0.705  0.0478  0.0772 -0.0647
23295W        W39769   0.941  14.015  13.294  0.5015 -0.0732 -0.0681
23296W        W39770   9.753  16.836   0.630  0.0365 -0.1741 -0.1531
23297W        W39771   0.411  16.605  13.251  0.2177  0.3544 -0.2457
23298W        W39772   3.954  10.462  14.152 -0.2736  0.0579 -0.0603
23299W        W39773   8.027  15.254  13.621  0.1362  0.0055 -0.1739
23300W        W39774   7.630   0.020  15.192 -0.2231 -0.0881  0.0027
23301W        W39775  11.353  16.417  12.249 -0.0588  0.3376 -0.0319
23302W        W39776   1.058   9.469   4.294  0.0804 -0.0553 -0.0354
23303W        W39777   7.583   7.185  14.443  0.2606  0.0553 -0.1792
23304W        W39778   5.832  14.745   1.397 -0.2308  0.0441  0.0408
23305W        W39779   3.874  17.382   3.680 -0.2649  0.1584  0.1196
23306W        W39780  11.181   1.346  16.497  0.4356 -0.0755  0.3111
23307W        W39781   9.864  15.281  13.455  0.1132  0.1646 -0.0677
23308W        W39782  17.441   3.302   0.849  0.0370  0.3882 -0.1785
23309W        W39783   7.608  16.111   3.267  0.2039  0.2118 -0.1387
23310W        W39784  17.064  17.274  14.035  0.3287  0.0100 -0.0047
23311W        W39785  14.933   6.240   3.058 -0.1333  0.1686  0.0762
23312W        W39786   1.421   0.054   2.938  0.1481 -0.0796  0.0884
23313W        W39787  14.634  13.966   4.700 -0.0483  0.3077  0.1339
23314W        W39788  13.129  16.001  15.025 -0.4053  0.3121  0.2394
23315W        W39789   0.126   8.733  16.413 -0.0903  0.1220  0.0049
23316W        W39790   1.755   6.859  11.898  0.0274 -0.1852 -0.1083
23317W        W39791   8.963  17.469   3.860 -0.1211  0.0295 -0.3313
23318W        W39792  14.817   4.756  16.291  0.1924  0.0896 -0.2428
23319W        W39793   0.290  12.540   2.915  0.2273 -0.2222 -0.3323
23320W        W39794  17.233  15.664   2.058 -0.4311  0.0555 -0.2019
23321W        W39795  12.597   0.291   0.192  0.0199  0.2544  0.1442
23322W        W39796  16.053  16.877   0.180 -0.1374  0.1899 -0.0716
23323W        W39797  11.358   3.897   1.244 -0.3693  0.0791 -0.0136
23324W        W39798   8.530   1.697  16.169 -0.0658 -0.0181 -0.2023
23325W        W39799  14.608   6.570   5.052 -0.0973  0.0266 -0.0275
23326W        W39800   9.320  10.789   3.949 -0.3995 -0.0074  0.0038
23327W        W39801   4.126  12.672   2.483  0.0469  0.1831 -0.1913
23328W        W39802   0.212  13.992  14.922 -0.2659 -0.1171 -0.2841
23329W        W39803   1.177  16.814  15.161 -0.0922  0.3655 -0.1588
23330W        W39804   1.718   6.567   3.775  0.0885 -0.1797 -0.1705
23331W        W39805   5.719   7.579   3.615  0.0224 -0.0676  0.1422
23332W        W39806  12.150   5.818   2.294 -0.2133  0.2101  0.2664
23333W        W39807  17.369  12.506  13.804 -0.0207 -0.2192 -0.2748
23334W        W39808   8.172   4.795  15.579 -0.0787 -0.1768 -0.0009
23335W        W39809  13.619  10.411  13.687 -0.2931 -0.0388 -0.1162
23336W        W39810  12.796  11.479  12.429 -0.0080 -0.1357  0.0994
23337W        W39811   8.738  10.786  15.825  0.1339 -0.3065 -0.0842
23338W        W39812   5.825   6.055  12.765  0.0925 -0.2634  0.1913
23339W        W39813  11.500  14.367   4.766 -0.0166  0.0780  0.0889
23340W        W39814   8.605  17.828  15.412  0.0619 -0.1128 -0.0022
23341W        W39815  13.551   4.609   5.081  0.2530  0.1019 -0.2165
23342W        W39816   6.721   5.688  15.442  0.0329  0.1185 -0.0228
23343W        W39817   0.495   6.806   2.951 -0.2110  0.0434  0.2211
23344W        W39818   0.892   8.123  13.945 -0.1808 -0.1616  0.0248
23345W        W39819   7.580   4.948   6.128 -0.1093 -0.1145 -0.1064
23346W        W39820  13.918   6.699   3.876 -0.4292  0.0511  0.1025
23347W        W39821  14.068  16.809   2.480 -0.4888 -0.1435  0.0601
23348W        W39822   6.423   8.884  15.617 -0.0737 -0.0906  0.0175
23349W        W39823   5.886   2.242  15.659  0.1066  0.1853  0.4356
23350W        W39824   3.109   6.476  12.316  0.0567 -0.0145 -0.0901
23351W        W39825  16.713  11.087  15.128  0.0651  0.0234 -0.2184
23352W        W39826   7.623   7.945   2.335 -0.0136 -0.0916  0.2980
23353W        W39827   5.005   3.286   5.016 -0.1178  0.0549  0.2325
23354W        W39828   4.036  14.981   2.570  0.1272 -0.3112  0.2755
23355W        W39829   6.912  12.975  14.088  0.1370 -0.0693  0.2563
23356W        W39830   2.742  15.167   4.646 -0.2159  0.1265  0.1783
23357W        W39831   8.811  15.399  16.197 -0.1333  0.2388  0.0987
23358W        W39832  14.708  14.295  14.906 -0.1022  0.0021 -0.0820
23359W        W39833   4.278   7.532  14.255  0.1630 -0.1210 -0.1276
23360W        W39834   4.398  12.715  11.460  0.1233 -0.4203  0.0994
23361W        W39835   8.461   1.538   5.698 -0.0711 -0.0987  0.2849
23362W        W39836   0.710  10.589   3.796  0.0571 -0.2171 -0.1046
23363W        W39837   9.374   7.732  16.846 -0.0070  0.0921  0.0508
23364W        W39838   5.559   6.347   5.455 -0.2496  0.3379  0.1787
23365W        W39839  13.449  13.631   0.733 -0.1333  0.0426 -0.0758
23366W        W39840  17.118   6.410   4.674  0.0428  0.0514  0.0045
23367W        W39841  12.343   6.543   1.414  0.1897 -0.3291  0.1042
23368W        W39842   5.127   1.629   1.546  0.0600  0.1800  0.1082
23369W        W39843   2.287   5.464   5.691 -0.2819  0.3492 -0.0756
23370W        W39844  11.383  14.377  14.847 -0.2811 -0.0698  0.0207
23371W        W39845   1.011   0.766  14.721  0.0585  0.2798 -0.2368
23372W        W39846  16.272   4.325  15.180 -0.0988  0.1758 -0.1927
23373W        W39847   6.154   6.279  16.645 -0.2302 -0.1108  0.1207
23374W        W39848   6.149  11.083  12.065 -0.0974  0.0635 -0.2048
23375W        W39849   7.892   3.517  14.415  0.1275  0.1615 -0.0945
23376W        W39850   8.203  11.802  13.611 -0.3392 -0.1891 -0.2896
23377W        W39851   5.107   3.066  12.770  0.1114  0.2755 -0.2114
23378W        W39852  13.031   5.668   3.978  0.0375 -0.0617  0.1942
23379W        W39853  14.915   1.702   3.938 -0.1004  0.2784 -0.1007
23380W        W39854   3.160   8.061  11.852  0.1685  0.3855 -0.0925
23381W        W39855  12.996  14.413  12.727  0.3951  0.3378 -0.2027
23382W        W39856   8.769  13.198  13.063 -0.0668 -0.1901 -0.1556
23383W        W39857   9.363   7.681   2.349  0.1333 -0.3284 -0.1002
23384W        W39858  11.974  15.555  13.675  0.1164 -0.1266  0.0810
23385W        W39859   3.150  11.807   1.733 -0.1391  0.0038  0.1554
23386W        W39860   7.246   2.582  11.614 -0.1001  0.0006  0.2562
23387W        W39861  13.418  11.667  16.712 -0.0503 -0.1616 -0.0767
23388W        W39862   4.618   3.777   4.459 -0.2615 -0.0517  0.2393
23389W        W39863   5.243  16.550  13.775 -0.1296 -0.1577  0.0502
23390W        W39864  15.168  17.346  14.530  0.1643 -0.1842  0.1717
23391W        W39865  10.924   3.139  16.885  0.2385  0.1859  0.0274
23392W        W39866   9.234   8.678  14.760  0.0619 -0.0940  0.3680
23393W        W39867   8.488  14.024   1.897  0.2058 -0.2830 -0.0485
23394W        W39868   5.546   7.223   2.292  0.0875 -0.4161 -0.2614
23395W        W39869   3.474  11.740   0.534 -0.0490  0.1795  0.2586
23396W        W39870  12.751  16.841  14.025 -0.1153  0.4619  0.1828
23397W        W39871   0.967   7.019  13.006 -0.0312 -0.1352  0.3905
23398W        W39872  12.248  17.293  11.948  0.1066 -0.2457  0.1648
23399W        W39873   4.601  17.643   0.769  0.2431 -0.0431 -0.1397
23400W        W39874   1.213  10.255  11.438 -0.3142  0.0263 -0.3461
23401W        W39875   7.023   0.697  15.323 -0.2337  0.0281  0.0852
23402W        W39876   9.947   5.500   2.687  0.3816 -0.2478 -0.1831
23403W        W39877  17.818   0.379   4.359  0.1422 -0.1770  0.1600
23404W        W39878   7.377   6.897  14.907  0.3054 -0.1239  0.1500
23405W        W39879   8.077   9.401   0.186 -0.0687  0.0472 -0.0155
23406W        W39880   6.409   9.111   2.220  0.1572  0.0724 -0.1632
23407W        W39881   8.967  13.417  11.636  0.4068  0.0190  0.0153
23408W        W39882   4.202  10.056  13.915 -0.3730 -0.0269  0.1398
23409W        W39883   7.235  16.230  15.809 -0.1738  0.2903  0.1786
23410W        W39884   7.897   3.197   0.858  0.2028  0.3429 -0.2099
23411W        W39885   4.309   8.895   1.722 -0.0570  0.0320  0.1165
23412W        W39886  10.352   2.676   4.676  0.2009 -0.0369 -0.3130
23413W        W39887   6.113  14.227   2.738 -0.0571  0.1082 -0.1679
23414W        W39888  15.143   1.817  16.008 -0.0357 -0.1847  0.0711
23415W        W39889   4.129   4.603   2.934  0.1828  0.2028  0.0054
23416W        W39890   6.940  16.561   5.044 -0.2197  0.0905  0.2134
23417W        W39891   7.586   6.566  16.714 -0.1777 -0.0489  0.1232
23418W        W39892   8.623   2.941   4.026  0.0627 -0.3418 -0.1944
23419W        W39893  14.210  12.640   2.075 -0.5171 -0.0734 -0.2565
23420W        W39894  11.855  15.022  11.648  0.1667  0.2143 -0.1380
23421W        W39895  17.361  12.597  12.941  0.0484  0.1661 -0.2094
23422W        W39896   2.002   8.541  11.510 -0.1582 -0.1025 -0.0798
23423W        W39897  15.565   6.808   6.006 -0.0692 -0.1615 -0.0479
23424W        W39898   4.915  12.064   2.232 -0.1389 -0.0496  0.2672
23425W        W39899  12.581   3.976  14.234 -0.3274 -0.0375  0.0985
23426W        W39900   9.706   6.366   4.029  0.2107 -0.2003  0.1030
23427W        W39901   5.014   2.823   3.544 -0.2856 -0.1116 -0.0879
23428W        W39902   5.778  15.211  11.901 -0.0322 -0.1423  0.0922
23429W        W39903  10.219   8.891  11.719  0.0198 -0.3626 -0.2912
23430W        W39904   8.476   2.627   4.525 -0.3206  0.3393  0.0117
23431W        W39905   1.242  16.195  11.769 -0.0887 -0.1894 -0.3770
23432W        W39906  17.593   0.696   2.496  0.1291  0.1441  0.0458
23433W        W39907   6.259   2.582  16.745  0.1737 -0.1269 -0.0166
23434W        W39908  13.142   5.857  16.737  0.0162  0.2150 -0.2591
23435W        W39909   0.631   0.394  15.287 -0.0992 -0.1440 -0.0096
23436W        W39910   3.179  14.921   4.823 -0.1980  0.1021 -0.0225
23437W        W39911   2.374   6.704  11.638 -0.1162  0.0075  0.0354
23438W        W39912  14.009   9.562  13.324 -0.2068  0.0573 -0.3668
23439W        W39913   3.013  12.868  15.730  0.1057  0.2921  0.0125
23440W        W39914  17.149   9.345   4.117  0.0899 -0.3033  0.0642
23441W        W39915  16.027   5.891  13.590  0.1025 -0.1217  0.1732
23442W        W39916   9.358   3.358   3.286  0.0455 -0.1003  0.0182
23443W        W39917  14.890  17.054   3.079 -0.1475  0.1791  0.0054
23444W        W39918   7.522   4.775  14.452 -0.1114 -0.1908  0.0142
23445W        W39919  16.466   9.820  12.269  0.2763  0.2424 -0.1199
23446W        W39920  11.089   9.997   6.210 -0.1156  0.0158  0.0860
23447W        W39921  13.251   6.535  15.692 -0.1603  0.1793 -0.1146
23448W        W39922   6.750  14.216  14.509 -0.1418 -0.0793  0.2773
23449W        W39923  12.918  15.589  12.674  0.2206  0.1297  0.0714
23450W        W39924   9.307   3.791   1.497  0.1051  0.0223  0.1558
23451W        W39925   7.769   5.173   1.607  0.1993  0.3895  0.3711
23452W        W39926   9.653  15.967   5.226 -0.0081 -0.0190 -0.0801
23453W        W39927   4.072   3.732  14.400 -0.1596 -0.1282  0.1065
23454W        W39928   8.894   1.029   5.721  0.1855  0.1295  0.0556
23455W        W39929  11.458  12.610   2.644 -0.0401  0.0733  0.1209
23456W        W39930  10.280   8.582   4.994  0.1031  0.1416  0.2604
23457W        W39931   4.879  11.840   3.756 -0.0660 -0.2359 -0.0579
23458W        W39932   9.634   7.339  15.387  0.0934  0.2478 -0.0186
23459W        W39933   0.185  16.063  15.719  0.0296  0.0623  0.1259
23460W        W39934  11.499  15.750  13.725 -0.0166  0.1414 -0.2409
23461W        W39935  16.542  16.812  12.228  0.0492 -0.0944 -0.0887
23462W        W39936   3.903   2.846   2.701 -0.1489  0.0826 -0.1599
23463W        W39937  13.421   1.705   3.838  0.0999  0.1215 -0.4111
23464W        W39938   2.079  11.946  14.191  0.1331  0.1724  0.0117
23465W        W39939   1.308  12.961  14.771 -0.0228 -0.0753  0.3771
23466W        W39940   9.317   1.021  13.809 -0.1997  0.0358  0.2575
23467W        W39941   7.701  10.303  13.982 -0.0786 -0.0927 -0.0775
23468W        W39942  10.529   4.161  14.918  0.1071 -0.3134  0.1131
23469W        W39943   0.991   6.345  12.328  0.3289 -0.0380  0.0226
23470W        W39944   1.396  14.434   1.782  0.2939  0.1126 -0.2119
23471W        W39945   1.268   3.473   4.003  0.0084  0.5558 -0.0631
23472W        W39946  12.528  16.243  11.855  0.0494  0.0521 -0.0673
23473W        W39947   5.394  15.229  14.807 -0.1207 -0.0015 -0.4293
23474W        W39948   0.708  13.335   3.025  0.0658  0.0934  0.0773
23475W        W39949   8.334  11.915  12.530 -0.0880  0.0118 -0.1158
23476W        W39950  16.857   9.184  11.812 -0.3505 -0.3371 -0.2849
23477W        W39951  12.711   9.679   1.869 -0.3955 -0.3510  0.0982
23478W        W39952  14.466   9.641  16.896  0.0457 -0.1815  0.1353
23479W        W39953   6.853   3.591  12.309 -0.0019  0.0359  0.1737
23480W        W39954  12.791  17.012  16.541  0.4937 -0.2076  0.1883
23481W        W39955  16.016  10.409   0.235 -0.0344 -0.0958 -0.1374
23482W        W39956  12.135  14.698   5.678  0.2455 -0.1363 -0.2425
23483W        W39957   3.101   3.360   4.634 -0.0666 -0.1734 -0.1433
23484W        W39958   0.648  10.677  13.249 -0.1995 -0.1171  0.1448
23485W        W39959   8.190   4.364   0.556 -0.0266  0.1249 -0.1141
23486W        W39960  12.144  16.578  16.333  0.0894 -0.1212  0.2941
23487W        W39961   0.749  14.581  13.509  0.0737 -0.2308 -0.3673
23488W        W39962   5.839  12.152   5.708  0.1581 -0.1996 -0.3414
23489W        W39963   6.445   7.560  15.926 -0.3599 -0.3070  0.1088
23490W        W39964  13.727  11.120  12.802 -0.1314 -0.1003  0.4111
23491W        W39965  13.643  10.046  15.599 -0.3055 -0.2609 -0.1067
23492W        W39966   0.681  16.541  11.628 -0.0594 -0.0298  0.3896
23493W        W39967   9.954   8.585  12.101  0.0779 -0.4928 -0.2353
23494W        W39968  12.784   2.846  16.575  0.1521  0.1363  0.0028
23495W        W39969  12.220   0.999   3.522 -0.2071  0.2653 -0.1072
23496W        W39970  14.183   1.929   5.096 -0.1794 -0.0232  0.0899
23497W        W39971  14.693  10.749   4.732 -0.0917  0.0051 -0.2839
23498W        W39972  16.788  15.826  14.282 -0.0846  0.1958 -0.0110
23499W        W39973  14.425  16.568   0.631  0.2888 -0.2351  0.0641
23500W        W39974  14.575  13.314  15.757 -0.1868 -0.1716  0.1024
23501W        W39975  11.451  14.546  12.949  0.1938 -0.2011 -0.0506
23502W        W39976   5.684  16.663  13.529 -0.3180  0.1060  0.1432
23503W        W39977  10.262   9.869   0.800 -0.1308  0.0185 -0.1229
23504W        W39978  12.281   5.115   1.660  0.0059  0.1753  0.1219
23505W        W39979  12.477  17.680  15.498  0.0258 -0.0290 -0.0535
23506W        W39980   3.208   8.692  15.099 -0.0813  0.1188  0.0416
23507W        W39981  11.672   0.194   4.427  0.1165 -0.2457  0.1147
23508W        W39982   0.456   3.653   0.957 -0.0875  0.0251  0.2566
23509W        W39983   5.662   6.504  16.012  0.0055 -0.0935  0.0711
23510W        W39984   7.311  13.178   4.189  0.0465  0.0169 -0.1434
23511W        W39985   0.167   3.385  15.898 -0.0286 -0.1035 -0.0393
23512W        W39986   6.822   5.312  12.861  0.2359 -0.0013 -0.2295
23513W        W39987  14.328  14.062   4.360 -0.0875  0.1638  0.0703
23514W        W39988   8.989   3.195  14.196  0.2363 -0.1621 -0.2600
23515W        W39989   7.133   5.862   5.822  0.1951 -0.2495  0.1303
23516W        W39990   6.770  11.176  11.755 -0.0517  0.0985 -0.1414
23517W        W39991  14.566   5.058  12.663 -0.1937  0.1646 -0.1469
23518W        W39992  10.155  11.587  14.597 -0.0346  0.2476 -0.0255
23519W        W39993   3.438   3.284   4.163 -0.0266  0.1083  0.0249
23520W        W39994   6.405  13.626   1.070 -0.0807  0.0478 -0.1052
23521W        W39995  16.653   0.560  13.661  0.2636  0.3909  0.0297
23522W        W39996   6.957   2.550   2.578  0.2053  0.0057 -0.0422
23523W        W39997  11.130   8.145   0.118  0.0935  0.1037  0.3097
23524W        W39998   1.866   5.489   3.182 -0.0341 -0.2760 -0.0265
23525W        W39999  10.606  17.580  11.966  0.2485  0.1225 -0.3791
23526W        W40000   8.206  16.805  16.844  0.0929 -0.1133 -0.1746
23527W        W40001  14.691   1.243   3.993 -0.3749  0.0755  0.2571
23528W        W40002   4.091   6.009  15.320  0.0352 -0.2364  0.1072
23529W        W40003  13.825  13.090  13.892  0.1461 -0.0176  0.0021
23530W        W40004   1.018  17.558  13.889 -0.2062  0.0394  0.3574
23531W        W40005   3.270   5.037   3.295  0.2001 -0.1588  0.0250
23532W        W40006  10.218   3.138  11.843  0.1073 -0.0655 -0.1730
23533W        W40007   0.930   2.057  16.891 -0.2053 -0.0061 -0.0110
23534W        W40008  16.299  10.701   5.472  0.1710 -0.1848 -0.0970
23535W        W40009   3.979  15.490   5.343  0.2097 -0.3183  0.1261
23536W        W40010  10.184   6.114  15.581  0.0555 -0.1647 -0.1842
23537W        W40011   0.251  10.096   3.814 -0.1590 -0.1550 -0.2105
23538W        W40012   3.517   3.537   5.236  0.1905  0.1560 -0.1043
23539W        W40013  10.078   3.060  15.717 -0.1785  0.1705  0.4407
23540W        W40014  13.067   7.905  15.926  0.1016  0.0849  0.3369
23541W        W40015  14.241   6.829   0.394  0.4192  0.1164 -0.0279
23542W        W40016   6.829  17.397  11.891 -0.0746  0.0762  0.0167
23543W        W40017  12.280   8.931   1.892 -0.0144  0.0334  0.0674
23544W        W40018   0.039  17.423  15.417 -0.2766 -0.1026 -0.2299
23545W        W40019   3.536   0.642  15.042 -0.3100  0.2622  0.0081
23546W        W40020  15.593   5.426  13.388 -0.1360 -0.0094  0.0124
23547W        W40021   8.906   1.960  13.500 -0.1148 -0.1183  0.0272
23548W        W40022  13.463   1.817   4.900  0.0778  0.0694 -0.0318
23549W        W40023  17.679  13.864  12.466 -0.1194  0.0806 -0.0004
23550W        W40024   9.014  15.382  12.780  0.0638 -0.0797 -0.1260
23551W        W40025  12.806  15.851   5.295 -0.1936  0.0868 -0.2124
23552W        W40026   4.305   9.587   5.591  0.2594  0.1084  0.1084
23553W        W40027  11.991   9.922   2.767 -0.1308  0.0588  0.2477
23554W        W40028   4.442   5.162  15.627 -0.0022 -0.0197 -0.0145
23555W        W40029   8.967  10.440  15.314 -0.5164 -0.1006 -0.0452
23556W        W40030  14.572   6.331  15.510  0.0371  0.0332 -0.0886
23557W        W40031  12.491  17.558   0.138  0.0933 -0.2651 -0.0551
23558W        W40032  16.132  14.880   2.185 -0.0630  0.1278  0.1352
23559W        W40033   0.333   4.468   3.009  0.2100 -0.0396  0.0537
23560W        W40034  16.306   3.326  16.714  0.3574  0.1102 -0.3108
23561W        W40035   3.479  15.560   5.371 -0.0991  0.2287 -0.2687
23562W        W40036  17.471  17.792   3.121  0.0032  0.1719 -0.3377
23563W        W40037   8.563   5.914  13.933 -0.2163  0.0699  0.1103
23564W        W40038  10.447  14.644  13.220 -0.6465 -0.0293 -0.1256
23565W        W40039   2.121   8.679  12.737 -0.2551  0.0911 -0.2246
23566W        W40040  13.939   5.336  12.339  0.3588  0.2140 -0.0821
23567W        W40041   5.126  13.240  12.605  0.1649  0.2601  0.1178
23568W        W40042  16.118  15.730   3.428  0.0262 -0.2546 -0.3768
23569W        W40043   4.447  11.801   4.745 -0.1019  0.1093  0.0724
23570W        W40044   4.134  12.162   4.536  0.1160  0.1034 -0.1839
23571W        W40045   4.045  15.093  13.426  0.1821  0.1472 -0.1498
23572W        W40046   3.678   7.578   4.627 -0.0479  0.2012  0.1524
23573W        W40047  15.023  16.962  14.282  0.0797 -0.0790  0.0457
23574W        W40048  14.213   3.696   1.659  0.1052  0.1299 -0.0620
23575W        W40049  15.069   4.051  16.858 -0.1195  0.3963  0.0563
23576W        W40050  12.613  16.762  15.294  0.0465  0.1293  0.1747
23577W        W40051  14.122   4.527   2.523 -0.3208  0.0847 -0.0127
23578W        W40052   4.602  11.594  16.143 -0.0403  0.0146  0.1184
23579W        W40053   2.692   1.945  15.599  0.2329  0.1163 -0.1042
23580W        W40054  14.326  16.667   1.983 -0.0678  0.1479  0.3660
23581W        W40055  16.264   9.177   2.047  0.0686  0.0188 -0.2602
23582W        W40056  17.825   8.577  13.846 -0.0501  0.1559 -0.0256
23583W        W40057   9.416  13.012   4.043  0.0958  0.0382  0.2134
23584W        W40058  17.523   3.918  11.534 -0.3006  0.0173  0.0966
23585W        W40059  16.111  17.148   3.769 -0.1804  0.1846 -0.1737
23586W        W40060  17.058  10.393   0.356  0.1443 -0.2044 -0.0081
23587W        W40061   9.956   5.756  13.589  0.2374 -0.0473  0.1806
23588W        W40062  14.996  15.822   0.337  0.0059 -0.3223 -0.0551
23589W        W40063  16.954   1.814   6.058  0.0757  0.2867  0.0749
23590W        W40064  10.664   8.232   2.844  0.1437 -0.1494  0.0531
23591W        W40065  12.239   9.589   6.207  0.5533 -0.2393 -0.0104
23592W        W40066   4.549   5.820  12.139 -0.1665 -0.2602  0.1973
23593W        W40067   0.938   7.749   5.426 -0.4607  0.4378 -0.0930
23594W        W40068  12.974   5.465  12.609 -0.2813  0.1735  0.2445
23595W        W40069   5.671   6.168   1.439 -0.1350 -0.2493  0.1144
23596W        W40070   8.413  17.451   4.605  0.0404 -0.0511  0.3577
23597W        W40071   3.459  15.201  15.669  0.3398  0.1094  0.1491
23598W        W40072   7.479   6.396  13.867 -0.0886  0.0114  0.0899
23599W        W40073  12.612   2.110   6.272 -0.0876  0.2710 -0.1090
23600W        W40074  16.567   3.501   1.424 -0.0226  0.2109  0.1012
23601W        W40075   0.969  12.143   4.899 -0.0959  0.0566 -0.1708
23602W        W40076  10.964   4.531   0.852 -0.5094  0.3301 -0.0713
23603W        W40077   4.988  16.321  12.249 -0.0408 -0.1037  0.0288
23604W        W40078   1.348  12.046  11.351  0.1652  0.0392 -0.1287
23605W        W40079  16.674   9.063   4.463  0.0476  0.0374 -0.0902
23606W        W40080  14.280  16.186   4.661 -0.0694  0.0392  0.0164
23607W        W40081   7.521  16.601  16.135 -0.2989  0.0635 -0.0580
23608W        W40082   3.761  14.809   3.212  0.0496  0.1814  0.1057
23609W        W40083   7.129  10.475   3.749 -0.2163 -0.0280 -0.0279
23610W        W40084   3.360   9.375  12.492  0.1419  0.2422 -0.2811
23611W        W40085  11.385  13.569   2.672 -0.3092  0.0924 -0.0666
23612W        W40086   3.894  14.899  15.677 -0.0076 -0.2453 -0.1576
23613W        W40087  13.501   7.169  14.484 -0.2965 -0.0305  0.0513
23614W        W40088   1.836  13.946   0.697 -0.2972  0.1761 -0.3616
23615W        W40089   8.065  12.598  13.630  0.0686 -0.0218 -0.1194
23616W        W40090   4.512  10.530  12.082 -0.0203 -0.5023 -0.1007
23617W        W40091   1.876  10.270  14.384 -0.2632 -0.0044 -0.2096
23618W        W40092  15.458   4.070   4.302 -0.3869 -0.0734  0.1295
23619W        W40093   8.284   6.208   3.402 -0.0329  0.0026  0.4881
23620W        W40094  12.624   3.777  12.852 -0.1457  0.2300 -0.3101
23621W        W40095   8.743  14.322   2.190 -0.1649  0.0010 -0.3742
23622W        W40096   7.970   2.522  12.877  0.0948 -0.1745 -0.1338
23623W        W40097   1.909  12.600  16.746 -0.0726  0.1641 -0.0107
23624W        W40098   6.510  12.536  13.992 -0.1864  0.1149 -0.1431
23625W        W40099  17.356  16.545  12.725  0.2223 -0.1877 -0.0243
23626W        W40100  14.009   7.493  12.014  0.1176 -0.1275  0.1511
23627W        W40101   1.767  14.866  14.624  0.0149  0.0629  0.3367
23628W        W40102   6.580   2.446   0.140 -0.3023  0.1419  0.0713
23629W        W40103  11.376  12.123   2.964 -0.1994  0.0084  0.2081
23630W        W40104   6.456  15.365   4.453 -0.3157 -0.0899 -0.1965
23631W        W40105  11.926   5.913   1.834 -0.0398  0.2930  0.0601
23632W        W40106  12.955   2.341   5.421  0.4817  0.1740 -0.1296
23633W        W40107  11.462  11.176   5.463  0.0292  0.2793 -0.0470
23634W        W40108  12.711  14.824   0.401 -0.0502 -0.2528 -0.1367
23635W        W40109   4.481  16.886  15.786 -0.2523 -0.1205  0.1905
23636W        W40110   1.202   3.052  14.894 -0.2038  0.2512 -0.1685
23637W        W40111   2.135  12.679  15.816  0.1067  0.0270 -0.0301
23638W        W40112   1.630  10.438  14.806 -0.2026  0.0269  0.0361
23639W        W40113   3.637  14.013   1.029 -0.2392  0.1993 -0.0865
23640W        W40114  17.761   2.006  14.539 -0.0963 -0.2025 -0.2993
23641W        W40115  14.046  15.371   1.068  0.1009  0.0328 -0.3884
23642W        W40116  14.936  10.398   2.138 -0.0312  0.0175  0.0704
23643W        W40117   9.281  11.028   0.230  0.0918  0.3181  0.1533
23644W        W40118  10.964  12.961   3.149 -0.3183 -0.0733  0.1602
23645W        W40119   2.762   6.006  16.093 -0.2439  0.0076  0.1368
23646W        W40120  13.457  14.327   4.742  0.0040 -0.1596 -0.3063
23647W        W40121  17.143  13.861  15.457  0.2610 -0.3350  0.0846
23648W        W40122   5.576   4.468   0.747 -0.2672 -0.1854  0.0290
23649W        W40123   2.212   5.803   2.148 -0.2705  0.0544 -0.1425
23650W        W40124   5.351  10.535  13.400 -0.0666  0.0958  0.3264
23651W        W40125  11.788  11.448  15.086 -0.1369 -0.0702  0.2061
23652W        W40126   2.176  12.702   2.862 -0.1162  0.2157  0.1392
23653W        W40127  11.774   0.096  11.460 -0.0714  0.1345 -0.0782
23654W        W40128   9.772  13.793  13.070 -0.0072  0.2921 -0.0585
23655W        W40129   0.532  17.348   0.387 -0.0020  0.0504  0.1996
23656W        W40130  10.598  15.472  11.190 -0.1496 -0.1053 -0.3058
23657W        W40131   7.357  14.664  12.785  0.3640  0.0799 -0.0632
23658W        W40132  15.879   3.144  13.599 -0.1028  0.2485 -0.0317
23659W        W40133  13.360   3.897   1.167 -0.2415  0.0535  0.1167
23660W        W40134  16.916   1.808  14.404 -0.0174  0.0632 -0.0434
23661W        W40135  16.471   8.256  10.692 -0.0385 -0.2353 -0.0219
23662W        W40136   5.932   9.126   0.884 -0.0468 -0.0605 -0.0213
23663W        W40137   5.424  16.421   1.820 -0.1448 -0.1393 -0.1475
23664W        W40138   5.477   7.139  15.139 -0.1909 -0.0424 -0.0244
23665W        W40139  14.187   6.509  15.768 -0.1057  0.1575  0.3948
23666W        W40140   8.732   2.451  16.038 -0.0547 -0.0840  0.2223
23667W        W40141  12.037  12.972  12.383 -0.1501 -0.0885 -0.0267
23668W        W40142  13.211   7.020   4.087 -0.1152 -0.0891 -0.1081
23669W        W40143   7.366   1.573   1.702  0.1641 -0.1854 -0.1779
23670W        W40144   3.266   9.884   2.770  0.1843 -0.2078  0.0884
23671W        W40145  14.142  12.278  14.365  0.2124  0.2760 -0.4098
23672W        W40146  11.561   5.659  16.583  0.1145  0.3958  0.1989
23673W        W40147   0.421   1.855   6.714 -0.3867  0.1067 -0.1874
23674W        W40148   1.041   1.273  12.221  0.0155  0.1319  0.0483
23675W        W40149   0.179  16.416  14.059  0.3097  0.0024 -0.1382
23676W        W40150  14.135   4.996   0.072  0.1877 -0.0564 -0.1023
23677W        W40151   1.525  15.281   3.889  0.0683 -0.1518  0.0912
23678W        W40152  17.807   4.624   0.789  0.3389  0.0739  0.3808
23679W        W40153  10.284  13.377   2.498 -0.1841  0.0207  0.0477
23680W        W40154  11.114   5.874   5.630  0.1094  0.2072  0.1042
23681W        W40155   1.302   6.237   3.605 -0.1349 -0.0638 -0.2184
23682W        W40156  15.927  14.538   0.315  0.3194  0.1440  0.3114
23683W        W40157   6.985   5.076  12.441 -0.1569 -0.1419  0.0951
23684W        W40158   1.087   5.189  16.510 -0.1743 -0.3016 -0.2209
23685W        W40159   0.157   8.477   0.462  0.1813 -0.1331  0.2373
23686W        W40160  17.809  10.471  14.586  0.1857 -0.1939  0.3362
23687W        W40161   5.192  17.232  12.084  0.0329 -0.1490  0.1015
23688W        W40162  11.406   0.560  13.448 -0.1877  0.2274  0.2775
23689W        W40163  11.278   0.157   0.835 -0.0337 -0.3536 -0.0606
23690W        W40164  13.387  17.429  14.270  0.1137 -0.3434 -0.0474
23691W        W40165  17.164  11.877   4.841  0.0752 -0.2415 -0.2480
23692W        W40166   1.854   3.160  16.618 -0.1595  0.3006  0.1822
23693W        W40167   7.430  12.831   5.364  0.1657 -0.0794 -0.1197
23694W        W40168   6.510   0.666  15.001 -0.1474 -0.1104 -0.0748
23695W        W40169  13.166  15.486   2.879 -0.3602  0.0431 -0.2750
23696W        W40170  17.616  16.533  16.497  0.0288 -0.1925 -0.2529
23697W        W40171  12.573   2.009  16.363 -0.1468  0.1640 -0.1757
23698W        W40172  11.638  13.777   3.437  0.0554 -0.2145  0.0585
23699W        W40173   2.546   4.845   2.721 -0.0691  0.1712 -0.1863
23700W        W40174  17.657   0.084   1.857 -0.1833 -0.3130 -0.3627
23701W        W40175  14.246   5.774   1.830  0.1791 -0.0474  0.0068
23702W        W40176   7.724  15.657  15.224  0.1662 -0.0820  0.1169
23703W        W40177  11.740  17.253  16.783 -0.2628  0.0613 -0.2360
23704W        W40178   3.331   0.296   5.043  0.0780  0.2409  0.2295
23705W        W40179  13.200   9.567   1.034 -0.3522  0.2136 -0.2793
23706W        W40180  12.831  11.389   0.472  0.1260 -0.0813  0.0737
23707W        W40181   5.636  14.042   1.074 -0.1284 -0.1936  0.1222
23708W        W40182  14.182   8.470   0.565 -0.0800  0.2031  0.1288
23709W        W40183   5.054   3.106  15.008 -0.0158  0.2912 -0.1332
23710W        W40184  12.970  17.402  16.818 -0.3532 -0.0182  0.2234
23711W        W40185   0.427   8.583   3.762 -0.3696  0.0751 -0.1097
23712W        W40186  15.746  10.986   3.368 -0.0050 -0.3920  0.0855
23713W        W40187  17.308  15.426  15.356 -0.1470  0.1035 -0.0587
23714W        W40188  16.803  15.905  12.317 -0.2506 -0.0583 -0.1373
23715W        W40189   3.602   7.945  14.909  0.1832 -0.1756 -0.0877
23716W        W40190  14.573  10.852   1.520  0.1160 -0.1553  0.1704
23717W        W40191   4.714  12.051  15.516  0.4069 -0.1141  0.2333
23718W        W40192   5.006  14.320  12.695  0.0358 -0.0744  0.3154
23719W        W40193  16.654  11.938   0.122 -0.0457 -0.0103 -0.4784
23720W        W40194   3.732   8.270   5.440  0.0932 -0.1957  0.0136
23721W        W40195  12.457   2.265   2.432  0.1419  0.2670  0.2397
23722W        W40196   1.775  14.162  11.834 -0.2123  0.0964  0.0440
23723W        W40197  17.447   0.514  16.230 -0.1586 -0.2355  0.0493
23724W        W40198  10.202   2.046   3.942 -0.0355 -0.1567 -0.2620
23725W        W40199   8.217  14.392  15.795 -0.2104 -0.0413  0.3307
23726W        W40200   7.798   3.850  13.498 -0.1220  0.0154 -0.1930
23727W        W40201   2.171   6.801   2.501  0.2568 -0.2733  0.2566
23728W        W40202  16.188   4.113  16.121 -0.1209  0.1385 -0.0096
23729W        W40203   0.797   2.745  12.092  0.0264  0.0746 -0.1030
23730W        W40204   3.654  11.971   3.248  0.2064 -0.0584 -0.2630
23731W        W40205   2.771   2.601   5.771  0.1134  0.2177  0.3355
23732W        W40206  13.901  12.874   5.621 -0.3455  0.2283 -0.0896
23733W        W40207   5.303  12.911   0.159 -0.1971  0.2998  0.0942
23734W        W40208   4.907   4.544  13.648  0.3815  0.2319  0.0198
23735W        W40209  13.885  15.415   4.579 -0.0665  0.2270  0.0630
23736W        W40210  17.658  10.031   0.724  0.0796  0.1566  0.1751
23737W        W40211   4.367   8.686   4.397  0.0275 -0.2235  0.0947
23738W        W40212   4.969   2.502   2.138 -0.2075 -0.0887 -0.1913
23739W        W40213   1.773  15.503  11.529  0.0836 -0.3041  0.2477
23740W        W40214   7.358  14.294  14.621 -0.1728 -0.0947  0.0114
23741W        W40215  13.361   8.073   6.175 -0.0201  0.2222  0.3198
23742W        W40216   5.711  15.037   1.802 -0.1314 -0.1814 -0.3312
23743W        W40217  16.058   2.948  13.148 -0.3122 -0.1621  0.0512
23744W        W40218   1.774  13.231   4.748 -0.1249  0.1734 -0.0456
23745W        W40219  11.142   0.433   1.367 -0.1855  0.0383  0.0237
23746W        W40220  13.941   0.079  16.058 -0.1921 -0.1930 -0.1036
23747W        W40221   8.835  12.680   1.820  0.0209 -0.0607 -0.1425
23748W        W40222   1.796   2.633   1.748 -0.0024  0.2238 -0.0727
23749W        W40223   7.370  13.768  12.118  0.1614 -0.0996  0.0665
23750W        W40224   9.123  14.329   4.337  0.1258  0.2494  0.0397
23751W        W40225  14.315  17.528   1.870 -0.1489  0.0607  0.0561
23752W        W40226   0.792  11.094   0.307 -0.4012 -0.0960 -0.4500
23753W        W40227   8.626  14.196   5.964  0.0733 -0.0290  0.0290
23754W        W40228  13.302   7.702  14.474  0.0912 -0.1923  0.0530
23755W        W40229   2.410   6.874   0.218 -0.0555  0.1785 -0.1322
23756W        W40230  15.901   1.851  16.077 -0.2868 -0.1027 -0.1064
23757W        W40231   6.150  12.298  16.175 -0.0843 -0.0661  0.0022
23758W        W40232   9.548   2.423   1.244 -0.0361 -0.3051  0.0024
23759W        W40233  12.371   9.747   2.422  0.1066  0.2100 -0.0553
23760W        W40234  13.635   0.228   1.196 -0.0598 -0.0700 -0.1039
23761W        W40235   8.098  16.581   2.415 -0.2002 -0.3045  0.0396
23762W        W40236  17.631  14.045  14.680  0.2248  0.2531 -0.0215
23763W        W40237  16.717  17.064   1.260  0.4013 -0.0076 -0.3188
23764W        W40238  17.026  14.693  13.457 -0.2667 -0.1848  0.1359
23765W        W40239  12.839  15.716   1.006 -0.0310  0.2205 -0.0402
23766W        W40240   7.755  14.227   5.931 -0.0226  0.0018  0.0781
23767W        W40241   7.336  14.828  15.661 -0.3005  0.0480  0.0178
23768W        W40242   7.527  12.730   3.959  0.0082  0.6350 -0.1938
23769W        W40243  17.571  11.828   3.433  0.2118 -0.0302  0.0023
23770W        W40244   0.825  13.764   3.279 -0.1643 -0.0325 -0.1628
23771W        W40245   2.135   4.839   0.342  0.0335 -0.0365 -0.0327
23772W        W40246   4.631  12.148  13.908  0.1626  0.2731 -0.2054
23773W        W40247  11.975  16.557  13.722 -0.1702  0.0309 -0.0502
23774W        W40248  16.632  17.784  15.993 -0.2749  0.1397  0.0551
23775W        W40249   4.340   0.855  12.135 -0.2182  0.0819 -0.1627
23776W        W40250   1.740  13.356  11.681 -0.2615  0.1390 -0.1570
23777W        W40251  11.775  14.108   0.515  0.1927 -0.2633  0.4024
23778W        W40252   3.360   1.571   2.993  0.1532 -0.0987 -0.1477
23779W        W40253  12.681   1.055  12.038 -0.2396 -0.1821  0.2267
23780W        W40254   9.926   0.000  13.246  0.1731  0.2772 -0.1344
23781W        W40255   7.420   4.854  16.356 -0.2667 -0.0051  0.0241
23782W        W40256   4.995  15.759  13.568 -0.4095  0.3756  0.1728
23783W        W40257   6.465  12.792   2.374 -0.0646 -0.1536 -0.2668
23784W        W40258   1.902   0.881  16.533 -0.0008 -0.0712  0.0048
23785W        W40259  10.966  13.768   5.407  0.1970  0.2875  0.3184
23786W        W40260  17.347  12.410   0.475 -0.2681 -0.0188  0.1987
23787W        W40261   5.892  15.423   4.471 -0.0272 -0.1881  0.4276
23788W        W40262   7.064   2.118  16.152 -0.1717  0.0730  0.1148
23789W        W40263  10.284   4.413   0.167  0.1564  0.1255  0.1242
23790W        W40264   6.896   9.687  13.565  0.1615  0.0962 -0.1757
23791W        W40265  16.966   9.343  12.649  0.2798 -0.1617  0.5201
23792W        W40266  11.168   7.137   3.691  0.0338  0.2877  0.2999
23793W        W40267  10.152  14.581  15.477  0.0569 -0.1276  0.0111
23794W        W40268   6.553  17.335   4.637  0.1490 -0.0981 -0.2151
23795W        W40269   5.826  15.261  14.508 -0.1360  0.2191  0.1280
23796W        W40270  12.692   3.860   3.862 -0.0482 -0.0251  0.0164
23797W        W40271   5.469  15.707   5.588 -0.1454  0.1058  0.2352
23798W        W40272  14.138  17.145  14.713 -0.0161 -0.3999 -0.3317
23799W        W40273   9.514   8.660   4.309 -0.2924 -0.0715 -0.0318
23800W        W40274  11.448   2.721   2.996  0.0279  0.0923  0.2110
23801W        W40275   4.372  16.110  15.499  0.0732 -0.0964 -0.1502
23802W        W40276  12.956   1.057   2.731 -0.2105 -0.1254 -0.1982
23803W        W40277  12.469   4.058  15.741 -0.0205 -0.3079 -0.0445
23804W        W40278   7.278   6.979  14.050 -0.2848 -0.1009  0.1120
23805W        W40279   6.817   3.696  14.988 -0.4621 -0.0755 -0.0639
23806W        W40280  12.289  13.753   2.599 -0.1003  0.3734  0.1808
23807W        W40281  14.625   2.802   3.117 -0.0166 -0.2350 -0.1499
23808W        W40282   8.931   9.623   1.301 -0.2991  0.0407  0.0473
23809W        W40283  13.333   5.842   3.604 -0.0829 -0.0806 -0.2764
23810W        W40284  13.360   1.165   1.423 -0.1640  0.2793  0.0839
23811W        W40285   5.171   3.835   4.271  0.1166  0.0210 -0.0296
23812W        W40286  16.338  10.699  11.905  0.1011  0.1644 -0.0605
23813W        W40287  15.977  15.921  14.789  0.1351 -0.2009 -0.2098
23814W        W40288  16.442   7.534   3.316 -0.1410  0.1156  0.2315
23815W        W40289  12.806   8.650   5.379  0.0192 -0.0903 -0.2675
23816W        W40290   5.094  16.169  12.763  0.1865 -0.0059  0.0617
23817W        W40291  10.192   7.544  16.770 -0.1635  0.2139  0.2596
23818W        W40292   9.185  12.494   3.088 -0.1105 -0.2785 -0.2239
23819W        W40293   5.279   2.742   1.837  0.1204 -0.0774 -0.0964
23820W        W40294   0.974   8.557  12.012 -0.1832  0.0621  0.1304
23821W        W40295  16.142   2.864   4.683 -0.2213 -0.0349 -0.1387
23822W        W40296   8.258  10.640   0.458 -0.0361 -0.0691 -0.4318
23823W        W40297   6.689  11.385  12.967 -0.0034  0.1187 -0.0827
23824W        W40298   9.203   1.184  15.784  0.2845 -0.0062 -0.1762
23825W        W40299  13.235  13.901   0.066 -0.2218 -0.3107  0.0914
23826W        W40300   3.682   4.364  15.466 -0.4387  0.3048  0.4026
23827W        W40301  17.011  14.601  15.090 -0.0657  0.0295  0.4772
23828W        W40302   9.310  15.739  15.608  0.3552 -0.2492  0.1497
23829W        W40303   4.993  10.535   5.155  0.1602 -0.0131 -0.1507
23830W        W40304  11.025  16.568  13.334 -0.1494 -0.2284 -0.3589
23831W        W40305  12.625   7.119  14.861  0.0326 -0.0170 -0.0367
23832W        W40306   6.130   2.500  12.243  0.0158  0.0127 -0.1170
23833W        W40307  14.504   8.418   1.248 -0.1637 -0.2739 -0.0447
23834W        W40308  14.639  11.499   4.498 -0.1582 -0.1901  0.3091
23835W        W40309   3.734   0.546  12.842  0.0221  0.2129  0.1498
23836W        W40310   1.355  15.203  15.849  0.1159 -0.1927 -0.0199
23837W        W40311   7.542   2.395   4.288  0.2990  0.2373 -0.1812
23838W        W40312   2.991  15.438   3.549  0.0827  0.3396 -0.3122
23839W        W40313   6.043   0.964  15.058  0.1657 -0.1516  0.2372
23840W        W40314   8.131   3.555  16.350 -0.0623 -0.2738  0.0472
23841W        W40315   8.788  12.850   2.380 -0.0158  0.3159  0.1479
23842W        W40316   4.652  10.934   0.676 -0.2473 -0.1295 -0.1312
23843W        W40317   7.450  11.706  15.839  0.1933 -0.2160  0.0581
23844W        W40318  11.399  16.525   5.189  0.3280  0.0705 -0.1001
23845W        W40319  11.003   8.029   1.962 -0.2647  0.3729  0.2748
23846W        W40320  17.085   6.526  12.706 -0.0916  0.0233  0.2102
23847W        W40321   7.553   3.459  12.741 -0.1316  0.2101  0.0664
23848W        W40322   5.956   0.318   0.813 -0.2039 -0.1792 -0.0205
23849W        W40323   7.409   9.909   5.170  0.1752  0.2709  0.1237
23850W        W40324  12.318  14.411  13.055 -0.1699 -0.1863 -0.0637
23851W        W40325  11.848  11.714  12.538 -0.3266 -0.3241 -0.0452
23852W        W40326   8.504  10.118   3.831  0.1630 -0.0204 -0.2443
23853W        W40327  14.187   3.705   3.133  0.0491  0.0041  0.2314
23854W        W40328   2.542   5.701   2.707 -0.0031 -0.3608 -0.0891
23855W        W40329  15.312   6.981  15.307  0.3687  0.0073 -0.0006
23856W        W40330   5.432   2.008  16.869 -0.2065 -0.1569 -0.1921
23857W        W40331   0.014   7.178  15.809 -0.3637 -0.1893  0.1096
23858W        W40332  16.405   0.005  12.850 -0.1254  0.0107 -0.1526
23859W        W40333   1.520  15.398   6.226 -0.3488 -0.0966  0.4159
23860W        W40334   9.145   3.577   6.622  0.0428 -0.3967 -0.1362
23861W        W40335   3.210   0.323   1.125  0.0243  0.1234  0.0109
23862W        W40336  12.960  10.559  16.177 -0.1787 -0.0659 -0.0156
23863W        W40337   1.376   5.664  16.285 -0.1582  0.1263  0.0890
23864W        W40338  11.170  17.239  11.150 -0.1192 -0.3987 -0.1620
23865W        W40339   0.416  15.667   3.708 -0.0668  0.0558 -0.0307
23866W        W40340   9.629  16.691   1.265  0.2810 -0.0300  0.2225
23867W        W40341   0.047   1.026  12.241 -0.1910  0.0082 -0.0225
23868W        W40342   8.072   3.153   1.336  0.0185  0.0420  0.1990
23869W        W40343  10.187   0.078   2.854 -0.1281  0.3098 -0.1071
23870W        W40344  15.353  17.801  14.681  0.1983  0.1590 -0.0694
23871W        W40345  10.536  17.757  13.177 -0.0466 -0.1955 -0.1538
23872W        W40346  16.343   9.614   0.128 -0.3052  0.0437  0.0382
23873W        W40347  10.088   5.416  15.665  0.1378  0.0675  0.1903
23874W        W40348  14.641   8.377  13.354  0.0648  0.0899  0.0931
23875W        W40349   2.164   6.361   3.503  0.1497 -0.4470 -0.0559
23876W        W40350  14.300   8.026   2.455 -0.0583 -0.1053 -0.1160
23877W        W40351  10.519  12.095   3.162  0.1721  0.3043 -0.3393
23878W        W40352  10.720  16.162  13.160  0.2111 -0.3190  0.3582
23879W        W40353  14.795  17.491  16.094 -0.3017  0.0412  0.0438
23880W        W40354   8.073   0.046  16.740 -0.3218  0.1936  0.0082
23881W        W40355  17.302  11.633   5.286  0.2064 -0.1857 -0.0754
23882W        W40356   2.129  12.320  11.430 -0.0780 -0.1066 -0.0940
23883W        W40357  11.088  13.549  13.916  0.3987 -0.1297 -0.0025
23884W        W40358  10.939  10.226   5.297  0.1240  0.1849 -0.2106
23885W        W40359   6.927  16.013   2.134  0.2139  0.0977 -0.1893
23886W        W40360   7.346  11.987  11.837 -0.0649 -0.1166 -0.0554
23887W        W40361  10.548   5.142   3.078  0.1538 -0.0434 -0.4079
23888W        W40362   0.454  17.666   6.144 -0.1352  0.1882  0.0713
23889W        W40363   7.664   5.926   4.053  0.3294  0.0780  0.0648
23890W        W40364  12.422  10.740  13.149  0.1392 -0.1327 -0.0696
23891W        W40365  13.043   6.215   2.834  0.0335 -0.1304 -0.3820
23892W        W40366  13.823  10.817   0.127 -0.1754 -0.2820  0.0267
23893W        W40367   1.755  11.027  13.911 -0.2610 -0.1091  0.3397
23894W        W40368  12.097   3.036   1.484 -0.0322 -0.0203 -0.0616
23895W        W40369   4.745   0.313   1.458  0.1225  0.1246  0.1052
23896W        W40370   2.383  16.497  15.584  0.1816  0.0019 -0.3462
23897W        W40371   6.771  12.630   0.365  0.3954  0.1237 -0.0665
23898W        W40372  13.983   2.369   0.871  0.0578 -0.1203  0.2799
23899W        W40373  14.063  10.535   1.208 -0.0851 -0.0569  0.2483
23900W        W40374  10.732   0.596   1.666  0.0126 -0.0048 -0.1851
23901W        W40375  14.526   4.817  11.843 -0.1437 -0.0509 -0.1143
23902W        W40376  11.183  13.758  12.688  0.1127 -0.1504 -0.0942
23903W        W40377  14.196   9.386  16.003  0.2167 -0.0910  0.3219
23904W        W40378   9.948  16.836  16.896  0.1424  0.0715 -0.1443
23905W        W40379   8.616  11.438   1.052 -0.0933  0.1683 -0.1065
23906W        W40380   1.882   9.045   2.841  0.2819  0.1582 -0.0360
23907W        W40381  13.063   8.493  12.150 -0.0751  0.3488  0.1520
23908W        W40382   6.428   4.059   0.520 -0.1113 -0.1700  0.0011
23909W        W40383   5.968   9.810  16.928  0.0198  0.0096 -0.0081
23910W        W40384   9.488  10.074   0.147 -0.0320 -0.2539 -0.0709
23911W        W40385   6.427  15.954  15.475  0.2765 -0.1858 -0.0167
23912W        W40386  10.388   2.310  15.091  0.2159 -0.0487 -0.0626
23913W        W40387   7.089   3.917   2.082 -0.0118  0.0104  0.1407
23914W        W40388  11.214  16.346  11.747 -0.1699  0.4207  0.1138
23915W        W40389   0.730   3.231  11.960 -0.0373 -0.2941  0.2661
23916W        W40390   6.851  13.845   3.256  0.0453 -0.0347  0.2014
23917W        W40391   0.630   9.877  14.300 -0.1256  0.1072 -0.0923
23918W        W40392   5.759   1.134   0.939 -0.3685 -0.0259 -0.0979
23919W        W40393  14.062  11.087  16.627  0.2555 -0.0025 -0.1530
23920W        W40394   8.545  11.650  14.893 -0.2575 -0.1781 -0.0522
23921W        W40395  11.883   4.069  16.752  0.0251  0.0958  0.2874
23922W        W40396   2.711  11.497   1.784  0.1780 -0.1044 -0.2703
23923W        W40397   8.313  14.496   2.207  0.2295 -0.1766  0.0485
23924W        W40398  16.615   1.251  16.433 -0.0044 -0.0522  0.2113
23925W        W40399   1.939   7.619   5.388  0.0197  0.0817  0.1198
23926W        W40400   1.606   0.524   1.496 -0.1783 -0.1094  0.1005
23927W        W40401   1.947   6.934   2.029 -0.0047  0.0757  0.0629
23928W        W40402   6.826  10.123   3.380  0.0471  0.1201  0.3160
23929W        W40403   3.571   0.707   4.366 -0.0647 -0.0384  0.0418
23930W        W40404   6.281  10.189  15.608  0.1451 -0.1726 -0.0725
23931W        W40405   2.207   8.587   2.876  0.0328 -0.0753  0.1120
23932W        W40406   6.934   7.722  14.645 -0.0725 -0.1983 -0.2429
23933W        W40407   4.037  13.714   3.766 -0.2188 -0.0673 -0.0621
23934W        W40408  13.605  17.022   3.212 -0.0384  0.1705 -0.1497
23935W        W40409   2.037   7.362   1.178 -0.1193  0.0194 -0.0040
23936W        W40410   8.630   0.445  14.058 -0.0325 -0.0958 -0.0657
23937W        W40411   9.082   4.055   4.618 -0.0083 -0.3146  0.0719
23938W        W40412   2.596   4.117  16.156  0.1092 -0.2187  0.1611
23939W        W40413  10.242   8.969  16.760  0.0378  0.1041  0.1034
23940W        W40414  13.954  14.475  12.350 -0.0413 -0.1168  0.2344
23941W        W40415   9.831   9.582  15.595  0.1305  0.0115 -0.2726
23942W        W40416   0.559   4.902  12.691  0.1243  0.1352 -0.2068
23943W        W40417  12.473   6.148  13.821 -0.1246 -0.0949  0.0639
23944W        W40418   0.750   8.073  16.383  0.0901 -0.0379  0.0463
23945W        W40419   3.102  13.126  12.503 -0.0670 -0.1502  0.0217
23946W        W40420  15.811   6.720   1.424 -0.1051 -0.0586  0.1208
23947W        W40421   3.832   4.467  13.310 -0.0127  0.2027  0.1219
23948W        W40422  10.387  10.302   0.024 -0.3297  0.0410  0.0441
23949W        W40423   9.610  17.421  15.686  0.0539  0.0462  0.1386
23950W        W40424  15.400   6.174   5.931 -0.1454 -0.0507  0.0723
23951W        W40425  13.718   8.957   1.717 -0.1270 -0.0519  0.2662
23952W        W40426   3.449   7.665   3.767  0.0726 -0.3088 -0.1260
23953W        W40427   3.479   8.232   1.525 -0.0796  0.1186 -0.1210
23954W        W40428   9.440   7.405  14.924 -0.1118 -0.0978  0.0426
23955W        W40429   7.229  12.537   3.538  0.1450  0.1507  0.0092
23956W        W40430   6.068  12.004  13.711  0.0131 -0.0032  0.0282
23957W        W40431  16.614   7.393   0.057 -0.2777  0.2967 -0.3218
23958W        W40432  16.169  16.677   3.433 -0.1358 -0.1096 -0.1313
23959W        W40433  15.639   1.317  14.000 -0.0547  0.1807  0.1294
23960W        W40434   0.981   8.427  16.169 -0.0236 -0.0243 -0.0362
23961W        W40435   9.807   7.825  16.570  0.1542  0.1254  0.0281
23962W        W40436   7.795   7.704   5.558 -0.1344  0.0166  0.1047
23963W        W40437   9.774  14.570   3.554 -0.0229 -0.0172  0.3229
23964W        W40438  15.130   8.796  10.833  0.0123 -0.0642  0.1104
23965W        W40439   4.783   7.478   5.532  0.0683 -0.1135  0.3658
23966W        W40440   8.173   5.989   1.836 -0.1346 -0.1983  0.0166
23967W        W40441   7.348  13.550   3.325 -0.4107  0.1151 -0.2540
23968W        W40442   9.872   2.766   2.743  0.1825 -0.1983 -0.0889
23969W        W40443  17.703  16.699   5.513 -0.0648  0.0855 -0.0778
23970W        W40444   1.526  17.522  14.075  0.1932  0.3472 -0.0811
23971W        W40445   9.808  16.345  10.478  0.1434  0.5376 -0.0839
23972W        W40446   9.510   5.848  12.697 -0.2131 -0.1757 -0.0115
23973W        W40447   8.796  12.113  12.688 -0.1338  0.0488 -0.0144
23974W        W40448   7.334  13.671   4.834 -0.2687 -0.0236 -0.1720
23975W        W40449   7.881   2.455  16.541 -0.0083  0.1600 -0.2939
23976W        W40450  12.314   9.736   5.323  0.2579  0.0617  0.1589
23977W        W40451  15.200   3.313  14.426  0.0391 -0.2110  0.0206
23978W        W40452   4.608   7.883   0.504 -0.1626 -0.2716  0.0329
23979W        W40453   4.313   7.037  16.905 -0.1887 -0.0401  0.1926
23980W        W40454   6.432  16.387   1.271 -0.2363 -0.0458  0.1597
23981W        W40455   2.391   7.031   5.848 -0.1085  0.1310  0.2422
23982W        W40456   1.611  12.551   3.259 -0.0231 -0.0804  0.0036
23983W        W40457  10.052   9.885  14.018 -0.1425  0.3076  0.1051
23984W        W40458  11.483  11.870   3.512  0.1219  0.4165 -0.1585
23985W        W40459   1.490   5.798  12.939  0.1781 -0.0309 -0.0554
23986W        W40460  17.354  12.240  12.367  0.2372  0.0955  0.0694
23987W        W40461   1.920   6.138  14.006  0.1642 -0.3033 -0.0555
23988W        W40462  16.642   6.419   5.198  0.0324 -0.1436  0.0566
23989W        W40463  17.730   2.439  16.065 -0.1693  0.2279 -0.2994
23990W        W40464  13.657   8.304  15.171  0.1133  0.2163 -0.3315
23991W        W40465   5.102  15.734   1.613  0.1650 -0.0449  0.4256
23992W        W40466  12.027   9.699   4.487 -0.0998 -0.1826  0.1126
23993W        W40467   5.728   8.336  16.823 -0.1821  0.2801 -0.0547
23994W        W40468  14.352  17.442  12.482  0.1102 -0.0485 -0.0565
23995W        W40469  10.516   0.855   4.269 -0.0345 -0.0919 -0.2543
23996W        W40470   1.710  10.203   0.672  0.0510  0.2512  0.0178
23997W        W40471  15.603  16.504  14.042 -0.1110 -0.2196 -0.0346
23998W        W40472  17.390  10.176  14.469 -0.0377 -0.0979 -0.0245
23999W        W40473  10.450   2.394   0.119  0.2135 -0.0466  0.3721
24000W        W40474   1.390   0.908   3.507  0.2587 -0.1308 -0.0403
24001W        W40475  15.750  11.844   0.393 -0.0765  0.0439  0.0592
24002W        W40476  11.214   3.982  13.917  0.4228  0.0841 -0.0043
24003W        W40477   2.860   4.004  12.850  0.1081  0.0215  0.0377
24004W        W40478   7.158   8.555  16.687 -0.0374  0.0689  0.0800
24005W        W40479   8.480   9.381  11.580 -0.0391 -0.0373 -0.2983
24006W        W40480  14.245   8.171  13.059 -0.2341  0.2374 -0.0672
24007W        W40481  13.175  10.503   0.849  0.3750 -0.1466 -0.0192
24008W        W40482  14.644   8.401  14.517 -0.2548 -0.0517 -0.4360
24009W        W40483  11.202   3.109   4.266  0.0777 -0.1534 -0.4068
24010W        W40484  15.327   2.056   0.778  0.0671  0.1214  0.0527
24011W        W40485  17.760   9.163  16.560  0.0195 -0.0904  0.0667
24012W        W40486   8.089   0.177   3.652  0.1051  0.1512 -0.0016
24013W        W40487   1.994   3.060   1.708  0.0810 -0.3241 -0.0888
24014W        W40488  10.563  11.467   3.809 -0.0617  0.0886  0.1579
24015W        W40489  17.597   8.297  16.532 -0.1566 -0.0953  0.3739
24016W        W40490   7.099   6.935   3.529 -0.1657 -0.1694 -0.1986
24017W        W40491  17.515  16.648   1.821 -0.0197  0.2287  0.1222
24018W        W40492   9.743  11.255   3.353  0.1363  0.1417  0.0427
24019W        W40493  12.770   1.828   2.119 -0.2050  0.1225  0.1189
24020W        W40494  12.939   3.576  13.307 -0.0382  0.2185 -0.1566
24021W        W40495   0.108   0.946  14.459  0.0156 -0.2081  0.0050
24022W        W40496   2.703   9.448   4.585  0.1682  0.1528 -0.1454
24023W        W40497  10.622  14.385  15.797  0.2803  0.0150  0.0416
24024W        W40498  10.348   4.371   4.617 -0.0806  0.1142 -0.2324
24025W        W40499   3.633  10.973   4.082  0.1050 -0.0131  0.4688
24026W        W40500   3.085  10.627  13.536  0.2722  0.0529 -0.0608
24027W        W40501  10.342   9.340   0.759  0.0201  0.1172  0.3106
24028W        W40502   8.762  11.706  14.382  0.0655 -0.0410 -0.0908
24029W        W40503   0.697  15.234   1.040  0.4810  0.3117 -0.1787
24030W        W40504   8.005  13.327  11.767 -0.2455  0.0493 -0.0211
24031W        W40505   0.354  16.510   0.855 -0.1549 -0.0727 -0.1151
24032W        W40506  11.366  17.234   1.346 -0.1051 -0.1540 -0.1737
24033W        W40507   4.249   4.626   0.805  0.1174 -0.1674  0.0686
24034W        W40508   1.027   8.977   5.538  0.1284  0.0689  0.2172
24035W        W40509   3.026   6.820   5.127  0.1706  0.0285 -0.1613
24036W        W40510  17.267  12.032  15.051  0.1167  0.1269  0.1456
24037W        W40511   0.811   3.272  16.655  0.2182  0.1857 -0.0191
24038W        W40512   4.249   9.372  16.474  0.1430  0.0950  0.6379
24039W        W40513   0.268   5.405   4.161  0.1400  0.3006 -0.1392
24040W        W40514   7.396   2.023  11.612  0.1563  0.0344  0.1223
24041W        W40515  15.200  16.274   2.159  0.2134  0.0210 -0.0460
24042W        W40516   0.227  10.081   4.752 -0.0133  0.0157 -0.1169
24043W        W40517   0.436   3.383  12.417 -0.0872 -0.0521  0.2694
24044W        W40518   9.249   7.591   0.473 -0.0873 -0.4805  0.2238
24045W        W40519  15.822   6.971  15.204  0.0230 -0.0830 -0.1060
24046W        W40520   0.618  10.870  12.442 -0.3616 -0.0854  0.1730
24047W        W40521  17.349  10.067   4.994 -0.2820  0.0150  0.0620
24048W        W40522  14.681   1.763   0.216 -0.0716  0.4373 -0.0282
24049W        W40523   5.595   3.399  14.072  0.1943 -0.1094  0.2202
24050W        W40524   7.245   2.300   1.108  0.1384 -0.0047  0.2494
24051W        W40525  11.354   0.932   1.402  0.2191  0.0688  0.0554
24052W        W40526   2.961  15.831   1.331  0.1183 -0.2008  0.0906
24053W        W40527  12.566   7.392  15.996 -0.0299  0.0774  0.3696
24054W        W40528   2.272   8.936  14.302 -0.0768 -0.0166  0.1250
24055W        W40529  14.328  17.597  14.881  0.0496  0.4600  0.0690
24056W        W40530  17.714  15.031   1.655  0.0826  0.0133  0.1738
24057W        W40531   5.588   2.783   3.288  0.1495 -0.1095  0.3245
24058W        W40532  11.656   7.157   3.854  0.2134 -0.3895  0.0167
24059W        W40533   4.127  15.032   5.475 -0.1054 -0.2004  0.0020
24060W        W40534  10.128  10.344   3.684  0.0271 -0.0276  0.3290
24061W        W40535  12.273   1.457   5.291  0.0751  0.0829  0.0346
24062W        W40536   2.165   3.547   1.719  0.2456 -0.2581 -0.2378
24063W        W40537  16.004  14.911  14.700 -0.1725  0.4355  0.0648
24064W        W40538  14.800   4.545   4.939 -0.3218  0.0216 -0.0478
24065W        W40539  12.570  14.812   3.217 -0.2401 -0.4138  0.1492
24066W        W40540   1.823   7.865   2.510 -0.0283 -0.1828  0.1632
24067W        W40541  12.118   2.102  15.352  0.2119 -0.1441  0.0036
24068W        W40542  17.813  14.315   0.131  0.1490  0.4969 -0.0333
24069W        W40543   3.914  16.439   0.259 -0.2108 -0.0542  0.2013
24070W        W40544  12.870   4.397  13.632  0.1232 -0.0211 -0.2061
24071W        W40545  15.248   3.885  13.527  0.0546  0.3457  0.1418
24072W        W40546   0.844   6.880   1.281 -0.0242  0.1407  0.1576
24073W        W40547   8.679   0.548  15.178  0.0971  0.2632 -0.1423
24074W        W40548   2.326   0.802   0.978 -0.1368  0.0164  0.0169
24075W        W40549   6.042  15.809   1.809 -0.0401  0.1148 -0.0850
24076W        W40550   5.433   1.954   3.447 -0.1769 -0.0402  0.0302
24077W        W40551  17.431   9.077  16.228 -0.4464  0.0099  0.1102
24078W        W40552  16.659   2.949   6.214  0.1161  0.2526 -0.1469
24079W        W40553  11.268   7.230  13.565  0.1335 -0.3433  0.2119
24080W        W40554   1.740   6.086   1.991  0.0773 -0.0630  0.2062
24081W        W40555  16.227   9.461   1.649 -0.2682 -0.0274 -0.2224
24082W        W40556   5.408  14.794   2.543  0.0309  0.2918  0.0717
24083W        W40557  13.010   7.812   0.225  0.3120  0.3000  0.1910
24084W        W40558  14.825   5.905  15.505  0.2568 -0.1540 -0.0533
24085W        W40559  13.422  11.524   1.222  0.0445  0.0471  0.0889
24086W        W40560  10.212  17.785  13.659  0.5207  0.3978  0.2648
24087W        W40561   4.152   4.989  15.998 -0.2361 -0.0724 -0.1081
24088W        W40562   8.593  12.742  13.620  0.2251  0.0265  0.0472
24089W        W40563   3.232   3.417  14.557 -0.1359  0.0863 -0.0605
24090W        W40564  15.816  15.737  11.814 -0.0462 -0.2444  0.0304
24091W        W40565  11.817  14.261  14.093 -0.1025 -0.1776  0.3490
24092W        W40566  15.178  15.180  12.759 -0.0448 -0.1706  0.3804
24093W        W40567  13.644  16.291  15.166  0.0420 -0.2114 -0.1113
24094W        W40568  14.196  16.978  16.809  0.1308  0.0747 -0.0324
24095W        W40569  14.570   4.864  15.115 -0.0910 -0.0438  0.1745
24096W        W40570   2.064   6.165  13.507 -0.0562  0.0289 -0.1295
24097W        W40571   5.512   7.105  15.640  0.1892  0.1700 -0.0986
24098W        W40572  13.207  17.246   3.508 -0.0053  0.1292 -0.0419
24099W        W40573   8.122  16.278   0.994 -0.2288 -0.2699 -0.1803
24100W        W40574   8.636  17.113  13.382  0.0381 -0.1295 -0.2130
24101W        W40575  11.404   6.021  14.179  0.2096 -0.2631 -0.3781
24102W        W40576   7.446   5.330  14.438 -0.1503  0.0916  0.0275
24103W        W40577  12.918   0.704  13.456  0.0262 -0.0896  0.2194
24104W        W40578   9.913  14.749   2.547  0.1462 -0.3484  0.0614
24105W        W40579   5.629   3.667   2.056  0.1026 -0.0940 -0.2329
24106W        W40580   2.781  13.643   2.641  0.0181  0.0166 -0.0935
24107W        W40581   5.486  12.655   4.680 -0.2012 -0.1566  0.0403
24108W        W40582  14.602   6.028   0.807  0.0718 -0.0905  0.0267
24109W        W40583  12.508   3.044  14.528  0.0980  0.1256  0.0469
24110W        W40584   5.591   5.361  13.566 -0.2439  0.0502 -0.3649
24111W        W40585  12.381   6.869   2.413 -0.0889 -0.4310 -0.0913
24112W        W40586  11.380  17.702  15.266 -0.0315 -0.0586 -0.1964
24113W        W40587   2.405   9.582  11.009  0.2742  0.2659 -0.1900
24114W        W40588  15.087  14.025  15.219 -0.2609 -0.0065 -0.1062
24115W        W40589   0.186   6.884   3.357 -0.1286  0.2825  0.3243
24116W        W40590  14.073   9.909   1.892 -0.4733  0.1549 -0.0068
24117W        W40591   5.490   0.447  13.075  0.1037 -0.0418 -0.2820
24118W        W40592   7.332   6.280   4.906 -0.3526  0.1869 -0.1539
24119W        W40593   9.397  11.284   5.630 -0.1339 -0.3360  0.2162
24120W        W40594  13.491  11.802   4.743  0.5474  0.3256 -0.0761
24121W        W40595   3.052   4.877  14.581  0.1188  0.1967 -0.1926
24122W        W40596   1.725  15.804   3.867 -0.0483  0.0841 -0.1106
24123W        W40597   6.265  11.918  13.061 -0.1056 -0.0702  0.2479
24124W        W40598   9.288  14.225   2.231  0.1230 -0.0278  0.1050
24125W        W40599  15.947  17.716   0.858  0.0674 -0.0312  0.2639
24126W        W40600  16.871  15.470   3.965 -0.1009 -0.0511  0.0900
24127W        W40601  14.494  11.706   2.145  0.0497 -0.0192 -0.2364
24128W        W40602   1.996   2.552   4.939  0.0976  0.2563  0.1878
24129W        W40603  15.529  10.123   6.202  0.1122 -0.2842  0.0060
24130W        W40604  10.221   8.076  13.535  0.0002 -0.0180 -0.1781
24131W        W40605   2.379  10.932  15.212 -0.1895 -0.1940 -0.0629
24132W        W40606  15.923   0.974  16.330  0.0462  0.0732 -0.2561
24133W        W40607  17.102   8.024  14.595  0.0112 -0.1276  0.0183
24134W        W40608   9.112  15.062  14.866 -0.1372 -0.0306  0.0272
24135W        W40609   3.874  13.681  16.581  0.0407  0.0481 -0.0634
24136W        W40610   4.478   8.295   0.951 -0.1664  0.0402  0.0019
24137W        W40611   7.470   6.614   1.413  0.0039  0.2627  0.1656
24138W        W40612   4.826  16.186  13.708 -0.0679 -0.1169 -0.2780
24139W        W40613  16.074   8.174  11.923 -0.1879  0.1350 -0.0289
24140W        W40614   0.607   8.722   1.700 -0.1099 -0.0572  0.1347
24141W        W40615  14.115   0.194  12.845 -0.1256  0.2209 -0.0265
24142W        W40616  13.442  15.405   4.219 -0.1264 -0.0509  0.0614
24143W        W40617  17.547   4.917  16.426  0.2417 -0.1662  0.4814
24144W        W40618   0.642  11.094  13.585  0.0916 -0.2130 -0.1942
24145W        W40619   8.779  15.979  15.652  0.0425  0.0758  0.2498
24146W        W40620   1.391   5.637  11.877  0.0675  0.2015 -0.1443
24147W        W40621  16.085  15.535   4.646 -0.2926  0.0787  0.0966
24148W        W40622   2.966   7.578   5.669 -0.2652 -0.0234  0.0012
24149W        W40623   0.388   5.456   5.651 -0.0224 -0.2495 -0.0759
24150W        W40624  15.771   2.602   3.610  0.2270 -0.1600 -0.0292
24151W        W40625   6.278   4.184   0.966  0.0298 -0.1376  0.1644
24152W        W40626   9.837   5.848   1.179  0.0703 -0.0049 -0.1437
24153W        W40627   6.664   8.447  16.812 -0.2346 -0.1059 -0.1411
24154W        W40628   2.162  10.056   4.469  0.1570 -0.0544  0.1621
24155W        W40629   7.792   5.991   0.510 -0.1334  0.3097  0.1412
24156W        W40630   9.178   0.206   2.863  0.2581 -0.0079  0.1156
24157W        W40631   0.152  13.570  15.355 -0.0041 -0.1181  0.0104
24158W        W40632  12.454   5.389   2.924  0.1177 -0.0634  0.0639
24159W        W40633   7.559  15.555  16.106  0.0874 -0.1441  0.1345
24160W        W40634  15.868   9.427   0.194 -0.0488 -0.2003  0.0790
24161W        W40635  11.555   5.792   5.013 -0.3570  0.0145  0.0269
24162W        W40636  10.030  14.733   4.632 -0.1560 -0.2070 -0.2079
24163W        W40637   0.435  12.986   1.103 -0.1236 -0.2248  0.2504
24164W        W40638   1.076  16.105  16.822  0.1362 -0.0403  0.2954
24165W        W40639  15.079  15.256  14.729 -0.1529 -0.2342 -0.0034
24166W        W40640   5.254   8.294   3.986 -0.3194 -0.2892 -0.0778
24167W        W40641   4.127   3.157   4.863 -0.0334  0.0692  0.1026
24168W        W40642  10.320  17.259  13.179  0.1108 -0.2591 -0.0806
24169W        W40643  16.101  17.254  15.616  0.1447 -0.0183 -0.1501
24170W        W40644  15.941  10.862  16.868  0.1623 -0.0007  0.2848
24171W        W40645   0.142  12.439  16.300  0.3735 -0.1250  0.2033
24172W        W40646   5.816  15.935   3.537 -0.2386  0.0649 -0.0981
24173W        W40647  15.374  13.001  16.337 -0.2847 -0.0454  0.0432
24174W        W40648  15.663  15.241   4.346  0.3323 -0.4650  0.0167
24175W        W40649   3.974   8.547   3.695  0.1266 -0.1766  0.2940
24176W        W40650  13.050   1.273  12.919  0.0492 -0.3616 -0.3341
24177W        W40651  15.995  17.811   6.215  0.0056 -0.1185  0.0143
24178W        W40652   5.514   4.178   3.478  0.1348  0.1444  0.3677
24179W        W40653  15.007   9.637   0.596 -0.1773 -0.0388 -0.2334
24180W        W40654  17.533   8.246   0.140  0.0328  0.2111 -0.1779
24181W        W40655  10.764  10.567   0.716 -0.1095 -0.1438 -0.0715
24182W        W40656   5.987   3.423   1.785 -0.3288  0.0202 -0.1258
24183W        W40657   7.129   7.801  15.164 -0.1679  0.3350 -0.0422
24184W        W40658   8.396  12.187   2.974  0.2812 -0.3450  0.1707
24185W        W40659   3.516  16.716  13.200  0.0481 -0.0235  0.3172
24186W        W40660   9.488  10.988  14.609  0.0090  0.2051 -0.1127
24187W        W40661   9.264   3.522   3.733  0.4074 -0.1085 -0.0558
24188W        W40662  15.228  13.493  13.554 -0.1884  0.1449  0.2569
24189W        W40663  15.147   0.692  13.518 -0.1866  0.0071 -0.0917
24190W        W40664   4.579   1.566  15.080 -0.0233  0.6335 -0.2009
24191W        W40665  17.341  17.480  14.893 -0.1265  0.0774 -0.0773
24192W        W40666  16.683   3.627   0.028  0.2852  0.1361  0.1331
24193W        W40667   5.680   5.541   2.178  0.0436 -0.2559 -0.1290
24194W        W40668   9.453  11.419  16.176  0.2950  0.1907  0.2821
24195W        W40669   0.323   8.033  13.206  0.1760  0.0697  0.1419
24196W        W40670   4.171   1.896  13.115  0.1284  0.0312 -0.0564
24197W        W40671   7.741  12.282   0.972  0.0188 -0.3262  0.0982
24198W        W40672  17.280   8.583   3.378  0.0517  0.0817  0.2913
24199W        W40673   7.624   6.887   2.037 -0.4434 -0.3855  0.1955
24200W        W40674   0.673   9.889  16.892  0.1953 -0.0374 -0.0400
24201W        W40675   3.767  16.804  16.735  0.1232 -0.1398  0.1115
24202W        W40676   3.248   2.716  12.468 -0.1990 -0.0575 -0.0503
24203W        W40677   8.968   6.404  15.588  0.2294 -0.1589  0.1566
24204W        W40678   0.566  16.868   4.809  0.3168  0.2163 -0.0929
24205W        W40679   0.244  14.439   5.244 -0.4465 -0.1593  0.2415
24206W        W40680   2.398   9.435  11.900 -0.2291 -0.2420 -0.0422
24207W        W40681  15.721   2.509   5.805  0.2825 -0.1276 -0.1254
24208W        W40682   0.077  16.171  16.646 -0.1457  0.1602  0.0528
24209W        W40683   4.072   0.941  15.881 -0.0245 -0.3456  0.1543
24210W        W40684   3.168  16.266   3.328 -0.1844  0.1323 -0.0477
24211W        W40685  16.356   2.825   0.478 -0.1625  0.2290 -0.1275
24212W        W40686   3.417   9.711   3.512  0.2617 -0.3494 -0.4474
24213W        W40687   1.258  12.485  11.595  0.0762 -0.1252 -0.1676
24214W        W40688   9.024  11.852   6.423  0.0759  0.1225  0.1788
24215W        W40689   1.703  12.546   0.391 -0.0007  0.1171 -0.1769
24216W        W40690  11.376   2.818  16.127 -0.1092  0.2715 -0.2945
24217W        W40691  12.915   5.255   4.217 -0.0519 -0.1103 -0.4269
24218W        W40692  11.157   8.980  16.685 -0.0427  0.0048 -0.2271
24219W        W40693   7.465  10.599   1.638 -0.1915  0.2909  0.0206
24220W        W40694   9.692  16.139   5.730 -0.2024 -0.0449 -0.1352
24221W        W40695  16.013  15.641   3.907 -0.1111 -0.2328 -0.2983
24222W        W40696  13.345   1.067  13.662  0.0800 -0.1098 -0.0186
24223W        W40697  11.971   9.499  14.813  0.4293 -0.1230 -0.1849
24224W        W40698   3.976   7.464  16.196  0.5000  0.2444  0.0069
24225W        W40699  12.584   5.592   2.446  0.0443  0.0754  0.2759
24226W        W40700  11.374   3.064  12.043 -0.0451  0.1435  0.3398
24227W        W40701   1.131   9.544  13.419  0.4209  0.1195 -0.1706
24228W        W40702   8.581   8.991   2.086  0.2807  0.1418  0.0848
24229W        W40703   0.137   2.981  13.679  0.3024 -0.1008  0.1136
24230W        W40704  14.923  17.397   2.686 -0.0755  0.0581  0.0820
24231W        W40705   0.708   8.194   3.765 -0.0257 -0.0838 -0.1141
24232W        W40706  13.908   7.628  15.762  0.2238 -0.1798 -0.1369
24233W        W40707   9.499   4.061  12.188 -0.1999  0.0906  0.0826
24234W        W40708   8.131   5.560   4.893  0.0739  0.2611  0.3341
24235W        W40709  12.358   1.611   2.820  0.1121  0.2269  0.3076
24236W        W40710  12.454  15.145   1.620  0.0015  0.1961  0.2852
24237W        W40711   0.562   1.246  13.444  0.0095 -0.0515  0.1330
24238W        W40712  17.159  11.120   1.534  0.0624 -0.0540  0.0620
24239W        W40713  16.506   0.573   1.229 -0.0870  0.0684 -0.0158
24240W        W40714   0.092  16.923   0.377 -0.0257  0.1662 -0.2451
24241W        W40715  10.209   0.619  16.369  0.1029 -0.5170 -0.0779
24242W        W40716  13.038  16.910   0.122  0.0934 -0.1114  0.0172
24243W        W40717  10.970  11.689   2.392 -0.1111  0.1000  0.1463
24244W        W40718   0.179   2.099  16.313  0.1828  0.1065 -0.0562
24245W        W40719   7.802  10.563   5.448  0.0326 -0.0522 -0.1819
24246W        W40720   9.293   6.890   2.637 -0.0745 -0.0483  0.1068
24247W        W40721  11.955   4.767   5.756  0.2665  0.0899 -0.0272
24248W        W40722   8.200   2.527   3.593 -0.2738 -0.2368 -0.3009
24249W        W40723  17.387  10.113  13.949  0.0025 -0.1463 -0.2950
24250W        W40724  10.902  14.628   0.815 -0.0227 -0.2288 -0.0002
24251W        W40725  12.580  16.206  16.166  0.2003  0.5877 -0.4178
24252W        W40726   4.354  12.832  10.152  0.3028  0.1417 -0.0991
24253W        W40727  17.716   4.401  16.583  0.0756 -0.0713  0.3064
24254W        W40728   3.491  14.707  11.983  0.1028  0.0650  0.0906
24255W        W40729  10.649  15.345   3.437 -0.0931  0.1513 -0.0475
24256W        W40730   7.305   1.475   3.961 -0.2478  0.0570  0.3771
24257W        W40731   9.421   7.390   4.792  0.0938  0.2254  0.0860
24258W        W40732   4.212   2.204   0.083  0.0129  0.0255 -0.3531
24259W        W40733  14.086  10.984   1.594 -0.2043  0.2203  0.1972
24260W        W40734   9.920  16.963   3.257 -0.0564  0.1000 -0.1519
24261W        W40735   5.996   1.379   3.629 -0.0147  0.2279  0.0490
24262W        W40736   2.529  11.532   3.561 -0.0281 -0.1415 -0.3819
24263W        W40737  15.465   6.304  12.438  0.1165  0.2627  0.1312
24264W        W40738   5.334  11.707  14.400  0.0021  0.2131  0.0358
24265W        W40739   1.695   8.788   3.933  0.2780 -0.1933 -0.1150
24266W        W40740   0.824   8.995   3.086  0.1526 -0.2635  0.1753
24267W        W40741   6.826  15.122  14.441 -0.2628  0.1804 -0.0854
24268W        W40742   2.035   9.908  11.303  0.0677 -0.1075 -0.0703
24269W        W40743  13.878   2.128  15.862 -0.2127  0.1788  0.2164
24270W        W40744   4.283   6.671  15.219 -0.0929 -0.3620 -0.0755
24271W        W40745  12.910  14.995  13.596  0.0081 -0.0655  0.0845
24272W        W40746   6.072   8.468   3.541  0.1024 -0.0125 -0.0157
24273W        W40747  14.967   5.316   1.884 -0.0698 -0.2629 -0.5334
24274W        W40748   6.181  10.555   1.801  0.0224  0.0225  0.1093
24275W        W40749   7.214   7.413   5.336  0.0359 -0.1092 -0.0647
24276W        W40750   1.352   9.070  11.350  0.1663  0.1162 -0.0071
24277W        W40751   9.998  10.934   2.405 -0.0118 -0.2616 -0.3080
24278W        W40752   3.642   9.584  11.388 -0.2050  0.1650  0.1108
24279W        W40753  17.367   7.167  15.501 -0.1253  0.0954 -0.1451
24280W        W40754   0.841   3.664  13.647  0.0092 -0.2001  0.0671
24281W        W40755  17.827  12.691  16.714 -0.1761  0.0507 -0.1542
24282W        W40756   1.933   5.781   5.148  0.0966  0.0525 -0.2165
24283W        W40757   9.859   5.369   3.714 -0.2022 -0.4774 -0.2493
24284W        W40758  11.855   7.865  15.507 -0.0437 -0.3459 -0.2288
24285W        W40759  17.091  12.961  13.792  0.0540 -0.0147  0.0567
24286W        W40760  17.170  10.778   2.399  0.1653 -0.0875 -0.1484
24287W        W40761   2.566   4.651   5.507  0.0284 -0.1314  0.0357
24288W        W40762   7.041   1.254   2.388  0.2477  0.2849  0.1346
24289W        W40763  10.856  16.665  15.968 -0.2971 -0.1801  0.1788
24290W        W40764   0.725  17.226  14.385 -0.1724 -0.0816 -0.1361
24291W        W40765  13.643  12.716   0.594 -0.1514  0.3471 -0.0028
24292W        W40766  15.845   9.524  11.534 -0.3026 -0.1917 -0.2297
24293W        W40767   6.801   3.410   5.550  0.1910  0.1025 -0.1386
24294W        W40768   6.593   7.134   0.612 -0.0805 -0.1972 -0.1368
24295W        W40769   9.053  12.497  15.917 -0.3510  0.2668  0.0407
24296W        W40770  15.536  11.449   3.266  0.2161  0.0429  0.1368
24297W        W40771  13.226   2.615  16.728  0.3296  0.0728 -0.1146
24298W        W40772   8.231   0.494  14.516  0.0374  0.1607 -0.0778
24299W        W40773  16.375  15.888   4.985  0.1236  0.0725 -0.3031
24300W        W40774   5.306  12.030  16.888 -0.2218  0.0220 -0.0026
24301W        W40775   0.303   4.998   5.292 -0.0001 -0.0870  0.0246
24302W        W40776   9.371   6.047   1.364  0.1058 -0.2591 -0.0878
24303W        W40777  10.860  16.856   3.564  0.5048  0.0056  0.0590
24304W        W40778   0.039   6.699   2.910  0.3627  0.2302  0.1843
24305W        W40779  15.203   6.953   1.166  0.1452  0.2826  0.0922
24306W        W40780   7.129  15.328  16.385 -0.0366  0.4740 -0.3163
24307W        W40781   9.455   9.953  15.661  0.0462 -0.0007  0.1988
24308W        W40782   2.442   7.245   2.738 -0.3119 -0.1250  0.1712
24309W        W40783   8.882   8.075   0.625  0.0530  0.1177  0.1553
24310W        W40784   6.144  16.488   4.690  0.0383 -0.2689  0.0693
24311W        W40785   9.563  17.570  14.640 -0.1850 -0.0087  0.3592
24312W        W40786   1.109   3.597  13.171 -0.2217  0.0916 -0.0669
24313W        W40787   0.630   0.593   1.504 -0.1694 -0.4456 -0.0732
24314W        W40788   7.001  10.792  16.016  0.1462 -0.1150  0.3433
24315W        W40789   1.192   5.390  12.606  0.3263  0.0822  0.0527
24316W        W40790  14.042  10.730   4.449 -0.1619  0.0665 -0.3031
24317W        W40791   8.198   6.804   2.727  0.0827 -0.0699  0.0306
24318W        W40792  11.779   8.228   4.024  0.2591 -0.1268  0.0353
24319W        W40793   2.715  11.078  11.440  0.1595 -0.0101  0.0975
24320W        W40794   4.856  11.191  13.160 -0.1350  0.0406  0.0605
24321W        W40795   0.532  10.740  15.332  0.1649  0.2109  0.1165
24322W        W40796   4.890   8.762   4.331  0.1796 -0.3572 -0.1010
24323W        W40797   1.444   2.972   5.977 -0.2800  0.0434  0.1229
24324W        W40798   7.180   5.429  13.231 -0.2228  0.0800  0.0894
24325W        W40799   5.376   5.150  14.021 -0.0654 -0.1825  0.1572
24326W        W40800  15.026   3.155   3.196  0.0454  0.0460  0.0280
24327W        W40801   0.430   9.437  15.753  0.1534 -0.0130  0.0414
24328W        W40802  14.149   0.459  13.265  0.1954 -0.1591 -0.0569
24329W        W40803  10.041   0.940   3.226 -0.1998 -0.2175  0.1254
24330W        W40804   7.911   6.910  14.978  0.1078  0.1179  0.0491
24331W        W40805  14.331  16.724  15.393 -0.3789 -0.1325 -0.0566
24332W        W40806   7.702   0.551   2.574  0.2093  0.2280  0.1834
24333W        W40807  12.955   8.362  16.068 -0.0012 -0.1154  0.1438
24334W        W40808  10.802   3.297  13.458 -0.1425  0.1683  0.0395
24335W        W40809   8.198   6.108  13.202 -0.0203  0.1046  0.0252
24336W        W40810   2.926   7.615  16.116  0.1551 -0.2170  0.2051
24337W        W40811  10.403   7.407  16.167 -0.0179  0.0457 -0.1609
24338W        W40812   2.185   0.382  15.015  0.0458  0.2197 -0.1308
24339W        W40813  13.291   2.541  14.611  0.1737  0.0763 -0.2517
24340W        W40814   5.260  15.577  14.361 -0.1472  0.0318 -0.1477
24341W        W40815   1.736  11.016   4.652  0.1390 -0.1559  0.2495
24342W        W40816   0.575  10.642   2.982 -0.0268  0.0147 -0.0020
24343W        W40817   1.622  14.521   0.061  0.1010 -0.2021 -0.0875
24344W        W40818   5.435  15.123  14.206  0.1274  0.0983 -0.1814
24345W        W40819  11.019   1.081   5.578 -0.1063  0.0743  0.0186
24346W        W40820   6.460   6.996  16.109 -0.1817 -0.1458 -0.1186
24347W        W40821  16.502  16.956   0.827 -0.0996  0.0468  0.1398
24348W        W40822  16.315   7.648  13.352  0.1912  0.2672 -0.0283
24349W        W40823  13.151   0.892   3.323 -0.2718 -0.2967  0.0965
24350W        W40824   2.948  11.484   1.364 -0.1692 -0.2495  0.1342
24351W        W40825  11.311  14.673   3.136 -0.0752 -0.0416 -0.2825
24352W        W40826   4.380  16.413   0.462  0.0456  0.0342 -0.0878
24353W        W40827  15.637   9.195  13.209  0.2122  0.4165 -0.0518
24354W        W40828  11.444   7.927   0.486  0.1191  0.0997 -0.0445
24355W        W40829   4.254   9.025  15.162 -0.2512  0.0298 -0.0877
24356W        W40830  11.437  17.347  15.959  0.1033  0.1235 -0.0837
24357W        W40831   4.607  12.903  16.545  0.0143 -0.0552 -0.3196
24358W        W40832   8.014  14.964   0.320 -0.2048  0.0131  0.0425
24359W        W40833   2.307   3.350   1.268 -0.0749  0.0650  0.0044
24360W        W40834  14.642   3.744  12.158 -0.5463 -0.1254 -0.0941
24361W        W40835   2.997  12.667  13.702  0.2273 -0.1304  0.0184
24362W        W40836   0.703  17.297  11.998  0.0255  0.1493 -0.1535
24363W        W40837   0.237   2.817   2.384 -0.0727 -0.0763  0.0416
24364W        W40838  14.487  15.362   0.814  0.1298 -0.0615  0.1256
24365W        W40839   1.099  17.338  15.827  0.1009  0.0117  0.3501
24366W        W40840   4.241  10.960  11.602  0.1543 -0.0302  0.1465
24367W        W40841   1.212   3.088   2.492 -0.0115 -0.0154 -0.4142
24368W        W40842   7.686   7.308  11.487 -0.1657  0.2992  0.0970
24369W        W40843   1.670  14.164  15.640  0.2250 -0.2071  0.0754
24370W        W40844  11.990  14.425   0.120  0.0458  0.2956 -0.2755
24371W        W40845   7.103   1.251   1.383 -0.2778 -0.1129  0.3408
24372W        W40846   7.574   8.652   1.895 -0.2309 -0.0389 -0.2277
24373W        W40847  11.202   9.540   3.285 -0.0684 -0.0104 -0.1633
24374W        W40848   5.210  15.711   5.142 -0.1272 -0.1839  0.0850
24375W        W40849   5.768  16.926   3.692 -0.3284  0.2969 -0.0540
24376W        W40850   8.690   2.013   5.765  0.0674  0.1422 -0.0232
24377W        W40851  10.137   8.836   2.378 -0.2077 -0.1020  0.1996
24378W        W40852   9.474  11.495  13.832  0.1781 -0.2987 -0.3123
24379W        W40853   8.839   8.446   0.284 -0.2053  0.2155  0.1107
24380W        W40854  17.572  11.372   1.676 -0.0134  0.0595 -0.1699
24381W        W40855  12.353  13.884   5.908  0.0357  0.0298 -0.0675
24382W        W40856  15.118  13.922  12.393  0.1449  0.1097 -0.2398
24383W        W40857   2.619  17.414  14.169 -0.1195 -0.5515  0.0501
24384W        W40858   0.953   4.893  11.858 -0.2428  0.3009  0.0213
24385W        W40859   8.500   2.018   0.585 -0.0762 -0.0758 -0.2023
24386W        W40860   3.371   5.875  14.741 -0.1470  0.2002 -0.2035
24387W        W40861  16.850   6.193  12.441 -0.0793  0.1004 -0.0081
24388W        W40862   1.113   9.003   0.227  0.1514 -0.0738  0.1287
24389W        W40863   2.218   1.854  15.578  0.0067 -0.0601 -0.1918
24390W        W40864  13.182   6.250  14.463 -0.1793 -0.0071  0.1831
24391W        W40865  15.356   1.173   1.508  0.1245 -0.1125 -0.0621
24392W        W40866   6.962   5.177   5.434 -0.1247  0.0373  0.1326
24393W        W40867  10.773  13.131   4.167 -0.1086  0.2366  0.3977
24394W        W40868   6.866  15.161   4.937 -0.2200 -0.3313 -0.0392
24395W        W40869  16.562  15.001   5.784  0.2475  0.1752  0.0594
24396W        W40870   7.734  16.525   0.204  0.0765  0.1793 -0.0035
24397W        W40871   8.746   4.511   0.450  0.1111 -0.0819 -0.2663
24398W        W40872   8.078  16.915   5.470 -0.1232 -0.1189 -0.0160
24399W        W40873  14.701   5.899  14.649  0.0650  0.0768 -0.2189
24400W        W40874   2.512  12.708   3.985  0.0810  0.2532  0.0186
24401W        W40875   8.914   4.544  14.284 -0.1648  0.0967 -0.0063
24402W        W40876  16.170   2.508   0.053 -0.1081  0.4170  0.1280
24403W        W40877  16.395   7.837   0.237  0.5440 -0.0532 -0.0159
24404W        W40878   6.002   6.739  15.017 -0.2414 -0.2631 -0.1173
24405W        W40879  11.442   0.612   3.856  0.0504 -0.1981 -0.2238
24406W        W40880   9.569   4.260  13.557  0.0300  0.1495  0.0719
24407W        W40881  12.431   4.570   0.729 -0.2021  0.0489  0.1311
24408W        W40882   4.672   5.643   1.643  0.2085 -0.0757  0.1343
24409W        W40883  10.595   0.248   2.458  0.0749  0.0746 -0.4621
24410W        W40884  17.731   2.648  12.457  0.0195  0.1323  0.0585
24411W        W40885   5.934   7.624  12.536  0.4328  0.0589  0.0723
24412W        W40886   1.860  14.523  16.532 -0.1339  0.1319 -0.1473
24413W        W40887   9.619  16.638  13.724 -0.0777  0.1889  0.1581
24414W        W40888  17.057   2.073  11.709 -0.1588 -0.1294  0.3138
24415W        W40889  10.043   1.581  14.908 -0.0930 -0.1974  0.2120
24416W        W40890   8.519  11.434  13.733 -0.1181 -0.0595  0.3325
24417W        W40891   0.367  11.120  16.379 -0.2533 -0.0855  0.0248
24418W        W40892   0.677  16.711  15.104 -0.0588 -0.1682  0.0429
24419W        W40893  13.064   7.550  12.209 -0.1811  0.0078  0.0836
24420W        W40894   6.590   9.135  14.525 -0.2170  0.0626 -0.1353
24421W        W40895   7.749   6.669  13.114  0.0049 -0.0571 -0.0434
24422W        W40896   3.554   6.732   5.075 -0.1103  0.1560 -0.0160
24423W        W40897   4.828   5.434  12.264  0.1832  0.0330 -0.1247
24424W        W40898  10.304  17.531   0.245  0.2107 -0.4004 -0.0716
24425W        W40899   5.434   0.305   4.205 -0.0280  0.1036 -0.0681
24426W        W40900  17.614   8.149  13.791 -0.1310  0.0132  0.1279
24427W        W40901   3.083   1.358  11.875  0.3181 -0.1974 -0.1330
24428W        W40902  16.893  10.828  14.266 -0.0429 -0.0603  0.0021
24429W        W40903  14.782  14.148   4.216 -0.3083  0.0367 -0.4420
24430W        W40904  16.153   4.357  14.678 -0.0054 -0.2966  0.2159
24431W        W40905  16.726   8.926   1.966  0.3595  0.0498 -0.0160
24432W        W40906   3.095   0.387  11.864  0.0559 -0.0149 -0.1579
24433W        W40907   7.363   9.489   4.773 -0.0784  0.2100 -0.0298
24434W        W40908  10.026   7.495   2.179 -0.3615 -0.1400  0.0924
24435W        W40909  12.003   5.648   4.574 -0.0785 -0.1155 -0.1686
24436W        W40910   8.054  12.060  14.058  0.2323 -0.0528 -0.1476
24437W        W40911  10.776   2.428  14.186  0.0383  0.0981  0.3011
24438W        W40912  12.876  10.834   4.812 -0.0781 -0.0584 -0.0134
24439W        W40913   0.380   6.707   0.523 -0.3265 -0.0502 -0.1712
24440W        W40914   8.896  14.494   5.106  0.2626  0.1487  0.2392
24441W        W40915   9.625  15.948   2.161 -0.0811  0.1167  0.0312
24442W        W40916   1.527   0.974   1.898  0.0456 -0.1270 -0.3371
24443W        W40917  12.470   8.722   0.893  0.0835 -0.0349  0.0275
24444W        W40918   6.571   7.251   4.219 -0.1083  0.2449 -0.1741
24445W        W40919  11.992   5.756   3.725 -0.1985 -0.1784  0.0870
24446W        W40920  13.931   5.001   2.623 -0.0368  0.1116  0.1408
24447W        W40921   6.049  10.655  15.435  0.0997  0.0740  0.4089
24448W        W40922   4.088   5.934   2.398 -0.3408 -0.0312 -0.0747
24449W        W40923   5.237   0.548   0.269 -0.2145  0.1203  0.0714
24450W        W40924   5.392  15.467  13.788  0.1930 -0.0343 -0.4194
24451W        W40925   9.826  16.053  15.129 -0.1001 -0.1582  0.0276
24452W        W40926   3.589   0.749  15.935  0.0985 -0.2617  0.0138
24453W        W40927   9.565   0.116  14.213 -0.1310  0.0613  0.1441
24454W        W40928   4.069   7.852  15.916 -0.2855 -0.0025 -0.2089
24455W        W40929  10.450   8.986  14.648 -0.0238 -0.3444 -0.1371
24456W        W40930   3.589  17.436  15.479 -0.0767  0.1611  0.1596
24457W        W40931   3.755   0.342   4.723 -0.0268 -0.1726  0.0641
24458W        W40932  14.535   0.443  15.029 -0.1448 -0.2903 -0.2467
24459W        W40933   2.391   3.633  16.194 -0.0055 -0.1230 -0.3324
24460W        W40934   1.382   0.768  16.005 -0.0642 -0.1067  0.2244
24461W        W40935  10.465  11.654   2.175  0.1818 -0.0506  0.1727
24462W        W40936   7.081   8.416  12.341  0.1220  0.0755  0.0821
24463W        W40937   2.082  12.507   2.100 -0.0703  0.1019 -0.1336
24464W        W40938  11.274   6.287   3.773  0.2713  0.1577 -0.0821
24465W        W40939   9.486   9.632  11.492  0.2915 -0.1667 -0.2631
24466W        W40940  11.281  15.702   5.681 -0.1690  0.2463  0.1460
24467W        W40941  15.170   4.777   3.770  0.0323  0.2238 -0.0327
24468W        W40942   6.113   3.546  16.872 -0.1127 -0.0213 -0.2260
24469W        W40943  12.276  13.491  13.957 -0.1698  0.0184 -0.1547
24470W        W40944  14.070   2.059   3.377  0.1668  0.1765  0.0095
24471W        W40945  15.058  16.385   5.603 -0.3551 -0.1259  0.1016
24472W        W40946  14.372   7.404   1.167  0.0527 -0.2408  0.0473
24473W        W40947  10.404  14.852  12.725  0.1221  0.1927 -0.1792
24474W        W40948  17.241   6.007  15.987 -0.1799  0.2672  0.0383
24475W        W40949   6.262  16.549   5.167 -0.0671  0.0117 -0.1475
24476W        W40950   9.642   4.003   4.396  0.2899 -0.0466 -0.1621
24477W        W40951   7.042  13.177   3.245 -0.0361  0.0422  0.1213
24478W        W40952   5.230  16.455  15.390  0.3483  0.1479 -0.1189
24479W        W40953  11.668   9.458   4.218  0.1431  0.0418 -0.0839
24480W        W40954   1.403   0.488  11.446  0.2297  0.1581 -0.0062
24481W        W40955  10.409   3.337   1.149 -0.2035 -0.1791  0.1146
24482W        W40956  13.699  14.706   1.670  0.1556  0.3074 -0.0459
24483W        W40957   2.373  15.986  15.447  0.0881 -0.1454  0.4001
24484W        W40958  15.634   7.088  13.684  0.2063 -0.2194  0.1751
24485W        W40959   1.468   3.506   0.844 -0.0127 -0.0491 -0.4175
24486W        W40960   4.967   6.948   3.353  0.0268 -0.1206  0.1281
24487W        W40961  10.590   5.008  12.069  0.2528 -0.1814  0.1513
24488W        W40962   9.327  13.596  12.915  0.2016  0.4340 -0.1094
24489W        W40963   5.726   9.191  14.928  0.0980 -0.6119  0.4309
24490W        W40964   5.897  17.496   1.583  0.0491 -0.0498  0.1732
24491W        W40965   9.572  16.030   4.206  0.1465  0.1512 -0.0647
24492W        W40966  13.152   9.693   1.523  0.1087 -0.2208 -0.3481
24493W        W40967  10.866  14.379  11.910  0.0771 -0.1452 -0.0929
24494W        W40968  17.024   1.306   3.378  0.0320  0.0549 -0.0103
24495W        W40969   7.594  12.219   0.013 -0.0414  0.0702 -0.0124
24496W        W40970  13.648   3.804  13.145  0.0498 -0.0606 -0.0518
24497W        W40971   8.188   7.935   1.499 -0.2732  0.0556 -0.1747
24498W        W40972   7.528   4.679  13.224 -0.2661 -0.5296 -0.0248
24499W        W40973   2.762   8.623  13.009  0.0222  0.1420  0.2822
24500W        W40974   0.896   2.795   3.763 -0.0901 -0.0327 -0.0459
24501W        W40975   6.981  12.624   0.797  0.2598 -0.2457 -0.0224
24502W        W40976   5.836   7.191  14.705  0.1282 -0.0618 -0.0718
24503W        W40977  14.411  13.857   3.871 -0.1600 -0.0472 -0.0745
24504W        W40978   1.243   4.760  16.917 -0.1611 -0.2311  0.1902
24505W        W40979   2.799  10.518  13.106  0.2954  0.1167  0.1067
24506W        W40980  13.065  16.338   2.838 -0.1936  0.0839 -0.1315
24507W        W40981   6.820   6.761   2.897  0.0756  0.5128 -0.1662
24508W        W40982   2.810  11.344   3.931 -0.0389  0.2847  0.1316
24509W        W40983   4.304  15.568   4.261 -0.1188 -0.2684  0.2763
24510W        W40984  16.184   3.856   3.589  0.2860  0.0555  0.0206
24511W        W40985   8.636  10.568  12.939 -0.1918 -0.0377  0.0559
24512W        W40986  11.458  13.986   5.635 -0.2561  0.1945  0.1665
24513W        W40987   0.828   9.250  11.582 -0.2016 -0.1078 -0.1218
24514W        W40988   7.076   1.830  14.073  0.1447  0.1066  0.0986
24515W        W40989   7.485  12.622   0.731 -0.2546  0.2304 -0.1693
24516W        W40990   3.691  13.586   1.931  0.1249 -0.1304  0.1374
24517W        W40991   1.817  14.653   1.833  0.0132  0.1770  0.3838
24518W        W40992  12.625   7.823   0.622  0.1269 -0.3291 -0.0864
24519W        W40993   9.971   2.625   1.716  0.1195 -0.4312  0.1081
24520W        W40994   7.143  13.029  14.526  0.0772 -0.0319 -0.0446
24521W        W40995  14.608  15.352   0.321 -0.0783 -0.4521  0.1951
24522W        W40996   8.544  12.298   2.099 -0.1288 -0.0454 -0.0185
24523W        W40997  14.863  10.809   0.548  0.0039 -0.0577 -0.1738
24524W        W40998   2.013  13.372  14.412  0.2299 -0.0631 -0.0599
24525W        W40999  15.585  15.636  14.910 -0.1021 -0.2096  0.0281
24526W        W41000   6.369   1.520  11.988 -0.1149 -0.1411  0.2246
24527W        W41001   9.819   3.891  15.852  0.1641  0.2679  0.1511
24528W        W41002  15.898   9.890   1.915  0.5267  0.4559 -0.1902
24529W        W41003   6.613   2.809   4.715  0.3731 -0.0559 -0.0493
24530W        W41004  12.886   8.171   5.469  0.3754  0.2221  0.0514
24531W        W41005  11.012   5.733  12.683  0.0921 -0.1930 -0.4095
24532W        W41006   3.933   8.090   4.594 -0.1699  0.2174  0.2065
24533W        W41007   9.976   8.650   3.900 -0.1495 -0.0856 -0.2366
24534W        W41008   9.435  14.970  13.570  0.1037 -0.0654 -0.1706
24535W        W41009   9.099  17.316  12.156 -0.0714 -0.3414 -0.1762
24536W        W41010   0.889  17.187  11.023 -0.2305  0.0476 -0.1935
24537W        W41011  16.839  10.858   4.693 -0.1033  0.0484  0.0676
24538W        W41012   5.360  12.156  11.274  0.0805  0.2021 -0.3191
24539W        W41013   5.334   6.729  11.772  0.2378  0.1348 -0.0560
24540W        W41014  16.515   5.725  15.188  0.1505  0.2170 -0.0137
24541W        W41015  16.206   1.715   5.002 -0.0750 -0.3048  0.1845
24542W        W41016  13.568   7.898   1.291  0.0898 -0.2959  0.4297
24543W        W41017  15.751   9.245  16.306 -0.1487 -0.1176  0.2652
24544W        W41018  15.241  15.852  16.820  0.0491  0.3042 -0.0250
24545W        W41019  10.593  10.500   3.683 -0.2140 -0.1939 -0.1115
24546W        W41020  11.592   4.535  12.021 -0.1065  0.1742 -0.0526
24547W        W41021   0.098  11.928  16.238  0.1219  0.1072  0.2633
24548W        W41022   1.536  12.909  12.533  0.1232 -0.3064  0.3544
24549W        W41023   4.314   6.736   6.108 -0.2518  0.1200 -0.2202
24550W        W41024   0.940   5.958   1.682 -0.2152  0.2765  0.4172
24551W        W41025   3.762  13.748   2.877  0.1248 -0.1184 -0.2856
24552W        W41026   7.589   1.413  13.348  0.0572  0.0504 -0.2517
24553W        W41027   2.225  13.490   1.350 -0.0169 -0.0891 -0.1951
24554W        W41028  17.429   5.386   3.162  0.1995  0.1281  0.1510
24555W        W41029  11.422   9.531   1.311  0.0213  0.0157 -0.0719
24556W        W41030  13.384  13.811  12.753  0.2745 -0.0733  0.0992
24557W        W41031   8.452  13.168   2.590 -0.2170 -0.0797 -0.2458
24558W        W41032   7.001   7.934  12.519 -0.3640 -0.0285  0.1930
24559W        W41033   0.951   3.311   6.590  0.0213  0.3436 -0.1630
24560W        W41034   5.580   7.667  15.467 -0.1007  0.0863  0.1467
24561W        W41035   6.162   8.839   2.584 -0.2252 -0.0471  0.1574
24562W        W41036   2.546  15.028   0.154  0.1796 -0.0812  0.3371
24563W        W41037   2.865  10.110  11.619 -0.1130 -0.0961 -0.0294
24564W        W41038   4.331  17.321  15.650 -0.0683 -0.1476 -0.0119
24565W        W41039   5.155  13.613  13.849  0.2126 -0.3544 -0.1102
24566W        W41040   2.376  10.426  13.793  0.3296  0.0528  0.1492
24567W        W41041   2.975   8.776   3.460 -0.0301 -0.0340  0.1360
24568W        W41042   0.756  10.088   2.770 -0.0164  0.0397  0.2311
24569W        W41043  14.040   5.587  15.163  0.2282  0.1448  0.1365
24570W        W41044  15.626   2.700  13.784 -0.1021 -0.3002  0.2500
24571W        W41045  16.500  15.543   1.461 -0.1365 -0.1023 -0.0370
24572W        W41046  14.915   4.696   6.360 -0.2428  0.0076 -0.0316
24573W        W41047   0.835   4.322  12.084 -0.2730 -0.0396 -0.2344
24574W        W41048  17.311  12.252  14.266 -0.0475 -0.1140  0.3465
24575W        W41049   2.041   6.771  12.385  0.1420  0.0154  0.0567
24576W        W41050   0.756   2.737   2.473  0.0415  0.0078 -0.0905
24577W        W41051   9.416  15.472   3.576  0.1373 -0.1188  0.1644
24578W        W41052   7.502   1.334   5.260  0.1061  0.0360  0.0161
24579W        W41053   4.330   4.192  16.568  0.0222 -0.0361  0.1180
24580W        W41054   0.501   9.656  16.267  0.2616  0.2221 -0.0280
24581W        W41055  11.197   9.949   2.851 -0.2080  0.1054  0.3053
24582W        W41056  14.223  14.533   0.808 -0.0808  0.3773  0.1776
24583W        W41057   0.157   2.869   5.928 -0.1130  0.2726 -0.0118
24584W        W41058  13.908  13.986  13.039 -0.3766 -0.0709 -0.1397
24585W        W41059   9.718  10.463   3.839 -0.1221  0.0322  0.1413
24586W        W41060   9.902  15.259   2.636 -0.0865  0.0688  0.3796
24587W        W41061   2.041   3.985  16.164 -0.2870  0.4097  0.0862
24588W        W41062  12.974   1.009   5.461 -0.1548  0.0099  0.0962
24589W        W41063   2.802   2.951   0.838 -0.2612 -0.1718 -0.0325
24590W        W41064   6.625   2.683   2.203 -0.0167  0.1248  0.0691
24591W        W41065   8.439   1.684  13.717  0.0938 -0.1039 -0.0614
24592W        W41066   7.731  16.612  15.056 -0.1865 -0.3195 -0.3611
24593W        W41067  14.240  13.028   2.492 -0.1471  0.1817 -0.1062
24594W        W41068  13.510   9.109   6.466  0.2155  0.1850 -0.1281
24595W        W41069  14.178  17.412  13.729 -0.1799 -0.1675 -0.0024
24596W        W41070   9.492  13.038  14.441 -0.2140 -0.1359  0.0873
24597W        W41071   0.654   0.635   2.501 -0.0501 -0.0972 -0.0093
24598W        W41072   2.278   2.951  16.918 -0.0114  0.0084 -0.1801
24599W        W41073   0.174   3.343   0.637 -0.1398 -0.0956 -0.0750
24600W        W41074  15.611   7.938  11.770 -0.1876  0.1262 -0.3717
24601W        W41075   8.248  12.887  14.012 -0.1112 -0.3455 -0.1185
24602W        W41076   3.809  11.216   1.542  0.0050  0.3258 -0.2107
24603W        W41077   3.745   2.882  12.449 -0.0914  0.0139  0.1056
24604W        W41078   2.265  16.354   0.765 -0.2218 -0.4907 -0.0673
24605W        W41079   1.990  12.381  13.859 -0.1580 -0.4317 -0.1044
24606W        W41080   0.789   3.130   4.853  0.0012 -0.1262 -0.2340
24607W        W41081  15.327   0.129  12.272  0.0781  0.0966  0.0992
24608W        W41082   2.758   5.601   3.657 -0.3274  0.2777  0.0054
24609W        W41083   4.274   7.956  13.306  0.2291  0.0108  0.0268
24610W        W41084  16.383  10.596  13.474 -0.0313  0.1542 -0.0658
24611W        W41085  10.625  10.328  12.116 -0.0128  0.1455  0.1407
24612W        W41086  16.271   5.011  13.159  0.1326 -0.2753  0.0309
24613W        W41087   1.908  15.487   3.504 -0.1278  0.0086  0.3031
24614W        W41088  11.650  16.937   0.347  0.1429  0.1106 -0.0347
24615W        W41089  11.901   9.379  15.680 -0.0378  0.1650  0.2181
24616W        W41090   7.256  13.572  15.426  0.0852 -0.0110 -0.0329
24617W        W41091   6.069  14.202   5.325  0.1358  0.1208 -0.0434
24618W        W41092   5.052  11.461   4.879 -0.2348 -0.1009 -0.1040
24619W        W41093  14.226  11.712  14.219  0.1891 -0.0328 -0.0953
24620W        W41094   9.080   9.891  12.005  0.0654 -0.1491  0.1083
24621W        W41095  17.773  10.582  16.869 -0.1552 -0.0191 -0.0741
24622W        W41096   3.506   0.336   2.568  0.0877 -0.1881  0.3497
24623W        W41097  14.494   0.501  11.911  0.0731 -0.1214  0.0850
24624W        W41098  13.554  10.609  12.825 -0.0167  0.1227  0.2193
24625W        W41099  14.087   3.183  14.648 -0.0017  0.1481 -0.0084
24626W        W41100   9.870  14.143  15.302 -0.2423 -0.0741 -0.1130
24627W        W41101  10.675   8.821   2.628 -0.1200  0.0799 -0.0620
24628W        W41102   8.514   2.903  14.199  0.0279 -0.1619 -0.2256
24629W        W41103   2.364   8.885   1.944  0.0319 -0.1507  0.2310
24630W        W41104   3.510   1.094   0.246  0.0887  0.1479 -0.0403
24631W        W41105  17.397  16.080   1.702 -0.1488  0.1214  0.1420
24632W        W41106   2.967   5.769  14.431 -0.0217 -0.3462 -0.4013
24633W        W41107  14.212   6.802   4.296  0.0171 -0.1791  0.3275
24634W        W41108   9.682   8.522  16.029 -0.0111 -0.0160  0.2593
24635W        W41109   9.739   8.122  12.969  0.1715 -0.1544 -0.0206
24636W        W41110   1.860  14.200   1.590 -0.0668  0.0517 -0.0200
24637W        W41111  10.496  11.059   0.016 -0.2214 -0.0097  0.1681
24638W        W41112   3.941  12.804   0.723  0.0012 -0.0411  0.1228
24639W        W41113   9.810   9.921  16.010  0.3094  0.3312 -0.2208
24640W        W41114   9.992   9.503   0.414 -0.2106  0.1840 -0.1063
24641W        W41115  15.217   8.610   2.208  0.1493  0.1063  0.4224
24642W        W41116  17.172   0.571  14.815  0.1974 -0.0820 -0.1245
24643W        W41117   3.392  17.192   2.404 -0.0566  0.0257 -0.0304
24644W        W41118  12.080   4.153  14.542  0.1644  0.0952 -0.1594
24645W        W41119  16.618   4.258   5.286 -0.0765 -0.2953  0.0659
24646W        W41120   3.858   9.537  15.975 -0.0370  0.0000 -0.0445
24647W        W41121  16.921   9.539   2.301 -0.0305 -0.2131  0.0053
24648W        W41122   8.429   2.654  16.443  0.0278  0.1955  0.0758
24649W        W41123  10.660   2.202   0.964  0.1185 -0.2321  0.1138
24650W        W41124   8.779   2.425  14.822 -0.2016 -0.0209 -0.1694
24651W        W41125  14.843  11.158   4.951  0.0718  0.2000 -0.2488
24652W        W41126  15.387   9.363  15.475  0.1483 -0.1029 -0.1438
24653W        W41127   2.125  17.080   3.124 -0.2198  0.1030 -0.1126
24654W        W41128   6.186   2.680  15.629 -0.0715  0.1235 -0.3448
24655W        W41129   3.764   6.671   0.220 -0.1291 -0.0758  0.0776
24656W        W41130   0.058  14.437  16.447 -0.1767  0.3430  0.2021
24657W        W41131  11.453   3.195  16.527 -0.1872  0.0206  0.1175
24658W        W41132   0.289   7.600   2.386 -0.0741  0.1116 -0.0778
24659W        W41133   8.177  13.668  12.710 -0.0027 -0.1134  0.0999
24660W        W41134   7.360   8.360   2.312  0.5555 -0.0893 -0.0877
24661W        W41135   0.860   6.808   0.755 -0.1082  0.4630  0.0079
24662W        W41136   8.428   0.452  15.606 -0.0194 -0.0803  0.1295
24663W        W41137  14.064  13.638   2.562 -0.1190 -0.2071 -0.1715
24664W        W41138  11.942  15.215  14.501  0.0416 -0.1847  0.4484
24665W        W41139  14.182   7.893  16.636  0.1553  0.1358 -0.0165
24666W        W41140   5.337   7.102   3.056 -0.0221 -0.1500  0.3361
24667W        W41141   4.905  15.772  11.943 -0.0423 -0.0143 -0.0508
24668W        W41142   4.466   4.796   3.990 -0.0953 -0.2567  0.1579
24669W        W41143  13.369   8.232  13.495 -0.0440 -0.0694  0.1423
24670W        W41144   5.106   9.209   4.364  0.0609  0.1414  0.1973
24671W        W41145  16.471  12.674  13.022  0.1192 -0.0130  0.1685
24672W        W41146  15.786   4.467   5.858 -0.2503  0.1354 -0.0331
24673W        W41147  16.409   2.718   5.085 -0.0379  0.1658  0.1936
24674W        W41148  13.642   2.998   6.096  0.1563  0.2555 -0.3572
24675W        W41149   5.471   8.664  10.221  0.2511 -0.3531 -0.3836
24676W        W41150   3.984   9.926  12.403  0.0296 -0.1163  0.0852
24677W        W41151   0.315  10.856   0.259  0.2098  0.0177  0.0560
24678W        W41152  17.685   1.893   3.756 -0.1686 -0.1418  0.2313
24679W        W41153   1.427  13.314  15.132 -0.1005 -0.0909 -0.1809
24680W        W41154  15.069   1.114   5.747 -0.3027 -0.0825 -0.3948
24681W        W41155   7.727   9.307   1.497 -0.2020 -0.2495 -0.0055
24682W        W41156   7.495  15.481   0.952  0.0501  0.1521  0.2094
24683W        W41157  16.650  17.826  13.590 -0.0322  0.0922  0.0896
24684W        W41158   3.335   5.045   0.800 -0.1416  0.4363 -0.1958
24685W        W41159  11.133   4.998  13.951  0.1180  0.2298  0.0732
24686W        W41160  14.719  14.086  16.784 -0.1335  0.1096 -0.1227
24687W        W41161  14.700  12.253  11.487 -0.0452 -0.3831 -0.1100
24688W        W41162  12.559   3.694  16.865 -0.0190 -0.2855  0.0838
24689W        W41163   5.509  15.608   0.330 -0.2010 -0.2875  0.0933
24690W        W41164   8.694   7.548   2.826 -0.4764  0.1053  0.1907
24691W        W41165  15.759   5.222   1.606 -0.0381 -0.1186 -0.0935
24692W        W41166   2.442   0.238   4.106 -0.1852  0.0251  0.1651
24693W        W41167  14.869  15.973   2.347 -0.0521 -0.1232  0.1104
24694W        W41168  16.082  11.722   0.052  0.1261 -0.1341 -0.2053
24695W        W41169  10.960   1.721  16.131  0.0089  0.1741  0.0922
24696W        W41170  13.507  11.609  14.408  0.1498  0.1526  0.1409
24697W        W41171   9.585  11.556   1.134 -0.1683 -0.2147 -0.1482
24698W        W41172   0.825   1.361   1.188  0.0325 -0.0068 -0.2125
24699W        W41173   6.439   6.004  15.177 -0.2656  0.0263  0.2562
24700W        W41174  14.291   5.316   2.549  0.2477  0.0745 -0.0433
24701W        W41175   8.452  11.016   0.764 -0.0082  0.1996 -0.0842
24702W        W41176   5.382  14.504  16.718 -0.0052 -0.1288 -0.0099
24703W        W41177   9.402  10.755  15.430  0.3767 -0.4272  0.4048
24704W        W41178   4.809  13.323   0.744  0.1164 -0.0670  0.1099
24705W        W41179   1.187  15.670   4.085  0.1187  0.0051  0.1053
24706W        W41180   6.918   2.223  11.613  0.0921  0.1182 -0.0331
24707W        W41181  15.459  17.165   6.271 -0.3879  0.2161 -0.0156
24708W        W41182   5.812   0.822  13.056  0.0699 -0.1947  0.1430
24709W        W41183  10.466   4.852  12.796 -0.1453 -0.2512  0.0618
24710W        W41184   9.871  14.849   1.736 -0.0334  0.1140 -0.5197
24711W        W41185   8.631   2.334  12.162  0.0446 -0.2129 -0.2112
24712W        W41186  11.066   4.087   6.324  0.2460 -0.1409 -0.2044
24713W        W41187   9.009   5.720   5.070  0.1312  0.1774 -0.0441
24714W        W41188  14.741   6.898  14.355 -0.0340  0.2044  0.2208
24715W        W41189   6.929   3.651   4.064 -0.0953 -0.2065 -0.1504
24716W        W41190   8.027   6.481   1.350  0.3828  0.3080 -0.4425
24717W        W41191   9.352   7.757   6.267 -0.1112 -0.2946  0.1245
24718W        W41192   0.199   0.670   2.749  0.0095  0.3717 -0.0267
24719W        W41193  12.981   0.318  16.193 -0.1560  0.3709 -0.0390
24720W        W41194   2.353   2.269   1.196 -0.1712  0.1277 -0.1235
24721W        W41195   0.634  10.416   4.602  0.1531  0.0300 -0.1417
24722W        W41196   2.055  11.936   3.463 -0.0518  0.0464 -0.0881
24723W        W41197   8.565   9.270   0.969 -0.0804  0.1809  0.1358
24724W        W41198   6.345   2.808  11.938 -0.4061  0.1635  0.1767
24725W        W41199   2.098  17.707   3.845  0.0005 -0.0658  0.2595
24726W        W41200   2.228   9.325  11.375 -0.0108 -0.0225 -0.4161
24727W        W41201   0.445  10.521  12.109 -0.0086  0.3137  0.3594
24728W        W41202  14.309   9.927  12.532  0.0673  0.5514 -0.1352
24729W        W41203   4.469  15.503   3.484  0.2828 -0.1819 -0.4411
24730W        W41204   1.629   4.940   5.371 -0.0549  0.0549 -0.1272
24731W        W41205   5.857   8.928   2.217  0.0506 -0.1064  0.2220
24732W        W41206   4.456  10.079   4.548  0.1203  0.0234 -0.2134
24733W        W41207  12.521   8.896   0.353  0.0921 -0.1554 -0.1216
24734W        W41208  13.972  17.099  15.605  0.2491  0.2170 -0.1528
24735W        W41209   3.174   0.236  13.309  0.0148  0.0135 -0.1752
24736W        W41210  17.696   2.081   2.034  0.0902  0.0863 -0.1888
24737W        W41211   5.746   5.034  16.887 -0.2173  0.4171  0.2008
24738W        W41212  13.552  12.589   5.370  0.0395  0.4034 -0.0006
24739W        W41213   7.132   5.698   4.975 -0.2173  0.1985  0.0726
24740W        W41214  13.274  14.896  14.527  0.2242  0.1656  0.0319
24741W        W41215   8.724  10.921   2.479 -0.0701 -0.3047 -0.0408
24742W        W41216   3.129   2.296   1.558 -0.2525  0.3886 -0.0252
24743W        W41217   0.777  13.404  15.906  0.0231  0.3929  0.1195
24744W        W41218   0.592   0.707   3.159 -0.0819 -0.0979  0.0662
24745W        W41219   6.393  14.378   6.084 -0.2272 -0.0916 -0.1259
24746W        W41220  13.676   3.324  14.407 -0.3822 -0.0382 -0.2919
24747W        W41221   3.294   1.102   2.815 -0.0124  0.2113  0.0879
24748W        W41222  17.380   1.323   2.453  0.4136  0.1515  0.0341
24749W        W41223   9.596  10.364  15.226  0.0676  0.2510 -0.1039
24750W        W41224   4.194  10.632  15.721  0.0190 -0.1113 -0.0720
24751W        W41225  10.424   1.715  14.416  0.1122  0.1084 -0.0371
24752W        W41226  12.202  13.976   0.762 -0.0083 -0.0982  0.2007
24753W        W41227   0.930   5.426   1.977 -0.0481  0.0563  0.2497
24754W        W41228   6.019  12.509  11.947 -0.1055  0.2169 -0.1290
24755W        W41229  11.615   5.254   2.718  0.0967 -0.0524  0.0886
24756W        W41230   9.560  10.553   0.307 -0.0638 -0.1079 -0.1716
24757W        W41231   3.275   5.877  13.574  0.3025  0.1298  0.1607
24758W        W41232   1.996  14.450   0.918  0.1426  0.2544 -0.1306
24759W        W41233  12.940   1.341   0.035  0.0812 -0.3891  0.3275
24760W        W41234   9.040  12.040  15.594 -0.2708 -0.1208  0.2433
24761W        W41235   2.419   8.065   4.823  0.0831  0.2332  0.3586
24762W        W41236   9.392   2.153  11.827  0.1465 -0.3145  0.1542
24763W        W41237   8.580  15.441   0.022 -0.1717 -0.1087  0.0112
24764W        W41238   8.179   2.006   2.706 -0.0279  0.0273  0.2988
24765W        W41239  11.677   6.915   1.832 -0.0226 -0.1048 -0.0399
24766W        W41240   2.989   5.004  15.675 -0.1243 -0.3036  0.2340
24767W        W41241   8.491   9.129   4.069  0.0293  0.1379  0.2115
24768W        W41242  12.542   9.313   0.068 -0.0550 -0.2180 -0.0538
24769W        W41243  11.331   8.212  12.127  0.0104  0.1209 -0.0449
24770W        W41244  16.403   9.546  15.147  0.1697  0.3414  0.2182
24771W        W41245  15.209   4.534   3.294 -0.0612  0.0821 -0.0706
24772W        W41246  16.282  17.460   3.413  0.0055 -0.0660  0.2880
24773W        W41247   1.786  17.352   2.211  0.0500  0.1660  0.0678
24774W        W41248  17.046  12.471   2.838  0.1180 -0.0773  0.0080
24775W        W41249   6.772  16.823   3.066 -0.0588 -0.2012  0.1168
24776W        W41250  12.117   2.776  12.263 -0.1432 -0.0413 -0.3149
24777W        W41251  17.795   6.688   0.968  0.0639  0.1456 -0.0823
24778W        W41252  10.037   4.147  13.337  0.0751  0.0913 -0.2954
24779W        W41253   1.114   3.958   4.953 -0.1504  0.1162 -0.2497
24780W        W41254   4.202  14.973   1.441 -0.0533 -0.0388 -0.2232
24781W        W41255  15.357   2.450  15.688  0.0627 -0.0164 -0.0011
24782W        W41256  13.298   7.089  15.687  0.1365 -0.1026 -0.0168
24783W        W41257   2.301   0.910   2.463 -0.1144 -0.3388 -0.0591
24784W        W41258   9.790   2.086  15.070  0.0566  0.0028 -0.1488
24785W        W41259   0.004   1.200   5.533 -0.1704 -0.1599 -0.0382
24786W        W41260  16.801   9.627   5.597 -0.0326  0.1714 -0.0110
24787W        W41261   1.112   1.523  15.420 -0.0650  0.1465 -0.1296
24788W        W41262   9.669  10.879  15.851 -0.2126  0.4620  0.0445
24789W        W41263   7.533   9.439  12.318 -0.0197 -0.0172  0.0881
24790W        W41264  11.619  11.281  11.870  0.2714  0.2026  0.2415
24791W        W41265   7.414   8.529  14.516  0.1296 -0.0334 -0.3491
24792W        W41266   8.429  13.117  15.246 -0.0552 -0.1471  0.2117
24793W        W41267  17.798  10.664  11.874 -0.0001  0.3627 -0.0915
24794W        W41268  12.316  15.107   0.550 -0.1466  0.2324  0.1128
24795W        W41269  17.761   8.793  11.346 -0.2260 -0.0499  0.1597
24796W        W41270   8.335   7.284   2.581  0.0156  0.0550  0.2128
24797W        W41271   5.549   7.687   1.438  0.1003  0.2962  0.0731
24798W        W41272   3.556   2.925   0.062 -0.0509  0.2227  0.2805
24799W        W41273  11.808   9.936   6.250  0.0082 -0.1729  0.1346
24800W        W41274  16.274  10.027  14.440  0.0174 -0.2875 -0.2783
24801W        W41275  12.224   7.397  11.907 -0.0120  0.4172 -0.0166
24802W        W41276  13.949  17.245   2.959 -0.0387  0.2489  0.0949
24803W        W41277  12.277   6.266  15.486 -0.3013 -0.0379  0.0780
24804W        W41278  15.842  10.499   5.423  0.1176 -0.0744 -0.0372
24805W        W41279   7.041   3.094   4.779  0.0745  0.0083 -0.0073
24806W        W41280  12.892  10.929   3.342  0.4664  0.1331  0.1134
24807W        W41281   7.753   0.842  11.881 -0.0629  0.1234  0.2001
24808W        W41282  13.973   4.149   3.364 -0.3500 -0.2505 -0.1100
24809W        W41283  15.153  17.166   1.840  0.0054  0.2029 -0.3661
24810W        W41284   3.568  13.871  13.031  0.1710  0.2323  0.1430
24811W        W41285   5.428  15.574  12.734  0.3088  0.2109  0.0758
24812W        W41286   7.990  14.272   1.896  0.3083 -0.2924 -0.2537
24813W        W41287  17.312  10.232   2.534  0.0617 -0.2824  0.1350
24814W        W41288  17.402   2.799   4.531 -0.0733  0.2528  0.1646
24815W        W41289   9.713  17.546   5.862 -0.0292  0.3081 -0.0074
24816W        W41290   9.677   7.827  14.863  0.1070 -0.1679 -0.2087
24817W        W41291   8.544  11.142   2.877  0.1410 -0.0880  0.0352
24818W        W41292  14.824   7.669   6.208 -0.1823 -0.1563 -0.2736
24819W        W41293   8.036   7.267   2.984 -0.2135 -0.2732  0.0476
24820W        W41294  13.272  10.249   5.510  0.2292 -0.0890  0.4347
24821W        W41295   8.513   8.597   3.966 -0.0541 -0.2960 -0.0945
24822W        W41296  14.481  12.885  16.061 -0.0325  0.0966  0.1597
24823W        W41297  11.502  17.449  13.370  0.0164 -0.2752 -0.0458
24824W        W41298  15.105  10.037   1.855  0.0104 -0.0846 -0.0029
24825W        W41299   6.651   7.196   3.199 -0.0807 -0.3105 -0.0463
24826W        W41300   4.354  12.260  12.489 -0.3793 -0.1526  0.1703
24827W        W41301  14.392   4.242  13.141  0.2194  0.0496  0.1129
24828W        W41302   2.041  17.750  13.097 -0.0984  0.0319 -0.2107
24829W        W41303  14.482  15.420  14.122 -0.2451  0.2315  0.0632
24830W        W41304   7.265   8.137  14.859  0.1350  0.1749  0.3783
24831W        W41305   9.328  13.601   2.222 -0.0334 -0.0447  0.1274
24832W        W41306   9.040   4.533   4.976  0.1522 -0.1144 -0.0785
24833W        W41307  14.396  10.401   4.572 -0.3549  0.1676 -0.0938
24834W        W41308   5.521   5.964  16.090  0.1623  0.1605  0.0880
24835W        W41309   3.374   8.279  16.657  0.2179  0.1729 -0.0163
24836W        W41310  14.329   2.017   0.939 -0.1585  0.2143  0.1047
24837W        W41311   4.967  15.248  13.520 -0.2661 -0.1617 -0.2500
24838W        W41312   0.623  15.063   5.145  0.0838  0.1144 -0.0538
24839W        W41313   4.828   0.670   3.707  0.1172 -0.0253  0.3059
24840W        W41314   7.844  14.540  16.918  0.0517 -0.1487 -0.1018
24841W        W41315   8.224   6.428   4.784 -0.3117  0.1748  0.1302
24842W        W41316  13.582   7.268  16.915  0.0233  0.0183  0.0325
24843W        W41317  15.882   9.585   4.795  0.1118  0.1589 -0.2092
24844W        W41318   1.823  14.396  14.612  0.0329  0.1939 -0.0898
24845W        W41319  16.565   3.410  14.083  0.0208 -0.1108  0.2693
24846W        W41320  14.903  12.422   3.978 -0.0992  0.0254  0.2988
24847W        W41321  14.185   1.308   3.901  0.3285 -0.1003 -0.2148
24848W        W41322   6.915   3.595  14.389 -0.2167  0.4556 -0.0411
24849W        W41323   0.253   7.821   4.292 -0.1138 -0.0349 -0.0779
24850W        W41324  10.187   5.597   1.379 -0.0153  0.2070 -0.2150
24851W        W41325   3.878  11.309  11.326  0.0057 -0.0688 -0.2317
24852W        W41326   0.219  13.260   5.035  0.0434 -0.0573 -0.0628
24853W        W41327  15.543  11.997  15.364 -0.0240  0.3459 -0.0823
24854W        W41328   1.233   6.152  14.592 -0.0965  0.1590 -0.0153
24855W        W41329  12.382  10.696   5.764  0.0361  0.2127  0.0966
24856W        W41330   2.807  10.181   5.595  0.0510  0.1925  0.1353
24857W        W41331   7.886   6.753  14.431  0.0226 -0.2059 -0.0873
24858W        W41332  16.327   7.716  14.186  0.0598 -0.3131 -0.0953
24859W        W41333  15.377  13.946  14.773 -0.1255  0.0140  0.2239
24860W        W41334   5.656   9.974  11.464  0.0472 -0.1950  0.2099
24861W        W41335   0.214   5.985  15.804 -0.0380  0.2157  0.2215
24862W        W41336   2.795  11.703   0.012  0.0155  0.3278  0.0124
24863W        W41337  17.147   4.678   3.838  0.5424 -0.1242  0.0639
24864W        W41338   6.452   5.804   3.637 -0.1354  0.0392 -0.0743
24865W        W41339  11.749  15.002  12.113  0.0126 -0.4100 -0.4094
24866W        W41340   9.330  16.879  15.864  0.1251 -0.0732 -0.1072
24867W        W41341   9.693   6.371  14.412 -0.0446  0.0121  0.3276
24868W        W41342  11.232   2.407  14.393  0.0577 -0.1220  0.1037
24869W        W41343  16.650  11.146   0.611  0.0698  0.0495 -0.1558
24870W        W41344  12.941  11.305   5.699  0.0619  0.1749  0.1145
24871W        W41345   3.420   5.290  16.353 -0.2652  0.2173 -0.1309
24872W        W41346  14.817  10.204   0.764  0.1511  0.0980 -0.0662
24873W        W41347  11.086   6.241   2.664  0.4069  0.2743 -0.0309
24874W        W41348  10.374   6.031  12.329 -0.2549  0.0829 -0.1948
24875W        W41349  17.509  16.513   4.472 -0.0695 -0.0088  0.0057
24876W        W41350  12.178   6.587   4.817  0.0705 -0.3435 -0.2690
24877W        W41351  11.347  16.729   1.289  0.0884 -0.1042 -0.1275
24878W        W41352   5.343   4.812  14.491  0.4228  0.0282  0.1573
24879W        W41353  10.976   5.266   1.178 -0.2100  0.1428  0.1500
24880W        W41354  14.986  15.596   2.012  0.1132 -0.3373 -0.0636
24881W        W41355  11.770  12.292  15.833 -0.0924  0.1178 -0.2028
24882W        W41356   3.118  15.576  12.156 -0.0042 -0.1956 -0.1409
24883W        W41357  13.204   4.804   3.156  0.0164 -0.0168  0.0654
24884W        W41358  12.208   0.920  14.447 -0.1127  0.3957 -0.1224
24885W        W41359   7.120  13.956   1.856  0.1424  0.0175 -0.0098
24886W        W41360   9.135   7.098   1.502 -0.2354 -0.1638  0.0129
24887W        W41361  15.865   4.269   4.979 -0.1302 -0.1675 -0.1074
24888W        W41362   9.821  13.550   2.148 -0.0093 -0.0037  0.4033
24889W        W41363   1.236   4.504  16.472 -0.0391 -0.1716 -0.0039
24890W        W41364  12.888   0.898  14.882 -0.1375 -0.1126  0.2795
24891W        W41365  12.560  11.765  12.145  0.0703  0.0871  0.1561
24892W        W41366   0.715   5.099   1.105  0.0177  0.1282  0.0579
24893W        W41367   6.679  15.096  12.244  0.1845  0.2378  0.2096
24894W        W41368  13.055  10.011  13.085 -0.0316  0.0127  0.1194
24895W        W41369  12.096   8.489   2.631 -0.0871  0.0716 -0.2587
24896W        W41370   2.778  14.500  15.290  0.0506 -0.3095 -0.1061
24897W        W41371  10.816   9.594   2.054 -0.5035 -0.0903 -0.1410
24898W        W41372   4.883   6.753  16.519 -0.1552 -0.1358  0.1493
24899W        W41373   0.672   9.252   1.811 -0.0864 -0.1786  0.0850
24900W        W41374  14.334   3.810  12.941  0.0988 -0.0157 -0.2417
24901W        W41375  13.762   2.893  12.888  0.2344  0.1038  0.0523
24902W        W41376  10.135  15.230  16.265  0.0620 -0.3201 -0.2738
24903W        W41377  12.871   0.239   3.565 -0.2013  0.1520  0.1428
24904W        W41378  15.192   4.935   5.072 -0.0769 -0.1357  0.0118
24905W        W41379   4.392  11.974  11.550 -0.3686 -0.1911 -0.2550
24906W        W41380   0.335  15.902   4.622  0.2445  0.2097 -0.0294
24907W        W41381  17.814   8.811  12.365  0.4086 -0.0958  0.0146
24908W        W41382   5.590   6.675   1.621  0.1134  0.0207 -0.0573
24909W        W41383   7.540  13.926   2.572  0.3539  0.0772  0.1923
24910W        W41384   9.465   1.276  12.545  0.0090  0.3058  0.2222
24911W        W41385  14.673   7.939  16.734 -0.1273 -0.0521  0.1348
24912W        W41386  10.911   2.312  11.840  0.3038 -0.1119  0.0647
24913W        W41387   8.193  11.405   0.836  0.0394 -0.2110  0.0399
24914W        W41388  17.191   9.650  13.351  0.0550  0.0524  0.1433
24915W        W41389  17.780  12.995  16.281  0.2009  0.0181  0.0571
24916W        W41390  16.977  15.168  15.080  0.2988  0.0740  0.0710
24917W        W41391  11.379  10.829   4.781 -0.4935 -0.0522 -0.0421
24918W        W41392  10.027   6.452   5.193 -0.1892  0.2553  0.0410
24919W        W41393  13.288   9.327  12.619  0.1043 -0.0057 -0.0341
24920W        W41394  16.817  11.219   5.350  0.0724  0.1975  0.2292
24921W        W41395  13.301  15.911  12.596  0.0996  0.0141  0.0504
24922W        W41396  12.919   5.228  16.053  0.0893 -0.0074 -0.1183
24923W        W41397   6.537   9.838   4.987  0.1590  0.0994  0.2327
24924W        W41398  16.440  10.956  15.945  0.0031  0.1256 -0.3901
24925W        W41399   2.847   3.442   4.213  0.0502 -0.2824 -0.2016
24926W        W41400   2.337  17.170   2.227 -0.0633  0.3231 -0.1367
24927W        W41401  14.753  12.832   0.406 -0.0822  0.0550 -0.2272
24928W        W41402   9.701   1.396   0.911  0.0976 -0.1643  0.0381
24929W        W41403  13.686  13.544   3.250  0.2719  0.1472 -0.1966
24930W        W41404   9.685   2.229  12.976 -0.2403 -0.1070 -0.0570
24931W        W41405   6.819  11.226   4.898  0.0496  0.0794  0.1980
24932W        W41406   1.309  15.380  16.854  0.1648 -0.0400  0.1418
24933W        W41407  13.582  11.149  15.458 -0.0542  0.0521 -0.1986
24934W        W41408  15.483   9.701  14.116  0.1252  0.1372  0.0789
24935W        W41409   8.170   5.192  13.280  0.0062  0.4003 -0.3130
24936W        W41410   3.085   5.328  12.597 -0.0107  0.1472  0.1338
24937W        W41411   9.864  16.665  15.194  0.2157 -0.2319 -0.1024
24938W        W41412   4.245   0.374   1.175 -0.0687  0.3085  0.1023
24939W        W41413   4.274  17.358  11.735 -0.1583  0.0815  0.1486
24940W        W41414   9.849   9.695  14.733  0.0328 -0.1225 -0.0388
24941W        W41415   5.060  11.626  13.485 -0.2373 -0.1721 -0.0410
24942W        W41416  13.494  11.504  15.845 -0.1056  0.0251  0.1972
24943W        W41417   6.975   8.594   2.626 -0.2652 -0.0542 -0.2756
24944W        W41418   1.082   7.189   1.561  0.2111  0.1225  0.3863
24945W        W41419  10.087  13.698  15.309  0.3703 -0.1883  0.0934
24946W        W41420   3.906  15.339  15.939  0.0238 -0.0467  0.0690
24947W        W41421   9.888   6.269  11.773 -0.4682 -0.1877 -0.3032
24948W        W41422   1.261  16.755   2.446  0.1357  0.1119  0.1104
24949W        W41423   2.633   1.664  14.413  0.1570 -0.0635  0.3680
24950W        W41424  13.361   7.389  15.278 -0.0244  0.5051  0.2933
24951W        W41425   2.102  10.270  15.061  0.0361  0.0315 -0.1642
24952W        W41426   3.152   4.180   0.939  0.1354 -0.0443  0.0876
24953W        W41427   2.279   4.886   2.295  0.1936  0.1074 -0.0175
24954W        W41428  10.104   3.535   0.163  0.0070  0.5202 -0.1556
24955W        W41429  14.317  16.543  13.325  0.1410  0.1392  0.1376
24956W        W41430  10.523  11.027   4.866  0.0340  0.0261 -0.3291
24957W        W41431   2.002  13.420  15.255 -0.1668 -0.0874 -0.1507
24958W        W41432  14.169   8.078  15.649  0.1250  0.0193  0.1803
24959W        W41433  14.436   6.024   0.024 -0.1491  0.0973  0.2447
24960W        W41434  17.131   8.227   0.473  0.1421 -0.3076 -0.2207
24961W        W41435  12.990   5.685   5.599 -0.2379  0.1641  0.0764
24962W        W41436  12.964   7.558   1.987 -0.0327  0.0200 -0.1923
24963W        W41437   8.363   2.241   5.528  0.0618  0.0302 -0.1800
24964W        W41438   1.997   9.962  10.405 -0.3461 -0.1002  0.0495
24965W        W41439   0.480   5.714  14.022  0.2944 -0.0256 -0.1356
24966W        W41440   2.508   4.809   1.401 -0.0106  0.0937 -0.0040
24967W        W41441   6.772   4.429  14.050  0.1099 -0.0820  0.1324
24968W        W41442   6.630  15.117   1.896  0.1917  0.0731  0.2357
24969W        W41443   1.848  11.009  14.400  0.0985  0.0283 -0.0769
24970W        W41444  12.707   2.636   4.254 -0.0773 -0.0078  0.0910
24971W        W41445   8.442  16.397  14.130 -0.1333 -0.1182 -0.0225
24972W        W41446  13.198  13.360   1.723 -0.0491 -0.1064  0.3466
24973W        W41447   8.940  10.310   0.940  0.2717  0.0291 -0.2497
24974W        W41448  12.914   0.885   1.773  0.1033  0.0157 -0.0042
24975W        W41449   6.446   8.728   4.489 -0.0241  0.0519 -0.2714
24976W        W41450  13.558   5.080   2.982 -0.0875  0.1560  0.1080
24977W        W41451   8.971  14.669   0.518  0.3122 -0.1071  0.2402
24978W        W41452   8.956   4.543  16.590  0.1185  0.1725 -0.2873
24979W        W41453   6.256   1.437   3.182 -0.2459 -0.0191 -0.2088
24980W        W41454   8.427  12.393  12.418 -0.2586 -0.1015 -0.0383
24981W        W41455   3.629  14.245  13.393  0.1691  0.0506 -0.1926
24982W        W41456  16.563   2.932   2.209 -0.2360 -0.0692  0.0190
24983W        W41457   2.222   6.795   1.613 -0.1510  0.1031 -0.0846
24984W        W41458  12.230   2.102   5.286  0.3166 -0.1585  0.2945
24985W        W41459  13.785   6.860   2.595  0.1249  0.0340 -0.2604
24986W        W41460   5.539   3.472   4.717 -0.1946 -0.5303 -0.1038
24987W        W41461   5.791  10.399   4.872  0.1454  0.0481 -0.0294
24988W        W41462  11.903  14.703  13.753  0.0448  0.1583  0.0636
24989W        W41463  11.639   2.586   3.481  0.1124 -0.1705  0.1997
24990W        W41464   8.590  11.255  16.621 -0.0508  0.0121  0.0746
24991W        W41465   3.497  15.700   3.294  0.3078  0.0173 -0.1835
24992W        W41466   4.351  14.670   2.358 -0.2211  0.0223 -0.0194
24993W        W41467  12.227  11.665   3.907 -0.0749  0.1176  0.0353
24994W        W41468   3.429  12.733   3.780  0.0983 -0.2556 -0.1444
24995W        W41469   5.482  12.484  14.949  0.2207 -0.0035  0.2304
24996W        W41470   8.482   6.007   5.304 -0.1668 -0.0971  0.2626
24997W        W41471   2.884  10.694   3.040  0.3080 -0.0852  0.0327
24998W        W41472   7.169  12.047  12.312 -0.3036  0.1740 -0.0014
24999W        W41473  12.148   8.445   5.272  0.0999 -0.0465  0.2974
25000W        W41474  17.567   7.348  14.204 -0.0816 -0.0037 -0.1975
25001W        W41475   2.895   1.945  13.505 -0.0221  0.2633  0.0193
25002W        W41476   3.843   1.237  16.770 -0.0316  0.1603 -0.2009
25003W        W41477  15.527   4.703  15.652  0.1616 -0.0895 -0.0597
25004W        W41478  16.878   6.323  11.944 -0.0222  0.0365  0.1384
25005W        W41479  16.263  17.445   1.817 -0.1440 -0.0718 -0.0688
25006W        W41480   4.563   6.029   1.237  0.2098  0.1319 -0.0249
25007W        W41481   9.401   4.368   4.012 -0.1711 -0.2191  0.2167
25008W        W41482  14.342  14.948  14.204 -0.2019  0.1380  0.2700
25009W        W41483  15.024  11.510   3.706 -0.0372 -0.0849  0.0757
25010W        W41484   5.155  12.209  12.285 -0.3219  0.0288  0.1241
25011W        W41485   8.866  15.185   0.436 -0.0346 -0.0119 -0.3279
25012W        W41486   4.546   4.325  12.994 -0.0351 -0.1354 -0.1965
25013W        W41487   8.194   5.387  16.201  0.3339  0.1788  0.0985
25014W        W41488   2.415  11.459  15.453  0.0991  0.0125  0.0826
25015W        W41489   8.131   4.092   4.485  0.1162 -0.1084  0.0821
25016W        W41490   1.180   9.668  16.059  0.0264  0.3874 -0.1632
25017W        W41491  16.243  13.292   5.145 -0.3483 -0.0709 -0.2459
25018W        W41492   1.519  16.273  13.656  0.1232  0.2863 -0.0547
25019W        W41493   3.365  10.343   0.091 -0.0185 -0.0156 -0.1706
25020W        W41494   3.857   2.485   1.827 -0.1209  0.1903  0.1817
25021W        W41495  12.084  10.932   0.272  0.0288 -0.0057  0.2497
25022W        W41496  17.171  15.103   0.867  0.2010 -0.0589 -0.2629
25023W        W41497   3.619   8.958   4.861  0.0895 -0.0273 -0.3435
25024W        W41498  17.084   5.514  14.327  0.1196 -0.0783 -0.1273
25025W        W41499   7.620   5.403   1.139 -0.0129  0.0730 -0.1336
25026W        W41500   9.463  15.562   2.491  0.2449 -0.1393  0.2240
25027W        W41501  12.254  16.256  15.343  0.2243 -0.3059 -0.2367
25028W        W41502   5.755   2.378  14.982 -0.2418 -0.2486  0.0474
25029W        W41503   1.964   6.920  12.858 -0.0242 -0.0616  0.2296
25030W        W41504   9.978   0.858   2.199  0.2959 -0.0773 -0.0627
25031W        W41505  11.981  17.640   2.712  0.4372 -0.0644 -0.0309
25032W        W41506   1.290  17.219  11.800 -0.1652  0.0980 -0.0947
25033W        W41507   9.909  13.289  15.920 -0.0232  0.4459 -0.1801
25034W        W41508   3.267  12.244   5.052  0.0847 -0.0167 -0.0960
25035W        W41509  10.980  17.637   5.896  0.0599  0.0606 -0.0884
25036W        W41510   7.340   5.378   4.593  0.0837 -0.2287  0.0155
25037W        W41511   7.367  16.478  11.051  0.1620  0.0660  0.0491
25038W        W41512   0.881   0.729  16.025 -0.2494 -0.0448  0.0036
25039W        W41513  13.029   9.194   0.081 -0.1183 -0.1746  0.0087
25040W        W41514   1.080  11.249  14.829 -0.0576  0.2301 -0.0291
25041W        W41515   0.762  13.215   4.072  0.1099 -0.0656 -0.0169
25042W        W41516  12.648  10.571   1.849  0.0409 -0.1189  0.2134
25043W        W41517   8.917   6.102  11.921  0.0023  0.2273 -0.0422
25044W        W41518  12.083   3.285  15.419 -0.1053  0.3129  0.0024
25045W        W41519  15.729   5.564   5.502  0.0370  0.0645 -0.0674
25046W        W41520   4.584   4.821   2.274 -0.3127  0.0661  0.1569
25047W        W41521   0.025   2.677   2.813 -0.2823 -0.4036 -0.0304
25048W        W41522   3.194   8.838   0.778  0.4170 -0.0619  0.0164
25049W        W41523   6.056   7.762  13.276  0.1899 -0.0308  0.1524
25050W        W41524   0.841  10.786   2.596  0.0361 -0.1070  0.1370
25051W        W41525   7.852  10.744   4.904 -0.1059 -0.0158  0.1683
25052W        W41526   1.630   3.629  13.283 -0.0258 -0.3818  0.2290
25053W        W41527   2.512   8.122  16.108  0.2121  0.1930 -0.0075
25054W        W41528   5.409  12.935  16.520 -0.0826 -0.0328 -0.1569
25055W        W41529   7.982  12.501  12.127 -0.0340  0.2216 -0.1464
25056W        W41530  16.976  13.476   2.041 -0.0968 -0.1059  0.0681
25057W        W41531  15.615  16.632   4.295  0.0371  0.0661  0.0864
25058W        W41532   2.721  12.367  12.625  0.2784 -0.1531  0.1473
25059W        W41533   1.328   9.189  16.209 -0.2417  0.1230 -0.0398
25060W        W41534   3.701   2.867   5.806 -0.2266 -0.0476 -0.1146
25061W        W41535  16.818   7.889  11.998 -0.0242  0.0556 -0.1128
25062W        W41536  17.812   7.475   3.868  0.1316 -0.1598  0.3714
25063W        W41537  10.760   7.040   1.947 -0.1570 -0.0355 -0.0257
25064W        W41538  13.539  17.351  12.645  0.0839  0.2820  0.1438
25065W        W41539  11.286  11.140  15.013 -0.1906 -0.0374  0.0194
25066W        W41540   8.790   7.181  12.521  0.2590  0.0224  0.0380
25067W        W41541   1.620  14.493   2.292  0.1667 -0.0263 -0.2984
25068W        W41542   1.808  10.416  11.432 -0.0065 -0.0409 -0.2213
25069W        W41543   7.479   4.207  15.324 -0.0217  0.0444  0.0437
25070W        W41544  10.350   5.298   4.315  0.1522  0.0544 -0.4085
25071W        W41545  10.329  15.434  12.717 -0.3622 -0.1959  0.0920
25072W        W41546  10.311  17.196  15.306  0.1249 -0.3271 -0.1423
25073W        W41547   9.288  14.285   5.417  0.2608 -0.2931  0.0092
25074W        W41548  14.365   3.221  14.151 -0.0371 -0.3492 -0.1572
25075W        W41549   2.686   7.187   5.381  0.1392 -0.1002 -0.0543
25076W        W41550  15.667  15.554   3.403  0.1642  0.1914 -0.0562
25077W        W41551   2.975   1.690   0.629 -0.3549 -0.2036  0.0979
25078W        W41552   6.742   3.572   1.702 -0.1204 -0.0850  0.0580
25079W        W41553   7.497  10.768  15.845 -0.1100  0.1501 -0.1773
25080W        W41554  15.117   9.947  13.698  0.3516 -0.0476 -0.1192
25081W        W41555  12.486   4.119   0.505 -0.1375 -0.0048 -0.2018
25082W        W41556   6.304   6.567  15.882 -0.1131  0.2602 -0.0633
25083W        W41557   7.651   5.946  13.988  0.2743  0.2350  0.0185
25084W        W41558   4.324  11.717   3.689  0.0548  0.0138 -0.0661
25085W        W41559   8.356   8.979   3.159 -0.0878  0.0663  0.3620
25086W        W41560   9.865   5.242  15.003 -0.1955  0.0899 -0.0419
25087W        W41561  11.822  10.047   0.183  0.2032 -0.2223  0.1435
25088W        W41562   7.913   5.360   3.005  0.2412  0.1625  0.1018
25089W        W41563  10.294   5.664  16.015  0.0671 -0.1341 -0.0578
25090W        W41564   3.943   4.954   3.952 -0.0361  0.0767 -0.0699
25091W        W41565  13.511   4.053  15.478  0.3383 -0.1483 -0.1210
25092W        W41566  14.255   2.407   5.620  0.1030 -0.0685  0.1859
25093W        W41567   2.297  11.538   3.105  0.0329 -0.2164  0.2341
25094W        W41568  11.462   6.011  12.677  0.3761  0.2751  0.2192
25095W        W41569  16.330  14.344   3.191  0.2088  0.2779 -0.2922
25096W        W41570   6.689   1.517  15.731 -0.0476  0.0876 -0.2366
25097W        W41571  13.755   9.546   1.186  0.1670  0.0732  0.0874
25098W        W41572   8.496  10.375  15.639  0.1633  0.0344 -0.1282
25099W        W41573   5.367   0.546  13.569  0.0794 -0.1013  0.1259
25100W        W41574  10.775  16.795   2.022 -0.0692 -0.0058 -0.0529
25101W        W41575   0.530  10.819  14.099 -0.0130 -0.0606 -0.1544
25102W        W41576   7.664  12.085   0.480 -0.1357  0.0870  0.0325
25103W        W41577  17.592  12.907   2.398  0.0010 -0.3182  0.1810
25104W        W41578  14.022  14.088  13.553 -0.1084 -0.1303 -0.0830
25105W        W41579   9.459  17.333  14.219  0.2758 -0.1409 -0.3477
25106W        W41580  15.314  11.591  11.664  0.1793 -0.0848  0.1527
25107W        W41581   0.631   5.897  12.503  0.0329  0.2168 -0.0608
25108W        W41582   7.617   7.563  11.917  0.1248 -0.0300 -0.1492
25109W        W41583   9.278   1.018   4.791  0.0727  0.3337 -0.1526
25110W        W41584   8.205   7.715   5.840 -0.1396 -0.1270 -0.1945
25111W        W41585   8.701   7.932  15.232 -0.2144  0.2324  0.3465
25112W        W41586   5.669  12.147  11.847 -0.2375  0.0863 -0.0452
25113W        W41587   8.780  14.139   2.674  0.0971 -0.1846 -0.1183
25114W        W41588  17.454  17.295  13.687  0.1394 -0.2667  0.0079
25115W        W41589  10.849  17.626   4.417 -0.2506 -0.2037  0.0005
25116W        W41590   6.222   8.521   4.066  0.0419  0.0499 -0.1472
25117W        W41591  13.045   1.366   5.848 -0.1742 -0.0086  0.1252
25118W        W41592   2.548   0.723   4.588 -0.3481 -0.1740  0.2542
25119W        W41593  17.137   4.612  16.020 -0.2835 -0.0734  0.0546
25120W        W41594  11.015  14.474  13.254  0.0853 -0.2287 -0.0126
25121W        W41595  14.689  14.454  10.602 -0.1870 -0.0187 -0.0155
25122W        W41596   8.056  11.094   0.462  0.1089  0.0373 -0.0375
25123W        W41597  16.933   5.806   4.362 -0.0966  0.2028  0.3914
25124W        W41598  15.902  10.790  16.356 -0.1200  0.1802  0.0414
25125W        W41599   6.020  11.368   0.330 -0.1013 -0.0477 -0.3009
25126W        W41600  13.996   2.257  14.339 -0.2771 -0.1374  0.0188
25127W        W41601   9.223   7.266  13.589 -0.1634 -0.0635  0.1662
25128W        W41602  14.740   0.747  15.744  0.0506  0.0534  0.1570
25129W        W41603   2.190   4.206  14.194 -0.1330 -0.1524 -0.1320
25130W        W41604  16.136  17.430  14.857 -0.0888  0.0494 -0.0687
25131W        W41605  12.654   5.010   0.858 -0.0688  0.0791 -0.0730
25132W        W41606   4.720   1.011  14.388  0.0977  0.0502  0.1297
25133W        W41607  16.258  14.982   0.410 -0.3057 -0.1950 -0.0914
25134W        W41608  14.511  17.046   2.677  0.1208 -0.0310 -0.0474
25135W        W41609   9.678  10.664   4.308 -0.0093  0.4609  0.2166
25136W        W41610  10.214  14.044   3.424 -0.2548 -0.3415  0.0967
25137W        W41611   5.935   2.856  13.465  0.0540 -0.0733 -0.1704
25138W        W41612  15.149  17.121  16.178  0.0634  0.1562 -0.1842
25139W        W41613  13.009   2.144  14.614  0.2660  0.0724  0.0858
25140W        W41614   1.657  10.716   2.200  0.0601 -0.0320 -0.0564
25141W        W41615   4.114   8.885  14.138 -0.0406 -0.2326  0.2174
25142W        W41616  14.357   3.496  14.940 -0.1856  0.2151 -0.2877
25143W        W41617  11.888  10.431   5.663  0.0475  0.1415  0.0238
25144W        W41618   3.352   7.474   1.264  0.1081  0.3337  0.0635
25145W        W41619   9.599  15.103   5.748  0.0418  0.0284  0.3688
25146W        W41620  17.216  14.036  14.103  0.0645  0.1601 -0.0979
25147W        W41621   5.952   8.788  16.720  0.1115  0.0981  0.4564
25148W        W41622  16.818  15.770  16.616 -0.0008 -0.1276 -0.1243
25149W        W41623  11.917   3.940   5.353 -0.0351  0.1422  0.0992
25150W        W41624   3.714   9.005   3.411  0.0309  0.0062 -0.0717
25151W        W41625  14.006   7.218   0.813  0.0732  0.0218 -0.1099
25152W        W41626   7.539   1.142  12.854 -0.0722 -0.0351 -0.1214
25153W        W41627   1.274   6.409   4.071 -0.2654 -0.1595  0.2646
25154W        W41628  10.499  16.724  12.427  0.0254 -0.0332  0.2249
25155W        W41629   9.120   5.081  15.462 -0.0642 -0.1229 -0.0237
25156W        W41630   9.715   7.904  14.297 -0.2083 -0.0774  0.1170
25157W        W41631   8.485  17.346  12.975  0.1156 -0.2499  0.0348
25158W        W41632   2.364   3.673   4.080  0.0584 -0.2938 -0.0157
25159W        W41633   9.408   3.538   0.940 -0.1691  0.1457 -0.2099
25160W        W41634  16.862   5.703   6.278 -0.0172  0.2148  0.0812
25161W        W41635  12.967   6.303   5.618 -0.0025  0.0101  0.2336
25162W        W41636   3.221   3.691  14.977 -0.2535  0.2323  0.1835
25163W        W41637  16.926   5.314  13.919  0.1238 -0.2751 -0.1128
25164W        W41638  14.337  12.956   5.397 -0.0707 -0.1545  0.2042
25165W        W41639   0.949   6.378   1.926 -0.0301 -0.0336  0.2134
25166W        W41640  17.131   6.089  14.734 -0.1605  0.1163 -0.1691
25167W        W41641   9.779   3.910   2.730 -0.0242  0.4883  0.1523
25168W        W41642   8.717   3.804   1.594 -0.0040  0.0171 -0.1037
25169W        W41643  17.315  11.986  15.628  0.2067  0.0385  0.0668
25170W        W41644   5.163   6.251  16.502  0.0290  0.1981 -0.0079
25171W        W41645   0.763   9.009  11.978  0.3211  0.2477  0.0161
25172W        W41646   7.651   7.105   3.406  0.0427 -0.3419 -0.4238
25173W        W41647   6.245   5.299  14.406  0.0276 -0.1206  0.0134
25174W        W41648   4.780   0.819   0.439  0.1800  0.0440 -0.0296
25175W        W41649  11.942   4.596   2.454 -0.2933 -0.2881 -0.1027
25176W        W41650   1.274   4.745   4.842 -0.2222 -0.1308 -0.2142
25177W        W41651  12.625   7.337   2.360 -0.1081  0.2031  0.2469
25178W        W41652  12.832  17.024   6.007 -0.1877  0.1156 -0.1928
25179W        W41653  16.842  14.758   2.448  0.1919  0.1441 -0.1384
25180W        W41654  11.736  16.843   2.179  0.0499  0.0543 -0.3455
25181W        W41655  11.265  10.168  15.823 -0.0619  0.2168  0.0172
25182W        W41656  13.258   0.352  14.297 -0.1225  0.2017 -0.0590
25183W        W41657   3.808  12.752  16.160 -0.1598 -0.0104 -0.0440
25184W        W41658   8.470  15.640  15.991  0.2395 -0.1316 -0.0100
25185W        W41659   9.573  17.528   2.345 -0.0076  0.1103  0.0943
25186W        W41660   2.861  11.211   0.905  0.1204 -0.2442  0.0696
25187W        W41661  17.042  15.183   2.258 -0.1442 -0.0330 -0.0843
25188W        W41662   6.106   2.731   2.438 -0.1322  0.0818 -0.2194
25189W        W41663   2.683   2.050   0.378 -0.1101  0.0940  0.1666
25190W        W41664  11.325  12.411  16.062  0.0467 -0.0814 -0.0351
25191W        W41665   4.718   4.367   0.777 -0.2744  0.0150 -0.0503
25192W        W41666   1.038  11.688   1.272 -0.2464  0.0870 -0.1078
25193W        W41667   3.878   5.535  10.958 -0.1729  0.0550  0.0855
25194W        W41668   9.763   5.459  11.715  0.0201  0.0490 -0.2797
25195W        W41669  13.355   2.734  15.228 -0.0113 -0.3749 -0.1974
25196W        W41670  15.082   8.576   4.712  0.0783  0.0570  0.1264
25197W        W41671   9.304   4.955  16.199 -0.1652 -0.1636 -0.0692
25198W        W41672  15.432   2.416   5.342 -0.0368 -0.2203 -0.0366
25199W        W41673  15.839   7.240  12.272  0.0440 -0.0530  0.3764
25200W        W41674   1.743   8.700  14.212 -0.1977  0.0886  0.1354
25201W        W41675  17.828   7.701  12.076  0.1259 -0.3328 -0.3331
25202W        W41676  15.998  11.504   3.333  0.0189 -0.0301  0.1476
25203W        W41677  10.406   2.682  16.245  0.1052 -0.1040  0.1007
25204W        W41678   8.329   0.790  16.907  0.0737  0.0575  0.1114
25205W        W41679   6.771  15.865   3.006  0.1733  0.3965  0.2241
25206W        W41680  13.616  11.404  11.814 -0.0587 -0.1966  0.1257
25207W        W41681  16.582   3.625  14.668  0.2197  0.1270  0.2090
25208W        W41682  14.320   7.832   2.904 -0.0136 -0.1009 -0.0797
25209W        W41683  15.935  13.898  15.383  0.0529 -0.4263 -0.3567
25210W        W41684  16.922   8.938  16.659  0.1539  0.3237  0.0322
25211W        W41685   3.823   0.104   5.783 -0.2502 -0.0269 -0.2558
25212W        W41686   6.556   0.498  14.491 -0.0526 -0.1788  0.0132
25213W        W41687  14.496  13.989   1.333  0.0635  0.1228  0.1174
25214W        W41688  16.135  12.314   5.330  0.3014 -0.2626 -0.2550
25215W        W41689  15.714  17.043   2.728  0.0833 -0.1221  0.2963
25216W        W41690   8.092  17.432  15.583  0.1667 -0.1051  0.2916
25217W        W41691   5.805   5.732   3.063  0.2168 -0.2026 -0.2860
25218W        W41692   4.659   2.717  12.708  0.1263  0.1140 -0.0146
25219W        W41693   7.585   8.010  16.160  0.0612 -0.0359  0.3560
25220W        W41694   9.156   9.317  16.272  0.4488  0.1885  0.4577
25221W        W41695  17.714  10.571   2.655  0.2403 -0.1154  0.0277
25222W        W41696   0.386   0.076   3.805  0.1172  0.2389 -0.0772
25223W        W41697   4.532   1.264   2.661  0.0682 -0.0562  0.1392
25224W        W41698   4.404  13.310  14.604  0.2346  0.0291  0.0832
25225W        W41699  13.036  17.367   1.424 -0.1515 -0.1649  0.5991
25226W        W41700   0.158  15.434   2.942  0.1454  0.0407 -0.1659
25227W        W41701   5.513  13.494  12.264  0.0154 -0.1107  0.0465
25228W        W41702  15.157   1.715  12.154 -0.2185  0.2512  0.0538
25229W        W41703   1.288  10.939  16.667  0.0089 -0.1337 -0.0090
25230W        W41704  11.213  14.829   5.460 -0.2793  0.0341 -0.2794
25231W        W41705   9.120  15.192   2.370  0.0616 -0.0794 -0.1358
25232W        W41706  11.670  10.232  16.626 -0.0346 -0.0511 -0.2663
25233W        W41707   3.326   9.877  11.626  0.2411  0.0653  0.1212
25234W        W41708  16.751   2.882   3.970  0.1077  0.0916  0.0593
25235W        W41709   0.068  14.193   2.933  0.1373  0.0225 -0.0743
25236W        W41710   1.438   4.529  15.188  0.3106  0.0347 -0.0751
25237W        W41711  15.027   2.670   4.229  0.3471 -0.1160 -0.0983
25238W        W41712  11.960   0.276  16.205 -0.1006 -0.2732 -0.0641
25239W        W41713   2.113   9.947   3.940 -0.0126  0.0756  0.0909
25240W        W41714  15.087  13.080  11.527  0.1711 -0.1629 -0.0212
25241W        W41715   1.395  12.062  12.364 -0.0292  0.2081  0.1929
25242W        W41716  13.409  13.114  16.870  0.0019 -0.0576  0.0317
25243W        W41717   6.039   0.847   4.337  0.4028  0.1824 -0.0489
25244W        W41718   9.044   2.348  15.505 -0.1804 -0.3109  0.0755
25245W        W41719  14.516   5.210  15.873 -0.0276 -0.1526  0.0701
25246W        W41720   8.757   4.107  14.569 -0.1642  0.2009  0.0175
25247W        W41721   3.376  10.999  16.799 -0.0957  0.0217  0.3454
25248W        W41722  15.625   6.320  11.971  0.0737  0.0344  0.4077
25249W        W41723  14.190   4.406  15.294  0.1453 -0.0290  0.3184
25250W        W41724  17.693  17.026  16.391  0.1071  0.2716  0.1312
25251W        W41725   8.456   1.267   0.009  0.0732  0.2382 -0.1865
25252W        W41726  16.733  10.022   1.506  0.2315  0.5259 -0.3985
25253W        W41727  15.901   1.250   1.561 -0.2085  0.0125  0.2005
25254W        W41728  10.834  13.491  11.609 -0.0560 -0.1291 -0.0469
25255W        W41729  17.689   0.781   4.693  0.0994 -0.1201 -0.2204
25256W        W41730   0.375  13.236  16.121 -0.3172  0.1427 -0.0466
25257W        W41731  12.359  13.173   3.216  0.0061  0.3696  0.0658
25258W        W41732  13.414   7.113   2.787  0.2804 -0.1184 -0.2475
25259W        W41733   5.668   6.254  16.493 -0.1217 -0.0242 -0.1596
25260W        W41734   7.101   6.967   2.018  0.1818  0.0118 -0.0246
25261W        W41735  14.910   4.582   5.446  0.1968  0.0660  0.0640
25262W        W41736   8.164  17.049   2.125  0.0647  0.1057 -0.0028
25263W        W41737  16.019   4.737  15.045  0.1226 -0.3062  0.0275
25264W        W41738  17.609  13.025  11.931  0.0827  0.3321 -0.0301
25265W        W41739  12.036   0.199  14.101 -0.0019  0.1943  0.0220
25266W        W41740  13.852   3.749  12.605 -0.2117 -0.1033 -0.0646
25267W        W41741   6.046  12.962   0.666 -0.0164  0.0721  0.1103
25268W        W41742  11.008   8.301   1.115  0.0825 -0.1042  0.1810
25269W        W41743   7.295  12.811   2.004 -0.0467 -0.1812  0.1948
25270W        W41744   7.756   6.005   2.197  0.2852  0.0844 -0.1844
25271W        W41745  11.055  16.747   3.128 -0.1266  0.0308 -0.0133
25272W        W41746   1.328  17.746  15.558 -0.1702 -0.0933 -0.2540
25273W        W41747  15.872  12.104  14.710  0.1142  0.4266  0.0453
25274W        W41748   6.644  15.292   5.478 -0.0422  0.1482 -0.0299
25275W        W41749   1.210  14.752   2.140  0.0293 -0.2053 -0.0642
25276W        W41750   0.455  14.375  13.073  0.2765 -0.1293 -0.3335
25277W        W41751  16.059   1.860   6.436 -0.0673  0.4006  0.1031
25278W        W41752  12.151   5.311   2.315 -0.1154 -0.2473  0.0243
25279W        W41753  14.176  15.023  13.245  0.0931  0.0374 -0.0185
25280W        W41754   2.117   0.602   1.409 -0.1378  0.1274 -0.2570
25281W        W41755   8.429  12.219  13.440 -0.0668 -0.2698  0.0367
25282W        W41756  10.554   2.189   4.804  0.1320  0.1972  0.1146
25283W        W41757  15.237   1.024   0.587 -0.2017  0.1982  0.0545
25284W        W41758   4.123  14.318   0.820  0.0040  0.0173  0.0291
25285W        W41759  11.662   3.222  14.771 -0.0332  0.0481 -0.1364
25286W        W41760  12.689   3.472   1.822  0.0567 -0.0334 -0.2267
25287W        W41761   2.844  14.081  13.940  0.0463  0.0988 -0.0553
25288W        W41762   9.131  17.661  14.155 -0.0623 -0.0947  0.0549
25289W        W41763  16.501  17.801  15.111  0.1797  0.3341  0.0134
25290W        W41764   0.170   6.888  12.516  0.1013 -0.0438  0.0976
25291W        W41765   1.000  14.476   4.016  0.2717  0.0384 -0.1684
25292W        W41766  12.228   8.539  14.595 -0.1866  0.1550  0.3847
25293W        W41767   8.543   2.256  13.797 -0.1769  0.0248 -0.4276
25294W        W41768  10.675   3.798  15.303  0.0600  0.1602  0.2530
25295W        W41769  13.286  16.983  13.401 -0.1106  0.0601 -0.0391
25296W        W41770   5.829   1.529   4.932 -0.1566  0.0217  0.0929
25297W        W41771   8.297   2.432   0.023  0.1174  0.2425 -0.1714
25298W        W41772   3.457   6.691  13.616 -0.3432  0.1060 -0.1464
25299W        W41773  14.080   1.568   0.933  0.5038 -0.0179 -0.2231
25300W        W41774  11.068  11.499  14.558  0.3080 -0.1870 -0.1573
25301W        W41775  13.366  13.461   3.664  0.0737  0.2342  0.0466
25302W        W41776   5.353  14.307   4.403  0.0308 -0.0156 -0.0019
25303W        W41777  17.046   7.383   0.681  0.1615 -0.1692  0.2309
25304W        W41778   9.628   5.596   5.146 -0.0927 -0.2496 -0.0881
25305W        W41779   4.306   9.530   0.864  0.1127  0.2191  0.2292
25306W        W41780   9.585  15.429  12.232 -0.0324  0.0057  0.2027
25307W        W41781   8.637  13.897   3.167 -0.3341  0.0856 -0.0139
25308W        W41782  10.014   8.209   4.879  0.2856  0.1141  0.2646
25309W        W41783   0.069   2.498   6.839  0.1721 -0.0836  0.1033
25310W        W41784  12.232  16.507   1.045  0.0813  0.2484 -0.1727
25311W        W41785  16.852   1.116  12.530 -0.0102 -0.0970  0.1536
25312W        W41786   1.143   6.066  15.035  0.0368  0.1220  0.2888
25313W        W41787   8.195  11.195  12.313  0.0826  0.0783 -0.0329
25314W        W41788   2.121   1.395  12.684  0.3778 -0.0654 -0.1285
25315W        W41789   1.179   6.840  13.467  0.0444 -0.1821  0.1678
25316W        W41790   1.314   8.182  16.511  0.0701  0.0465  0.1254
25317W        W41791  17.004  15.133   3.296  0.0103  0.2959  0.1357
25318W        W41792   1.647   5.866  14.521 -0.1708  0.2173 -0.0653
25319W        W41793   7.982   9.763   1.151  0.2922  0.2896  0.1212
25320W        W41794   3.248   1.665   4.806 -0.1113 -0.2194  0.0240
25321W        W41795  16.848   6.066  14.272  0.2356  0.1893 -0.2633
25322W        W41796   3.143  16.409   0.877 -0.1798  0.2178 -0.0833
25323W        W41797  12.287   2.814  14.145  0.2692  0.0620  0.1485
25324W        W41798   3.384  16.438  12.778 -0.0559  0.1227 -0.3611
25325W        W41799   5.393  10.379  12.289  0.1697 -0.1799  0.0174
25326W        W41800  14.754   0.665   5.667 -0.1936 -0.0134 -0.4591
25327W        W41801  17.454  16.694  15.251 -0.1344 -0.3127  0.2435
25328W        W41802   8.391  12.732   3.098  0.0625 -0.1556  0.1591
25329W        W41803   7.750  11.196   2.365  0.1218  0.1273 -0.2450
25330W        W41804  16.912  15.636  15.100 -0.0207 -0.2832 -0.0417
25331W        W41805  12.882  14.015   3.164  0.0584  0.2046  0.0477
25332W        W41806   9.372   5.616   6.403  0.0302  0.5235  0.0289
25333W        W41807   6.662  10.372   2.101 -0.0367 -0.0070  0.0545
25334W        W41808   0.878   4.333   3.035  0.1679  0.1659 -0.2139
25335W        W41809   9.877   3.548   5.634  0.0357  0.0698  0.1061
25336W        W41810   0.844   2.284   5.050 -0.0231 -0.0811  0.0814
25337W        W41811  12.488  11.593  14.434  0.1551 -0.1317 -0.0506
25338W        W41812   9.737   0.113   2.602  0.3145 -0.0299 -0.2469
25339W        W41813   9.195   1.401  11.517 -0.0990 -0.0094 -0.2018
25340W        W41814  15.940   8.692  15.604 -0.0887  0.0878  0.1781
25341W        W41815  12.636   7.943  13.339 -0.1909  0.0267 -0.0043
25342W        W41816  15.187  12.806   4.850 -0.0667  0.0332 -0.1386
25343W        W41817   2.589   3.285   3.763  0.0251 -0.1417  0.0777
25344W        W41818   7.294  16.528   1.603 -0.0490 -0.1839 -0.0540
25345W        W41819  12.718  13.448  15.582 -0.2237 -0.0352  0.0445
25346W        W41820  11.573  14.790  14.105 -0.1142 -0.1087 -0.1729
25347W        W41821   2.909   0.819  15.821 -0.0642 -0.1889  0.1827
25348W        W41822   8.289  15.129   2.860  0.0641  0.0350 -0.0447
25349W        W41823  16.886   7.397  16.530  0.0111 -0.3638  0.2698
25350W        W41824   5.795   6.496   3.595  0.0570  0.0362  0.1604
25351W        W41825   5.938  15.168   4.954 -0.2253  0.0484  0.0146
25352W        W41826   1.963  15.941  11.995  0.1875 -0.0044  0.1005
25353W        W41827  13.024  16.891  15.756 -0.1823 -0.0948  0.0782
25354W        W41828   8.911  15.620  14.216 -0.1736 -0.0008 -0.0810
25355W        W41829   5.178  11.012   5.048  0.2466 -0.1315  0.1778
25356W        W41830   3.518   3.357   3.576  0.1799  0.1906  0.2209
25357W        W41831   2.135   8.041   5.216 -0.0843 -0.2884 -0.2001
25358W        W41832   4.783   6.107   5.953 -0.3548 -0.1379 -0.1436
25359W        W41833  13.264   5.213  12.086 -0.3368  0.1552  0.0070
25360W        W41834   0.676  11.178  13.053 -0.1449 -0.0571 -0.1636
25361W        W41835  15.210  12.924   0.657 -0.0772 -0.1150  0.1478
25362W        W41836  17.482  13.129  12.955 -0.0537  0.1434 -0.1362
25363W        W41837  11.934   7.574   4.802 -0.1733 -0.2756  0.0072
25364W        W41838  17.072   0.311  13.505 -0.1509  0.0380  0.0810
25365W        W41839  17.148   3.319   3.283 -0.0096 -0.1059 -0.1547
25366W        W41840  15.619   2.897   5.454 -0.2289  0.0604 -0.0245
25367W        W41841   1.393   7.246   3.968  0.1691 -0.2107  0.1020
25368W        W41842  17.387   9.584  16.387  0.0193  0.3746  0.1146
25369W        W41843  12.162   7.696   4.026  0.0569 -0.4303  0.2773
25370W        W41844   8.982  13.387  12.173  0.2807  0.1755 -0.1919
25371W        W41845   5.396  10.807  15.848 -0.3377 -0.0167 -0.0734
25372W        W41846   0.819   8.865   3.669  0.0825 -0.0635 -0.0125
25373W        W41847   0.699  16.242  12.014 -0.0512  0.0052  0.1534
25374W        W41848  11.046   0.243   3.000  0.0484  0.2002  0.0180
25375W        W41849   7.776   0.033   2.392 -0.0528  0.2750  0.2201
25376W        W41850  16.836  16.134  16.230 -0.3573 -0.0201 -0.0585
25377W        W41851   8.225   8.737  15.167  0.5344 -0.1341  0.0045
25378W        W41852   0.856   7.256   3.690  0.0352  0.0796 -0.1297
25379W        W41853  13.815  16.580   1.735  0.0322  0.2752  0.0825
25380W        W41854  12.103   3.294  12.270 -0.1357  0.2723  0.0837
25381W        W41855  10.521   5.450   4.818 -0.1499  0.1745  0.1779
25382W        W41856   3.876   2.393  13.795 -0.1484 -0.4368  0.2596
25383W        W41857   3.118   3.301  13.213 -0.1413  0.2355 -0.1039
25384W        W41858   1.428   0.773  12.337  0.1330 -0.3448  0.0792
25385W        W41859  14.219   3.255   3.849  0.1520 -0.0252 -0.1199
25386W        W41860   6.291   2.977   3.941 -0.0055  0.0548  0.1575
25387W        W41861   1.538  16.472  16.656 -0.0933  0.1114 -0.0188
25388W        W41862   8.854  17.789   6.701  0.0014  0.1452 -0.0838
25389W        W41863   8.216  16.176  11.548 -0.1466  0.3685 -0.0831
25390W        W41864  11.042  14.162  16.537  0.0100 -0.0921  0.0660
25391W        W41865   5.276   2.988   4.715  0.2514 -0.1509  0.0435
25392W        W41866   4.842   7.610  16.328  0.1493 -0.2478 -0.1328
25393W        W41867  17.754  10.284  13.618  0.1074 -0.4127  0.1034
25394W        W41868   1.051  11.826   0.706 -0.3096  0.0513  0.4140
25395W        W41869   5.062   7.374   2.158  0.0540 -0.0586  0.1330
25396W        W41870  13.599   3.028   4.142  0.1079 -0.0314  0.0022
25397W        W41871   6.458  11.814  12.573  0.1761  0.0200 -0.1080
25398W        W41872  17.607   7.769   0.056  0.0341 -0.0019  0.0503
25399W        W41873   9.010  11.637  16.036  0.1273  0.1699 -0.0339
25400W        W41874   7.432   6.538  16.239  0.0335 -0.0367 -0.0766
25401W        W41875   8.201   0.842  15.390  0.1395 -0.1287 -0.0253
25402W        W41876  16.545   9.591  16.529 -0.0096  0.0510  0.0437
25403W        W41877   8.772  12.494   0.908 -0.0042  0.2432 -0.1244
25404W        W41878   1.627  10.719  12.066 -0.0209 -0.1274 -0.2643
25405W        W41879  10.608   1.850   2.136 -0.1146 -0.1438  0.0226
25406W        W41880   0.529   5.005   4.278  0.2835  0.1709  0.3376
25407W        W41881  12.003  14.570   4.495  0.4141  0.2415  0.2207
25408W        W41882   0.073   3.444   2.667  0.1494  0.1953  0.1629
25409W        W41883   6.161  12.718  14.337  0.0934  0.2082 -0.0356
25410W        W41884   1.963  11.321  12.735  0.1765  0.1420 -0.3161
25411W        W41885   2.197  11.933  16.212 -0.0044  0.0129 -0.0514
25412W        W41886  13.098  14.337  14.499  0.3092 -0.2707 -0.1782
25413W        W41887   0.578   5.412   6.117  0.0343  0.2779  0.0589
25414W        W41888   8.740  13.935  13.641 -0.0483  0.1400 -0.1591
25415W        W41889  16.753   2.105   2.353  0.2141 -0.0134  0.1446
25416W        W41890  17.542  17.006   1.472 -0.1665  0.4664  0.4764
25417W        W41891  14.387   9.379   0.346  0.0920  0.0543 -0.1131
25418W        W41892  15.100  14.495   3.952  0.1315 -0.1329 -0.0066
25419W        W41893  15.640  13.474   0.210  0.0687 -0.2211 -0.0696
25420W        W41894   7.646  10.238  16.843  0.1056  0.0825  0.1992
25421W        W41895   2.389  15.106  14.689 -0.0917 -0.0568 -0.2116
25422W        W41896  14.095  11.271  13.206 -0.5051 -0.1048 -0.3166
25423W        W41897  13.169  10.125  16.887 -0.0507  0.0719  0.0815
25424W        W41898  12.367   1.407  11.854  0.1631  0.0152  0.0897
25425W        W41899   5.498  12.317   4.088  0.0502 -0.1411  0.0619
25426W        W41900  16.060   3.079   5.226 -0.0752 -0.2433  0.0032
25427W        W41901   1.427   0.491   2.024 -0.0687  0.0454  0.1048
25428W        W41902  16.935   8.170   0.926 -0.0616 -0.1383 -0.2064
25429W        W41903   4.772  13.518   3.938  0.1246 -0.2690 -0.3533
25430W        W41904  14.271  15.592  14.962  0.2805  0.0568 -0.3592
25431W        W41905   8.434   3.191   5.876  0.2965 -0.0839 -0.1201
25432W        W41906   0.211   5.681  13.539 -0.0678 -0.1506  0.3870
25433W        W41907   0.087   4.891  13.096  0.2403 -0.0344 -0.0713
25434W        W41908   9.769   3.331   3.655  0.1432  0.0419 -0.0931
25435W        W41909  15.843   6.268  13.865 -0.0493  0.0067 -0.0251
25436W        W41910   0.953   3.175   1.667  0.3429 -0.3728 -0.0149
25437W        W41911  12.510  17.285  14.445 -0.1169  0.1608 -0.2540
25438W        W41912  13.285   3.508   0.312 -0.1737 -0.2017 -0.1107
25439W        W41913   5.546   4.259  15.793 -0.2841 -0.1043 -0.1531
25440W        W41914   6.030  14.877  13.391  0.2060 -0.1395  0.2263
25441W        W41915  15.342   7.488  11.843  0.2532  0.0045 -0.2969
25442W        W41916  15.791   1.997   5.164  0.0699 -0.0946 -0.1983
25443W        W41917   3.896   3.304   0.227  0.1902  0.2053  0.1541
25444W        W41918  16.241  17.165  12.160  0.2513  0.2220  0.0110
25445W        W41919  14.060   5.287   3.004 -0.4639 -0.0105  0.1379
25446W        W41920  16.627  15.371  12.137  0.1414  0.1124  0.2885
25447W        W41921  11.979   5.510   0.951  0.2584  0.1555 -0.6312
25448W        W41922  16.121  13.982  13.534 -0.0424  0.2654  0.1038
25449W        W41923   3.061  14.417   6.024  0.1617  0.1087  0.1673
25450W        W41924   9.599   2.703  16.861  0.0663 -0.0036  0.0818
25451W        W41925  17.476  12.144  16.155 -0.2646 -0.5447 -0.1099
25452W        W41926   7.626  13.045  14.862 -0.0973  0.1292 -0.1100
25453W        W41927   2.792  15.470   1.699 -0.1071  0.0315  0.0124
25454W        W41928   5.451   2.448  16.570 -0.0817 -0.0888  0.1014
25455W        W41929   7.423  10.245  12.278  0.0831 -0.0706  0.0411
25456W        W41930  17.339  15.484   0.377 -0.0656 -0.1019 -0.1806
25457W        W41931   8.711   6.157   2.124  0.0802  0.1124 -0.1069
25458W        W41932  16.082   7.356   2.799 -0.1104  0.2840  0.0109
25459W        W41933   4.603   6.531   4.453 -0.0922 -0.0094 -0.1081
25460W        W41934   3.208  12.898   1.537 -0.2170  0.3254 -0.0577
25461W        W41935  13.769  12.720   2.419  0.1109 -0.1343  0.1629
25462W        W41936   4.545  14.854   4.354 -0.1942 -0.2198  0.3124
25463W        W41937  16.886   0.118  14.801 -0.1107 -0.0231  0.2810
25464W        W41938   9.027   0.680   6.627  0.1646  0.0094 -0.0710
25465W        W41939   4.229   8.843  14.615  0.0579 -0.0144 -0.0145
25466W        W41940  13.069   0.670   4.366 -0.3420  0.4004  0.2868
25467W        W41941   5.925   9.859   1.335  0.1944 -0.0593 -0.1775
25468W        W41942   4.351  12.024   0.248  0.0239  0.0079  0.2801
25469W        W41943  14.614  16.296   5.763 -0.2398  0.1624 -0.2079
25470W        W41944   6.081   8.880   3.131 -0.0120 -0.1885  0.1042
25471W        W41945  10.411  17.094  14.334  0.1461  0.2174  0.4544
25472W        W41946   4.377   2.768   2.569 -0.2259 -0.0490 -0.1121
25473W        W41947   0.878  13.162  16.505  0.0797 -0.1039  0.0457
25474W        W41948   4.828  13.093   3.628 -0.0157 -0.1596  0.1709
25475W        W41949  15.547   2.685   1.306  0.0529  0.0384 -0.0021
25476W        W41950  10.574  15.697  10.752 -0.2045  0.2329 -0.0418
25477W        W41951   8.804   4.823   2.265 -0.1045 -0.3495 -0.2243
25478W        W41952  13.309  13.420   2.529  0.1166 -0.0886  0.3140
25479W        W41953  14.985   5.936   2.587 -0.0897 -0.4741 -0.2274
25480W        W41954   3.035   7.122   2.029  0.0717 -0.0160  0.0543
25481W        W41955   6.451  16.907  12.870 -0.0661  0.1090 -0.0928
25482W        W41956  10.538  16.938   5.520  0.0625  0.2415 -0.2545
25483W        W41957   3.585  15.863  13.411  0.1432  0.0467  0.2846
25484W        W41958   6.767   2.994   3.672  0.1422  0.1600 -0.1247
25485W        W41959  14.732   1.455  15.938 -0.1115  0.0753 -0.1733
25486W        W41960   9.388  12.089  16.033 -0.3462  0.0731 -0.2965
25487W        W41961  17.530   6.870   1.910 -0.0178  0.2672  0.1221
25488W        W41962  14.229  11.131   0.146 -0.0137 -0.0472 -0.2690
25489W        W41963  16.079   4.071   3.037 -0.1921  0.0374 -0.1261
25490W        W41964   5.963  11.420   4.953 -0.1375  0.1540  0.0291
25491W        W41965  11.827  16.897  14.936 -0.1230 -0.2498  0.1752
25492W        W41966   3.895   1.899  11.490 -0.0481 -0.1407 -0.1725
25493W        W41967   8.859  12.898  15.705  0.1818  0.1338 -0.0810
25494W        W41968  14.371   0.287   0.011  0.1172  0.0421 -0.0519
25495W        W41969  11.985   0.812  16.061 -0.0190 -0.1846 -0.0786
25496W        W41970  15.223   8.555  14.496 -0.3092  0.2126 -0.0637
25497W        W41971  12.736  16.311  11.376  0.0175 -0.3468 -0.1576
25498W        W41972  11.807   1.763   2.653  0.0788  0.2180 -0.0880
25499W        W41973  16.282  12.607  12.189  0.0952 -0.0481  0.1350
25500W        W41974  16.028   2.196   2.051 -0.0895 -0.1797 -0.3491
25501W        W41975   4.547   2.212   3.964  0.1404 -0.0450  0.1193
25502W        W41976  11.123   0.163  14.239  0.1829 -0.0154  0.1134
25503W        W41977   3.276  15.131   3.244 -0.2456 -0.0696  0.0786
25504W        W41978   8.699  10.494  14.895  0.0943 -0.4568 -0.0680
25505W        W41979   4.293   7.116  12.663  0.2169 -0.0468  0.0620
25506W        W41980  10.412   8.441   2.442 -0.0137  0.0909  0.1330
25507W        W41981   8.493  13.538   2.233 -0.1445  0.0594  0.1534
25508W        W41982   7.541  15.287   1.872 -0.1761  0.0716  0.0575
25509W        W41983   3.574  11.485  10.910  0.3382  0.1833 -0.0160
25510W        W41984   7.393  11.617  12.155  0.4186 -0.0481 -0.3903
25511W        W41985  13.451  17.461   3.002 -0.1209 -0.0900  0.1393
25512W        W41986   4.539  14.825  16.520  0.2497 -0.2214  0.2871
25513W        W41987   5.647   8.622   3.208  0.1294  0.1419  0.1280
25514W        W41988   5.017   1.543  13.420  0.2748 -0.0753 -0.1913
25515W        W41989   8.166  17.507   5.242 -0.1364 -0.2973 -0.0704
25516W        W41990   4.383   8.424   1.949 -0.0159 -0.1582 -0.0679
25517W        W41991   9.443   3.338   1.394 -0.1426  0.4026 -0.2231
25518W        W41992   0.370   8.580  11.160 -0.1105  0.1226  0.0129
25519W        W41993   3.434   4.404  14.147  0.1978  0.0211  0.1486
25520W        W41994  17.535   9.902   1.336  0.0141 -0.0646 -0.1243
25521W        W41995  11.886  13.194   3.409 -0.0594 -0.1232 -0.0059
25522W        W41996  13.481  14.249   3.718  0.0236  0.0181  0.2905
25523W        W41997   0.829  10.373  11.867 -0.0884  0.2108  0.3412
25524W        W41998  14.742   0.020   1.842 -0.0587 -0.1419 -0.2735
25525W        W41999   6.903   6.902   1.000 -0.1097  0.2569  0.0691
25526W        W42000  16.449  12.878   3.284  0.0160  0.0443 -0.2861
25527W        W42001  13.133  16.071  13.063 -0.1002 -0.0087  0.1586
25528W        W42002   2.135   7.714  14.957 -0.3070  0.0335  0.0211
25529W        W42003  16.442   4.570   1.771  0.1150 -0.0393 -0.1395
25530W        W42004  11.027   8.626   2.324 -0.2062 -0.5720  0.1434
25531W        W42005   1.227   5.283  14.250 -0.0058  0.0952  0.0613
25532W        W42006  15.746   4.396   2.986  0.1966 -0.0972 -0.2076
25533W        W42007  13.922  10.686   5.058  0.4616  0.0539  0.1729
25534W        W42008  12.723  14.703   2.373  0.1489  0.0485  0.2104
25535W        W42009   6.023   7.009   5.585 -0.0933 -0.1334  0.0490
25536W        W42010  10.822   1.415   2.195 -0.0402  0.0514 -0.1334
25537W        W42011  11.323   3.074  14.325  0.1318  0.2341 -0.1808
25538W        W42012   0.910   0.886   1.237  0.1919 -0.1159  0.0524
25539W        W42013  13.417  12.228   0.472 -0.0700  0.1495  0.3933
25540W        W42014   1.208   8.605  15.363 -0.0781  0.0490 -0.0754
25541W        W42015  10.952   2.474  12.730 -0.0268 -0.3417 -0.3135
25542W        W42016  12.615   2.214  13.447 -0.0219 -0.1150  0.4755
25543W        W42017   5.167  17.307   2.168 -0.1939 -0.2346 -0.0409
25544W        W42018  16.972  16.113  13.447  0.0055  0.0952 -0.1567
25545W        W42019   0.101  12.471   3.887 -0.0078  0.0165  0.2215
25546W        W42020   4.207  11.994  15.264 -0.0057 -0.0986 -0.3458
25547W        W42021  10.605   2.312   2.340 -0.2812  0.1287 -0.5802
25548W        W42022  14.591  11.609   4.012  0.2580 -0.1398  0.0486
25549W        W42023   8.143  17.747   1.071 -0.1327 -0.0451  0.1239
25550W        W42024   9.563  16.751   4.022  0.0754  0.1510  0.1366
25551W        W42025   0.729  17.404  12.492  0.1563 -0.0994 -0.2449
25552W        W42026   7.886  14.187   5.411 -0.0921  0.2850 -0.3921
25553W        W42027   5.776   5.932   0.053  0.1741  0.1060 -0.1449
25554W        W42028  12.519   8.460  15.839  0.2350 -0.2125 -0.1097
25555W        W42029   7.638   2.073   2.987 -0.0347 -0.2029 -0.0502
25556W        W42030  11.386   0.457  12.948 -0.0543 -0.1430  0.0409
25557W        W42031  12.024   5.177   3.715  0.0626 -0.2072  0.3475
25558W        W42032   9.012  13.507  14.547  0.0064  0.1805  0.4030
25559W        W42033   6.219  16.778  16.521 -0.0371  0.1356  0.0374
25560W        W42034   9.119   0.783  15.188 -0.0803 -0.0788  0.1577
25561W        W42035   1.665   9.309   4.867  0.0177  0.2583 -0.0441
25562W        W42036   4.313   8.186  13.755 -0.1882 -0.0828 -0.0383
25563W        W42037   8.903   5.261   1.021  0.0277  0.1146 -0.0102
25564W        W42038   9.122  14.917  16.238 -0.1202  0.0524 -0.1391
25565W        W42039   2.068  14.187   2.446  0.0434 -0.2172  0.0607
25566W        W42040   3.120  16.983   1.940 -0.2756 -0.1130 -0.2539
25567W        W42041   3.163   0.544  16.126  0.1440  0.0392 -0.4016
25568W        W42042   5.013   6.986  15.568 -0.2891 -0.0088 -0.0588
25569W        W42043  12.487  12.855  14.942 -0.2346 -0.1472 -0.1946
25570W        W42044   9.190   9.048  15.265 -0.3738 -0.0472 -0.2262
25571W        W42045  14.171  10.237  13.905 -0.3308  0.0101 -0.0991
25572W        W42046  16.991  14.560  16.251  0.1191  0.0487  0.1759
25573W        W42047   7.654   6.248  14.354 -0.3263  0.0262 -0.0478
25574W        W42048  14.467   6.166   5.387 -0.2421 -0.2406 -0.3078
25575W        W42049  17.812   9.339  12.017 -0.0151 -0.0034 -0.0230
25576W        W42050  15.477   2.139   4.849  0.3765 -0.1984  0.3473
25577W        W42051   2.703   0.486  15.102  0.0347 -0.2697  0.2854
25578W        W42052   8.695   4.167   6.125  0.1927  0.0740  0.1583
25579W        W42053  13.062   2.250  16.482 -0.0893 -0.2402  0.1587
25580W        W42054   6.773   7.464  12.909 -0.1149 -0.2859 -0.3395
25581W        W42055   5.681   0.446   2.043 -0.1861 -0.0715  0.0927
25582W        W42056   8.432   7.400   5.566 -0.3408 -0.0729 -0.1572
25583W        W42057  11.134  16.284   0.328 -0.0442  0.0221 -0.0986
25584W        W42058   8.924   3.215   1.613  0.0483 -0.3412  0.0926
25585W        W42059   8.265   5.305   1.813 -0.0985 -0.2515 -0.1522
25586W        W42060   0.297   0.892   2.283  0.1074  0.0676 -0.1306
25587W        W42061   3.139   6.140   3.924  0.0251  0.0643 -0.2078
25588W        W42062   3.620   8.538  15.829  0.0522  0.3312  0.0106
25589W        W42063   8.202  17.506  12.146 -0.0541  0.0025 -0.1284
25590W        W42064   5.805   4.004   1.016  0.0997 -0.3259  0.2106
25591W        W42065   9.893   3.774  13.612 -0.2043  0.0488 -0.1700
25592W        W42066   4.780   8.620   5.254  0.0701  0.1087 -0.0692
25593W        W42067  12.333  12.964  13.945  0.0067  0.1511  0.0491
25594W        W42068   5.213   3.737   2.515 -0.2658  0.1221  0.2807
25595W        W42069   4.807   4.144   2.539 -0.1698  0.0114 -0.3513
25596W        W42070  10.200  11.555  12.976  0.1614  0.2286 -0.1287
25597W        W42071   6.503   2.210  13.893 -0.0136  0.0007  0.0344
25598W        W42072  13.103   2.988   0.479  0.2930 -0.0812  0.0180
25599W        W42073  16.818   9.955   4.812 -0.3025  0.0140  0.1452
25600W        W42074   8.591  13.585  16.198 -0.0859  0.0904  0.1191
25601W        W42075  14.714  16.228   1.970  0.1296  0.0325  0.0609
25602W        W42076  10.542   9.831  11.747  0.1322  0.0573 -0.1191
25603W        W42077   7.938  15.007  12.361 -0.1824  0.2546  0.0242
25604W        W42078  14.947  14.427   4.612 -0.2042  0.3310 -0.0042
25605W        W42079  12.572   7.979  15.684  0.3287 -0.5209  0.0212
25606W        W42080   4.168   9.432  13.266  0.0511  0.0317  0.2121
25607W        W42081  11.015   0.313  15.996 -0.0135  0.2278 -0.1378
25608W        W42082   4.212  15.789  15.873  0.0208 -0.0007 -0.1713
25609W        W42083   9.215   3.806  13.438 -0.5142 -0.0171 -0.2869
25610W        W42084   5.722  15.809   4.147  0.1795  0.0870  0.0398
25611W        W42085   9.309  15.598   4.045  0.4645  0.0205  0.1631
25612W        W42086   9.125  17.498   2.228  0.3150 -0.1198  0.1542
25613W        W42087   6.321   3.178   5.258  0.1169  0.1004  0.1765
25614W        W42088  17.645  10.384  11.460 -0.1716  0.0862 -0.0163
25615W        W42089   1.448   8.839   4.721 -0.1997 -0.0554  0.1209
25616W        W42090   9.797   3.058   3.180  0.0118 -0.0702 -0.0664
25617W        W42091   4.082   4.055  15.669 -0.1628 -0.0657 -0.0249
25618W        W42092  13.542  10.581   4.530 -0.0615 -0.3784 -0.2400
25619W        W42093  10.785  10.331  15.910  0.0641 -0.3414  0.0716
25620W        W42094  14.157  16.912  16.073 -0.0052  0.0663 -0.0517
25621W        W42095  16.501  10.974  14.636  0.1854 -0.1536 -0.4773
25622W        W42096   9.411  15.583   4.782  0.1448  0.3463  0.0871
25623W        W42097   0.539  14.815  15.995  0.2621 -0.2257 -0.0768
25624W        W42098  15.720  13.063  13.382 -0.1166 -0.0113  0.3144
25625W        W42099   5.784   6.883   2.008 -0.1554 -0.1797 -0.2953
25626W        W42100   6.098  12.854   2.900 -0.2621 -0.0908  0.2387
25627W        W42101  15.384   6.978   1.723  0.3685 -0.4970 -0.1466
25628W        W42102   8.700   4.629  15.609 -0.1046 -0.0077  0.2393
25629W        W42103  14.814  16.520  14.721 -0.1169 -0.1925 -0.1557
25630W        W42104  13.787  17.518  14.651  0.0619  0.0209 -0.0318
25631W        W42105  12.199   2.563  11.455 -0.2771  0.6052 -0.0687
25632W        W42106   8.268   0.177  12.213 -0.1687 -0.2225 -0.1889
25633W        W42107   2.808   1.126   4.739 -0.1099 -0.2370  0.0323
25634W        W42108   9.802  13.752   6.190  0.1968 -0.0137 -0.2906
25635W        W42109  10.309   1.796  12.453  0.3212 -0.3738 -0.1301
25636W        W42110  11.303  14.196   3.364 -0.1388  0.1613  0.0628
25637W        W42111  10.307   8.070  13.013 -0.0375 -0.1839  0.2160
25638W        W42112  17.722   4.798   1.780 -0.1755 -0.0563  0.2436
25639W        W42113  11.788  17.445  15.034 -0.1810 -0.0405  0.2344
25640W        W42114  17.539  15.297  16.204 -0.1771 -0.2166 -0.2179
25641W        W42115   1.498   7.497   4.881  0.1760  0.1231 -0.1946
25642W        W42116  14.099  13.283   5.729  0.1152  0.0561 -0.0960
25643W        W42117   3.788   0.435   2.016 -0.1346 -0.2171  0.3232
25644W        W42118  13.003   6.750  16.668 -0.1008 -0.2404  0.0156
25645W        W42119  15.906  11.430   5.545 -0.1728 -0.1394 -0.0218
25646W        W42120   6.197  15.678   4.745 -0.0954 -0.1550  0.1994
25647W        W42121  10.338   5.169   1.618  0.0497  0.0816  0.2272
25648W        W42122   9.048  10.588  11.614  0.3229 -0.1894 -0.0253
25649W        W42123  16.049  16.770  14.103 -0.3486  0.1658 -0.1343
25650W        W42124   5.100   3.365   0.101  0.0184  0.2462  0.0792
25651W        W42125   1.150  11.363   1.657  0.1342 -0.0039 -0.1398
25652W        W42126   3.752   8.218  16.306 -0.4097 -0.0602  0.2810
25653W        W42127  16.496   9.540  13.438  0.1857  0.0817 -0.4045
25654W        W42128   0.457  13.495  13.551 -0.0576 -0.1608 -0.2206
25655W        W42129  12.734   6.439  12.489  0.1699  0.1902  0.1330
25656W        W42130   0.192   0.718   5.641  0.1923 -0.2028  0.0198
25657W        W42131  13.282   7.804   2.644 -0.0093  0.1104 -0.0283
25658W        W42132  17.059  14.800   4.717 -0.1567  0.0331 -0.1619
25659W        W42133  15.071   7.004   2.660  0.0636  0.0240  0.3270
25660W        W42134   7.901   5.111  14.554 -0.1317 -0.1105  0.2759
25661W        W42135  15.695   0.487   3.274  0.0843  0.1997  0.2245
25662W        W42136   4.607  12.409  15.160  0.0232 -0.1416  0.2688
25663W        W42137   9.446   8.738  12.365 -0.2675 -0.4124  0.1506
25664W        W42138   3.482   3.658  12.180  0.1442 -0.0434  0.1117
25665W        W42139   9.511  14.502   1.781 -0.0589 -0.0885 -0.1217
25666W        W42140  15.753   5.029   5.427 -0.0717  0.0052  0.3071
25667W        W42141   1.070  15.091   2.499 -0.0557 -0.0031 -0.0916
25668W        W42142  10.788  11.828   4.140  0.1017 -0.1821  0.1451
25669W        W42143   6.936   5.314   3.839 -0.0045  0.1552  0.0571
25670W        W42144   8.327  15.044   1.392  0.4326 -0.0814  0.2294
25671W        W42145   6.758  10.282   5.659 -0.1511  0.0381 -0.2704
25672W        W42146  17.413   7.701  13.847  0.1264 -0.2998 -0.1629
25673W        W42147   1.491   2.788   5.080  0.4527  0.0932  0.0069
25674W        W42148   0.393  11.312  16.913  0.3576 -0.0162  0.0241
25675W        W42149   1.477  16.870   0.003  0.2219 -0.2759  0.1636
25676W        W42150   4.464  12.863   5.302 -0.0835 -0.0850 -0.0314
25677W        W42151   8.736   8.088  12.166  0.0358 -0.2758 -0.1175
25678W        W42152   3.624   4.604   0.217 -0.1493  0.0522 -0.2779
25679W        W42153  13.474   6.820   3.677  0.1344 -0.1421  0.0682
25680W        W42154   0.968   6.911   2.039  0.0509 -0.0369 -0.1113
25681W        W42155   3.206  13.867   5.705  0.3557  0.0105 -0.1966
25682W        W42156   7.074  14.150   2.904  0.0505 -0.3564 -0.0095
25683W        W42157   5.880   8.533   5.321  0.0342  0.0056  0.1407
25684W        W42158  12.061  13.829  13.636  0.1207  0.2748  0.0980
25685W        W42159  12.984   8.198   6.520  0.0401 -0.1121 -0.0497
25686W        W42160  17.186   2.016  15.772 -0.0261 -0.0857 -0.1711
25687W        W42161   4.565   3.270  15.284  0.0978 -0.0590  0.1388
25688W        W42162  17.813  14.651  13.114 -0.0620 -0.0438  0.0125
25689W        W42163   3.514   6.538   0.653 -0.0117 -0.0650  0.0024
25690W        W42164   8.920  13.437   3.191  0.0162  0.0412  0.1140
25691W        W42165   4.606   9.741   2.697 -0.1935 -0.0067  0.0079
25692W        W42166  12.849   2.620  13.080  0.1278  0.2282  0.1843
25693W        W42167   1.690  16.261  12.827  0.3037  0.2353 -0.0293
25694W        W42168   2.073  10.807  16.469 -0.3447  0.1773  0.0556
25695W        W42169  12.018  11.068   5.456 -0.0843 -0.2933  0.1115
25696W        W42170  12.106   1.639  12.891  0.0963  0.1168  0.0730
25697W        W42171   3.699  14.537  16.408  0.0056  0.1355 -0.0493
25698W        W42172   9.564   4.637  15.306  0.0315 -0.2121 -0.1136
25699W        W42173  14.311  16.236  16.854  0.0184  0.1859 -0.0574
25700W        W42174   8.607  15.858   5.145  0.1079  0.1950  0.0724
25701W        W42175   3.820  10.850  12.921  0.0450  0.2476  0.1586
25702W        W42176   4.447   7.484  16.035  0.2041  0.0676  0.0139
25703W        W42177   8.388   3.029   0.871 -0.0565 -0.2802  0.0213
25704W        W42178   8.686   4.042   0.713 -0.2089  0.0369 -0.1753
25705W        W42179   3.263  16.019  16.006  0.0787  0.2096 -0.3062
25706W        W42180  11.403  17.293  12.222 -0.0334 -0.0430  0.0625
25707W        W42181  10.149  15.694   3.052  0.2731  0.2749 -0.2954
25708W        W42182  16.466  16.101  13.370 -0.0382  0.0518 -0.1898
25709W        W42183   9.954   7.565   3.481  0.1050  0.1640  0.1979
25710W        W42184  16.425   6.040   3.907  0.2017 -0.3165  0.0091
25711W        W42185   0.101  12.339   0.146  0.2426  0.1756 -0.0417
25712W        W42186  16.703   6.007   2.515 -0.2509  0.0600  0.0272
25713W        W42187   3.574   9.633   3.081  0.1531  0.1396 -0.0003
25714W        W42188  14.223   7.747  15.281 -0.1624 -0.0553 -0.0006
25715W        W42189  17.379   3.035  12.513 -0.2749 -0.1549 -0.0318
25716W        W42190   7.341   5.936   1.742  0.0811 -0.1443 -0.3773
25717W        W42191   8.744   9.232  13.209  0.0833  0.1848  0.2175
25718W        W42192  11.659  10.217   0.800 -0.0809  0.1205 -0.1978
25719W        W42193   3.939  10.465   4.739  0.2331 -0.1811  0.1444
25720W        W42194  17.697  14.431   5.524 -0.1405  0.1828  0.1855
25721W        W42195  12.334  17.585  14.940 -0.1245  0.1119  0.2169
25722W        W42196  16.145   3.521   5.409 -0.0031 -0.1460 -0.0156
25723W        W42197   2.003   2.873   4.552 -0.3015  0.0795 -0.0590
25724W        W42198   1.982   6.839  14.587 -0.0198 -0.2610  0.1070
25725W        W42199   9.108   9.432   0.176 -0.2393  0.1604  0.3327
25726W        W42200  12.465   0.278  15.019  0.1549  0.2548 -0.1322
25727W        W42201   8.398  12.293  16.495 -0.3664  0.0164 -0.3254
25728W        W42202   3.543  17.128  13.571 -0.1117 -0.0726 -0.0928
25729W        W42203   3.726  13.481  12.757 -0.3518  0.0283  0.1626
25730W        W42204  14.958  15.157  16.556  0.1487 -0.1133 -0.2017
25731W        W42205   2.676   5.215  13.231 -0.2124  0.1733 -0.0327
25732W        W42206  12.172  16.708   0.269 -0.0181  0.1690 -0.2662
25733W        W42207   7.209   9.305   5.787 -0.2237 -0.0323 -0.1070
25734W        W42208  13.946  14.686   1.204  0.1279 -0.0248  0.4452
25735W        W42209  16.816   3.785   2.131 -0.0703 -0.0424  0.0154
25736W        W42210   5.279  12.052   1.362  0.2113 -0.0619  0.3203
25737W        W42211  12.386  14.500  15.526  0.3149  0.1336  0.3667
25738W        W42212   4.647  12.934  15.641 -0.1584  0.0920  0.0065
25739W        W42213  17.099  12.172   1.820  0.1048 -0.1335 -0.1645
25740W        W42214   7.244  12.528   1.215 -0.0160 -0.0514  0.2948
25741W        W42215  11.096   2.653   2.151 -0.1138 -0.1462  0.1497
25742W        W42216   6.972   4.724   1.382 -0.1873  0.0218 -0.2278
25743W        W42217  11.341  14.218   0.861  0.1439  0.0539  0.2466
25744W        W42218  10.463   9.785  12.603 -0.0294  0.1685  0.1531
25745W        W42219  11.245   9.559  12.134  0.3126  0.2598 -0.1582
25746W        W42220   2.665  17.558  12.334 -0.1096  0.0948  0.1361
25747W        W42221  10.674  15.919   4.369  0.0227 -0.5438 -0.0349
25748W        W42222  14.671   6.472   4.169 -0.1844  0.1923 -0.0770
25749W        W42223   0.398   1.407  12.101  0.3129 -0.2867 -0.0090
25750W        W42224   9.450   4.085   4.931 -0.4141  0.1886  0.1613
25751W        W42225   4.912  16.188   1.756 -0.0739  0.1623  0.2098
25752W        W42226   2.218   5.186  14.089  0.0006 -0.0485 -0.0780
25753W        W42227   9.551  11.754  15.233 -0.0827  0.2794 -0.3008
25754W        W42228   1.666   0.248   2.514  0.1154 -0.0877  0.0267
25755W        W42229   1.715   2.742  15.084  0.0642 -0.1967  0.2218
25756W        W42230  15.078   4.731   4.612 -0.3518  0.2502  0.0589
25757W        W42231  17.605   8.491  15.327  0.2465  0.1025  0.3352
25758W        W42232  10.005   7.549  12.376 -0.0433  0.0713 -0.3353
25759W        W42233   7.715   3.272   1.646 -0.1761 -0.2422  0.1303
25760W        W42234  11.370   2.611  11.814  0.2383 -0.1507 -0.0661
25761W        W42235  16.336  14.395  15.486  0.0953  0.0266  0.2738
25762W        W42236   7.049   5.269  16.376  0.2249  0.0719  0.1485
25763W        W42237  15.382  14.031   2.906 -0.1456  0.1520 -0.2764
25764W        W42238   7.863   7.869   4.005  0.0933  0.2565 -0.3291
25765W        W42239  11.014   9.167  13.945 -0.1338  0.1705 -0.3923
25766W        W42240  17.085  17.017  15.621 -0.3583  0.0052 -0.0491
25767W        W42241   7.038   3.931   1.566  0.0954 -0.3331  0.0021
25768W        W42242   4.536  17.073  15.168  0.0648 -0.0079  0.2076
25769W        W42243   2.060   0.698   4.699 -0.0988 -0.1306  0.1653
25770W        W42244  13.850  14.106   1.950 -0.2175  0.1792  0.3407
25771W        W42245   9.701  12.658   1.883  0.1101 -0.1907 -0.1844
25772W        W42246   5.144  15.005   6.176 -0.1599  0.1388 -0.1184
25773W        W42247   9.260  12.375   0.799  0.0932  0.0636 -0.2490
25774W        W42248  17.692   6.157   4.535  0.4131  0.2076  0.3414
25775W        W42249   6.354  13.045  14.039 -0.1849  0.1278  0.2835
25776W        W42250  14.874   4.190   3.014 -0.2699  0.2045  0.1086
25777W        W42251   2.139  10.767   3.684  0.1439 -0.2908 -0.1337
25778W        W42252  11.204   4.840   4.077 -0.1888  0.2435  0.1209
25779W        W42253   7.638   3.673   0.825 -0.1021 -0.3403  0.1220
25780W        W42254   9.316   6.158  15.859  0.2056  0.0773  0.1204
25781W        W42255   5.275   1.612   4.835 -0.0035  0.0917  0.1642
25782W        W42256  15.565   1.594   4.367  0.2001 -0.3041  0.1153
25783W        W42257   0.005  13.457  15.868 -0.3845 -0.1346 -0.1406
25784W        W42258  11.508   3.557  14.175  0.2037  0.1762 -0.1448
25785W        W42259  14.932   8.719  15.871 -0.0936  0.0359 -0.4276
25786W        W42260  10.696   8.153   5.126  0.1336  0.1391 -0.1435
25787W        W42261   9.146  12.391  16.429  0.2239 -0.1186  0.0937
25788W        W42262   3.690  10.439  12.595  0.3353  0.1977  0.4744
25789W        W42263   6.071  12.036   0.633  0.0137  0.1498  0.0139
25790W        W42264   1.152  13.161  14.344 -0.0372  0.4204  0.0930
25791W        W42265  17.017   5.843  12.100 -0.1401  0.0175 -0.1357
25792W        W42266  11.018   4.166   2.937 -0.0062  0.0004  0.3731
25793W        W42267  15.971  15.659   0.641 -0.5172 -0.0104  0.1582
25794W        W42268  11.805   3.694  12.289 -0.0568 -0.1630  0.1038
25795W        W42269   2.619  17.066   1.774 -0.1660  0.0967 -0.0208
25796W        W42270   4.375   9.393   5.052  0.0532  0.2618 -0.0861
25797W        W42271   3.740  12.002   5.268 -0.1086  0.3173 -0.0421
25798W        W42272   6.910   4.868  16.055 -0.1907  0.3035 -0.1067
25799W        W42273  11.690   6.566   4.738 -0.3126 -0.0219  0.2233
25800W        W42274  16.558   5.599   0.804 -0.2131  0.1203  0.0847
25801W        W42275  17.336   2.678  15.688 -0.0067 -0.0288  0.0930
25802W        W42276   9.343  17.824   4.878  0.1788  0.1220 -0.0306
25803W        W42277  10.244   0.084  14.139 -0.1009  0.0997  0.0370
25804W        W42278   9.744   7.682  11.963 -0.2791 -0.0038  0.2213
25805W        W42279   1.588  10.027   3.268  0.0371  0.0198  0.2979
25806W        W42280  12.220   5.749  13.769 -0.0956 -0.0630  0.0297
25807W        W42281  14.993  15.401  13.937 -0.4635  0.2355  0.1667
25808W        W42282  11.029  11.410  13.942  0.1742  0.0452 -0.1416
25809W        W42283   0.912  17.555   6.097 -0.1172 -0.4382  0.1327
25810W        W42284   8.739  13.866  12.352 -0.0301 -0.3305  0.1843
25811W        W42285  15.608   6.954  16.734  0.3522  0.2886 -0.0443
25812W        W42286   8.415   5.429   5.276  0.1875  0.0283 -0.0137
25813W        W42287   5.598  15.285  12.306 -0.2476  0.0587  0.0129
25814W        W42288  11.257  13.296  13.567 -0.1339  0.0400 -0.2549
25815W        W42289  13.863  12.218   3.879  0.0291  0.0346  0.0039
25816W        W42290   1.691  16.948  11.627 -0.1444  0.1786 -0.2051
25817W        W42291  15.228   8.773  11.845 -0.0125 -0.1831  0.0184
25818W        W42292   0.035  14.303   4.370  0.3886 -0.0189 -0.0992
25819W        W42293  15.858  12.104  16.740  0.1359  0.1957  0.0458
25820W        W42294  10.220  16.190  14.183 -0.2214 -0.1596  0.0158
25821W        W42295  14.277   7.435  13.670  0.0848 -0.2171 -0.1028
25822W        W42296   0.109  15.507   1.582 -0.1768  0.3686  0.3281
25823W        W42297   6.624   6.935   1.756 -0.1451 -0.1077 -0.2355
25824W        W42298   1.001  15.392  15.027 -0.0252 -0.2544  0.0541
25825W        W42299   6.811  16.970  16.818 -0.0052  0.0983 -0.1979
25826W        W42300  13.204   4.207  16.736  0.0118  0.3625  0.1706
25827W        W42301   7.215   3.133  13.210 -0.1739 -0.2735  0.0645
25828W        W42302   1.832   1.441   4.830  0.0259 -0.0467 -0.3663
25829W        W42303   8.110  11.811  15.114 -0.1366 -0.1588  0.0168
25830W        W42304  11.774   6.363  12.594  0.1027  0.1261 -0.1028
25831W        W42305   9.424  12.542  15.558 -0.0212 -0.0000  0.0922
25832W        W42306   6.168   7.028   5.091  0.0972 -0.2046  0.0089
25833W        W42307  15.352   6.626  16.168  0.0208  0.2726 -0.0711
25834W        W42308   0.159   1.465  12.601 -0.0115  0.3140  0.1270
25835W        W42309  12.454   1.025   1.504 -0.0761 -0.0814 -0.1126
25836W        W42310  17.819  13.793   4.317  0.2785  0.3124  0.1743
25837W        W42311   7.493  10.720   5.797  0.0666 -0.0185 -0.0988
25838W        W42312   5.958  14.509   6.300 -0.2266 -0.0296 -0.0271
25839W        W42313   8.530   7.139   3.904 -0.0965 -0.0255 -0.3636
25840W        W42314   5.188  12.868   1.620  0.1939  0.0714 -0.1995
25841W        W42315   6.669   5.669  13.185 -0.1043 -0.4000 -0.2965
25842W        W42316  17.479   5.776   1.836  0.0015 -0.4791  0.1307
25843W        W42317   9.171  14.080  13.474 -0.0117  0.1615  0.3329
25844W        W42318   6.854   5.830   0.723 -0.0989  0.0929 -0.1044
25845W        W42319   0.225   0.483  13.036 -0.2568 -0.2713  0.1155
25846W        W42320   7.539   4.484  12.772  0.2603  0.2992 -0.3808
25847W        W42321  13.558  13.885  13.400  0.0487  0.4734 -0.0629
25848W        W42322  15.983  10.715   3.009 -0.0997 -0.1359  0.0803
25849W        W42323  11.900  11.347  15.612 -0.1978  0.2198 -0.1487
25850W        W42324   6.166   5.634  12.902  0.1293 -0.0531 -0.0643
25851W        W42325  16.550  11.509  13.970  0.0500  0.0979 -0.1548
25852W        W42326  13.837   2.824   0.639 -0.1233  0.1185 -0.1195
25853W        W42327  10.499  10.182   0.515 -0.4172  0.1359  0.1274
25854W        W42328   8.559   5.098  14.903  0.1483 -0.2240  0.0118
25855W        W42329   1.465   9.978   2.665 -0.0644 -0.0460 -0.1740
25856W        W42330  11.453   8.170  13.409  0.2592 -0.1509  0.2295
25857W        W42331   0.937   7.467   0.263  0.0659 -0.1924  0.0062
25858W        W42332   6.818   0.664   3.244  0.1828 -0.3433  0.2545
25859W        W42333  13.795   2.713   1.792 -0.0385  0.2120 -0.1401
25860W        W42334   9.575  13.626   0.649 -0.0634 -0.0389 -0.0884
25861W        W42335  13.232   4.827   2.047  0.0278 -0.2100 -0.1367
25862W        W42336   6.519   7.128   2.758  0.0861  0.0107 -0.2040
25863W        W42337   3.833   5.918   5.452 -0.1335 -0.0942  0.0162
25864W        W42338   4.511   7.694   4.996 -0.4019  0.1008 -0.1001
25865W        W42339  11.992  13.169   1.089 -0.2232 -0.1248  0.0153
25866W        W42340   1.389   8.033   0.921 -0.1371  0.0786  0.0734
25867W        W42341   4.077   3.591   4.608 -0.1738  0.0161  0.4571
25868W        W42342   0.495  12.028  14.902 -0.1676 -0.0421 -0.2169
25869W        W42343   5.854  15.210  16.078  0.1493 -0.3291  0.1129
25870W        W42344   2.962  15.369  15.269 -0.2433  0.2578  0.0214
25871W        W42345   9.570   2.824  13.595 -0.0571  0.0162 -0.2344
25872W        W42346   3.095  16.379   4.964  0.3577  0.0676  0.0195
25873W        W42347  14.442   2.577  15.183 -0.1320 -0.0517  0.0477
25874W        W42348   6.768   9.616   3.990 -0.1480  0.1373 -0.3855
25875W        W42349  17.574   5.373  16.886  0.1442  0.4090 -0.2840
25876W        W42350  10.057  10.481  15.926 -0.1564 -0.0988  0.0675
25877W        W42351  12.932  16.310  13.985 -0.1480 -0.0255 -0.0405
25878W        W42352   8.347  14.586  16.766 -0.1785 -0.0977 -0.1421
25879W        W42353  12.047  14.263   2.737 -0.1841 -0.0931 -0.1670
25880W        W42354  11.853  10.170   5.240  0.2521  0.0373  0.2379
25881W        W42355   9.851   4.619  12.448 -0.1580  0.1026 -0.0954
25882W        W42356   2.503   5.488   5.206 -0.0558 -0.1036  0.1531
25883W        W42357   2.041   9.467  12.232  0.0107 -0.0557  0.3861
25884W        W42358  17.373  11.862   1.500 -0.0755 -0.0684 -0.1774
25885W        W42359   8.533  15.330  13.447  0.0133 -0.0754 -0.0090
25886W        W42360  12.725   5.596  16.600 -0.1506  0.0700 -0.1122
25887W        W42361  15.023   5.862   4.570 -0.0399  0.4422  0.2653
25888W        W42362  15.550   5.479   2.008 -0.0410  0.1980 -0.0590
25889W        W42363   3.755  14.379   4.660 -0.0424  0.2861  0.1498
25890W        W42364   2.140  13.031   1.961  0.1678  0.1800  0.1125
25891W        W42365   9.058   3.075  13.668 -0.0559  0.2750 -0.1984
25892W        W42366  13.677   4.204   4.616 -0.0408  0.3296  0.1151
25893W        W42367   7.657   9.709  12.782 -0.0708  0.2115 -0.0000
25894W        W42368  10.416   3.477  14.981 -0.2533  0.1086 -0.5237
25895W        W42369   1.664   2.877  11.946  0.1726 -0.4373  0.4607
25896W        W42370  11.626  17.676  13.844 -0.2701 -0.0013 -0.4123
25897W        W42371   0.666   0.711  13.551  0.0825 -0.1655 -0.0280
25898W        W42372   5.268  17.272   0.004  0.0318  0.1804  0.1428
25899W        W42373   4.409  15.544  15.429 -0.1236  0.2324  0.0695
25900W        W42374   7.647  17.782  13.387 -0.0318 -0.4635 -0.1624
25901W        W42375  14.597  15.475   2.964  0.2341 -0.0793 -0.0073
25902W        W42376   6.307  12.344   3.704  0.0142 -0.1465 -0.0126
25903W        W42377  11.281   9.741   2.235 -0.2302  0.2821 -0.2341
25904W        W42378   0.739  17.603  13.485 -0.1719  0.1145  0.0311
25905W        W42379   3.141   9.432  13.242 -0.1238 -0.0264 -0.0100
25906W        W42380   9.863  11.156   1.093 -0.0993 -0.0679  0.2092
25907W        W42381  10.859  16.486   1.211 -0.1334  0.0110  0.0176
25908W        W42382   6.424  10.288   1.369 -0.1649  0.1114 -0.1112
25909W        W42383   4.750   5.440  11.283 -0.3288 -0.3669 -0.0762
25910W        W42384  13.562   5.169   1.828 -0.0142  0.2769 -0.1059
25911W        W42385   2.593  15.970   1.683  0.1061  0.1561  0.0504
25912W        W42386  11.651   2.554   2.101 -0.2744 -0.0032 -0.1660
25913W        W42387   8.247  14.968   4.455 -0.0753  0.0338  0.0524
25914W        W42388  17.401   2.631   3.212  0.0321 -0.1502 -0.1151
25915W        W42389   2.602  12.931   4.424 -0.0493  0.0687 -0.1988
25916W        W42390  14.999  16.356   1.590  0.0524  0.0597  0.1059
25917W        W42391  14.372  15.344   4.796  0.0832  0.2959  0.1196
25918W        W42392  16.134  17.152   4.685  0.1316  0.1038 -0.0729
25919W        W42393  11.925  14.270  15.597  0.1550 -0.1316  0.0580
25920W        W42394  16.509  14.842   3.240  0.0808 -0.1108  0.1862
25921W        W42395  15.837  14.980   0.073  0.6214 -0.0766 -0.2026
25922W        W42396  13.943  12.750   6.238 -0.1488  0.3061 -0.3115
25923W        W42397   2.175  13.026   0.948  0.0881  0.0405 -0.1768
25924W        W42398   7.439   8.108  16.887  0.2780  0.0469 -0.0312
25925W        W42399   9.701  16.456  14.190 -0.0650 -0.1732  0.1085
25926W        W42400   6.835  13.276  16.621 -0.0401  0.4763  0.0236
25927W        W42401  11.127  12.055  13.400 -0.0655 -0.1283 -0.1618
25928W        W42402   1.713  11.177  16.500 -0.1551  0.0706  0.3439
25929W        W42403   5.197   9.669   5.294  0.1180 -0.0018  0.0317
25930W        W42404   2.787   6.001   0.171 -0.0303 -0.1438 -0.0592
25931W        W42405  12.686  12.975  16.434 -0.0692 -0.1441  0.0601
25932W        W42406   7.347   6.827   0.139 -0.2920  0.1763 -0.2623
25933W        W42407  11.871  14.330  14.644 -0.1212  0.1342 -0.0595
25934W        W42408  16.616  12.995   0.116  0.1213  0.1835 -0.1051
25935W        W42409   7.842   8.307   0.179  0.1050 -0.0599  0.0030
25936W        W42410   1.488  15.189   3.343 -0.2859 -0.1234  0.0108
25937W        W42411  14.984  14.789  12.510 -0.0361 -0.1587  0.4265
25938W        W42412  16.126  10.494   4.961 -0.5172 -0.0608  0.2393
25939W        W42413  17.600   0.718   0.562  0.0024  0.0622 -0.0877
25940W        W42414  12.323   3.640   4.208  0.1394  0.0170  0.2001
25941W        W42415   9.993  12.340  16.653 -0.0649 -0.2902 -0.0707
25942W        W42416  15.892   3.196   5.746 -0.0157  0.1267 -0.3685
25943W        W42417   4.930   7.997   4.674  0.3836  0.0467 -0.1698
25944W        W42418   2.126  10.816  12.296  0.1991 -0.3122 -0.1413
25945W        W42419  17.414   5.327   2.690  0.1397  0.1153 -0.0582
25946W        W42420   8.718  13.494  14.113  0.0113 -0.3065 -0.1041
25947W        W42421   4.334   7.243  12.100  0.1363  0.0398 -0.0615
25948W        W42422  17.496   7.717   5.991 -0.0651 -0.0847  0.2308
25949W        W42423   7.384   6.660  14.442  0.0134 -0.2604  0.0081
25950W        W42424   5.472  14.783  14.584 -0.0825  0.3216  0.1554
25951W        W42425  10.246   1.649  13.553 -0.1187  0.3517 -0.2667
25952W        W42426   6.029   3.496  12.769 -0.2608  0.0519  0.0568
25953W        W42427   6.395  15.709  12.924  0.1280 -0.2800 -0.1805
25954W        W42428   7.683   0.624   2.093 -0.0288  0.2826 -0.1696
25955W        W42429  15.293   5.836   0.961  0.0260  0.3751 -0.3343
25956W        W42430   9.834   2.945  11.628  0.0691 -0.0908  0.2105
25957W        W42431  15.613   7.970   1.679  0.4995  0.2501  0.3229
25958W        W42432  15.110  16.454  11.810  0.0126  0.0185 -0.1428
25959W        W42433   4.999   0.803   2.654 -0.0395  0.2645 -0.1972
25960W        W42434   1.056  17.143   5.069  0.0370  0.1262 -0.3317
25961W        W42435   0.952  12.488   0.322  0.1628  0.1462 -0.2086
25962W        W42436   3.449  14.087  16.504  0.0370 -0.0123  0.1844
25963W        W42437   3.744   1.920  13.774 -0.5483 -0.1555 -0.1411
25964W        W42438   8.741  10.641   1.415 -0.1553  0.1137 -0.2197
25965W        W42439   4.973  13.411  11.429  0.0306  0.1054  0.0606
25966W        W42440   5.860   3.622  16.396  0.1647  0.0852  0.2881
25967W        W42441   5.467   8.936  14.005 -0.0406  0.3138  0.2640
25968W        W42442  12.954   2.304   2.063 -0.1072 -0.2354 -0.2136
25969W        W42443   9.459   8.745   0.602  0.2183 -0.1854  0.1304
25970W        W42444   3.844   5.878   1.469  0.2041 -0.0536 -0.1598
25971W        W42445   4.160  12.456   1.615 -0.1307  0.2983  0.0299
25972W        W42446  15.708   1.066   2.062 -0.2155  0.0988  0.1988
25973W        W42447   6.530   3.732  12.649  0.0992 -0.1384  0.1034
25974W        W42448  11.002   2.685   0.898 -0.2430  0.0530  0.0120
25975W        W42449  12.775  11.380  11.948  0.0535  0.3280  0.0634
25976W        W42450  14.266  12.473  15.244 -0.1653 -0.0896  0.1075
25977W        W42451   3.337  11.813   0.067  0.0197  0.2993  0.2152
25978W        W42452   9.583   0.912  10.690  0.2436  0.1362  0.0313
25979W        W42453  16.698  17.700   5.438 -0.1410 -0.1954 -0.0026
25980W        W42454   5.126  15.526  16.061 -0.0160  0.1202  0.0757
25981W        W42455  14.350   6.344   1.162 -0.0174 -0.1748 -0.2264
25982W        W42456   3.735  14.325  12.886  0.1203  0.0806 -0.1822
25983W        W42457  14.808  12.095   1.177  0.1961  0.0430  0.1490
25984W        W42458   4.556  14.563  13.184 -0.0874 -0.1176  0.0503
25985W        W42459  15.702   1.102   1.139  0.0145 -0.2032  0.0574
25986W        W42460   7.652   1.877  14.332 -0.0439  0.1116 -0.3477
25987W        W42461   6.333   2.130  15.535 -0.2564  0.0997  0.0324
25988W        W42462  12.931  10.002  16.436  0.1219  0.2019 -0.0400
25989W        W42463  14.035   2.283   2.419 -0.0591  0.1868  0.0532
25990W        W42464   9.137   8.930   2.621  0.0565 -0.0843 -0.1734
25991W        W42465  13.846   2.723   5.732  0.1083 -0.0959  0.0653
25992W        W42466   6.681   7.793  15.482 -0.0677  0.1758  0.2218
25993W        W42467   1.184  13.789  15.062 -0.1131  0.0059  0.1397
25994W        W42468  16.716   4.359   6.433 -0.1591  0.3231 -0.1738
25995W        W42469   8.069   3.638  12.325  0.1208  0.3336  0.0950
25996W        W42470   7.532   9.414  16.327  0.1439 -0.2842  0.0252
25997W        W42471  15.538  14.338  14.459 -0.0181  0.2597  0.0007
25998W        W42472   4.847   2.384   1.018 -0.3432  0.2403 -0.1950
25999W        W42473  15.444  17.002  15.281  0.1760 -0.0387 -0.3281
26000W        W42474   8.582   4.066   3.062  0.1711 -0.2209 -0.1680
26001W        W42475   8.346   5.642  13.020  0.4108 -0.1046  0.0656
26002W        W42476  15.840   0.895  13.310 -0.1138  0.0286  0.2548
26003W        W42477  16.160  13.093  14.109  0.0191  0.2048 -0.0144
26004W        W42478   0.214   9.839   4.268 -0.1532 -0.1137 -0.0888
26005W        W42479  17.612   8.922  15.095  0.1658  0.0830 -0.0726
26006W        W42480   1.906   9.564  11.645  0.0954  0.0894 -0.0625
26007W        W42481   0.782   0.395  13.186  0.0592  0.2090 -0.1480
26008W        W42482   8.836  13.196  13.604 -0.1520 -0.1536  0.1934
26009W        W42483  14.291   0.309  14.175  0.0771 -0.0758  0.1435
26010W        W42484   5.280   4.859  13.026  0.1389 -0.0878 -0.3849
26011W        W42485   6.957  13.461  16.177  0.1087 -0.0157  0.0379
26012W        W42486   7.245  15.756   0.166  0.1042 -0.2021  0.0420
26013W        W42487   2.286  13.933  15.901  0.1746  0.0652 -0.1274
26014W        W42488  16.373   4.481   4.906  0.0540  0.0405 -0.0427
26015W        W42489   6.532   7.230   0.079 -0.0466 -0.2608 -0.0848
26016W        W42490  14.821  14.790  14.769  0.0759 -0.0151 -0.1903
26017W        W42491  14.249   2.088  12.089 -0.1300 -0.0598 -0.0921
26018W        W42492  11.666  14.544  11.290 -0.3275 -0.1798  0.1574
26019W        W42493  15.303   6.188   3.650 -0.0017 -0.3091 -0.1899
26020W        W42494   6.514   0.755  12.490  0.0522  0.2414 -0.1705
26021W        W42495   0.646   3.516   0.169  0.3578 -0.2110 -0.1303
26022W        W42496  17.617  11.530   2.755  0.2495 -0.0172  0.0155
26023W        W42497   4.913  14.740  12.895  0.3126 -0.2359 -0.1653
26024W        W42498  11.096   6.861  15.843 -0.0506 -0.0156 -0.2206
26025W        W42499   2.626   1.722   4.859 -0.0715  0.1951  0.1266
26026W        W42500   4.324  10.741   2.273  0.0788  0.1170 -0.0021
26027W        W42501   9.189  14.166   1.381 -0.0909 -0.1205 -0.0223
26028W        W42502   2.525  15.244  16.008  0.2635  0.0389 -0.0125
26029W        W42503   7.833   9.261  15.950  0.1798 -0.1239  0.1417
26030W        W42504   0.143   6.627   1.877  0.0567  0.1881 -0.1846
26031W        W42505  12.002   2.867   3.674  0.0831  0.0429  0.1147
26032W        W42506  11.119   9.446   2.718  0.0024  0.1830  0.0688
26033W        W42507  12.441   9.436   4.414 -0.0327 -0.0490  0.0909
26034W        W42508   0.928   3.243  12.407 -0.3582  0.1173  0.2327
26035W        W42509   6.192   3.110  12.483 -0.2265 -0.0798  0.1639
26036W        W42510   1.146  10.465   4.055  0.0098 -0.0582  0.0749
26037W        W42511   4.380   7.152  13.817  0.2613  0.0328  0.0342
26038W        W42512  11.817   3.195   5.189  0.0345 -0.1759  0.0142
26039W        W42513   2.126  11.432  16.352 -0.0041 -0.2670  0.1607
26040W        W42514  10.037   2.686  14.844 -0.1819 -0.1515 -0.0943
26041W        W42515   7.036  13.380   0.162 -0.1465 -0.2977  0.1631
26042W        W42516   3.293  14.570   2.995 -0.2680 -0.1163  0.1613
26043W        W42517   0.862   5.567   0.834  0.3738 -0.0660  0.0500
26044W        W42518   7.849  14.778  12.817 -0.0459 -0.0787  0.0873
26045W        W42519   8.452  10.532   0.985 -0.1703  0.0238  0.0032
26046W        W42520   7.194   9.664   0.899 -0.1816 -0.0224  0.1811
26047W        W42521   9.777   4.055  11.704 -0.2603 -0.0134 -0.1306
26048W        W42522   4.865   9.416   4.980  0.0962 -0.0735 -0.1571
26049W        W42523   0.378   3.973  12.194  0.0840 -0.1233 -0.1177
26050W        W42524   3.546   5.498  11.959  0.1039  0.0170  0.2048
26051W        W42525  15.737  10.728  15.039 -0.1129  0.0926  0.2913
26052W        W42526   7.043   8.915  12.304  0.1565 -0.0159  0.0890
26053W        W42527   7.546   9.755  15.384  0.1757 -0.1823 -0.1025
26054W        W42528  15.801   8.653  12.656 -0.1240 -0.1399 -0.0084
26055W        W42529   8.692   1.080   0.423  0.1035 -0.2947 -0.0531
26056W        W42530   3.152  13.173   1.901  0.1627  0.0959  0.1376
26057W        W42531   6.753  16.837   0.936 -0.0810  0.0731  0.0333
26058W        W42532   6.523   3.416  14.691  0.1384  0.2160  0.4100
26059W        W42533   9.805   7.334   1.726  0.0229 -0.0014  0.0159
26060W        W42534   9.009  15.960  13.734 -0.3452 -0.0536  0.2457
26061W        W42535  13.603   7.385   4.088  0.1783 -0.3682 -0.1516
26062W        W42536   4.998   6.079  12.069  0.3221 -0.2757 -0.1040
26063W        W42537  16.400  17.612   4.744  0.3047 -0.0743  0.0008
26064W        W42538   5.377   2.820  16.269 -0.1855 -0.0196  0.0166
26065W        W42539  16.593  12.045   2.839  0.0192 -0.1363 -0.1176
26066W        W42540   7.928  15.358  16.418  0.2240 -0.1116 -0.2554
26067W        W42541   1.265  14.950  15.331 -0.0983 -0.0951 -0.1281
26068W        W42542  10.659  12.267  13.401  0.2833  0.1486 -0.2190
26069W        W42543   7.097  14.045  11.500 -0.1374  0.2994  0.3530
26070W        W42544   8.724   9.855   5.217 -0.0003 -0.0967  0.0741
26071W        W42545   2.631   4.266  14.636  0.1655 -0.0106  0.3370
26072W        W42546  16.768   7.570  15.582  0.3672  0.1719  0.0346
26073W        W42547   9.145   5.155  12.268  0.0696 -0.0540  0.0166
26074W        W42548  14.047   8.245   2.863  0.0138  0.0245  0.1232
26075W        W42549  12.809   8.638  12.543 -0.2566 -0.0091  0.0056
26076W        W42550   6.870   6.436   4.746 -0.0425 -0.1732  0.0937
26077W        W42551  15.884  14.094   6.473 -0.1933  0.0894  0.0530
26078W        W42552  11.301   4.355   4.232  0.0863  0.0670  0.0885
26079W        W42553   2.998  12.683   3.585  0.3413  0.0747  0.2887
26080W        W42554  12.436  10.971   0.694  0.0007  0.0413  0.3664
26081W        W42555   9.441  13.627  13.393 -0.1062  0.1204 -0.0138
26082W        W42556   7.404   4.957   1.322 -0.2991 -0.2302 -0.1116
26083W        W42557  12.332   3.288  16.498  0.1407 -0.1271  0.3193
26084W        W42558  14.197  15.943  11.990 -0.1520 -0.2276 -0.0590
26085W        W42559  10.994   8.936  15.667  0.0245 -0.0314 -0.0790
26086W        W42560   8.160   1.758  14.377  0.2183  0.1904 -0.2105
26087W        W42561  13.320   4.122   2.712 -0.1681  0.2117  0.0009
26088W        W42562   4.145   3.085   1.301 -0.0685 -0.1226  0.1633
26089W        W42563  12.888   5.514   0.907  0.0163  0.0737 -0.1860
26090W        W42564  10.729   8.289  12.256  0.0085  0.2095  0.0815
26091W        W42565  16.941  15.831   1.728 -0.1904  0.0416  0.1060
26092W        W42566  10.582   9.625   4.071 -0.1226 -0.3378  0.0422
26093W        W42567   2.637   1.122  11.980  0.1533 -0.2378  0.1113
26094W        W42568  16.855  15.625   2.489 -0.0868 -0.0156  0.3289
26095W        W42569   3.319   1.082  13.867 -0.2123 -0.2924  0.1033
26096W        W42570  10.599   3.559  12.555  0.3512  0.1610 -0.0494
26097W        W42571   6.742  15.036  11.111 -0.2657 -0.1138 -0.2401
26098W        W42572   1.775   0.590  14.648  0.4186  0.1122  0.0718
26099W        W42573   0.881   3.160  14.505 -0.4381  0.1436 -0.0428
26100W        W42574  15.244   0.977   2.584  0.3775 -0.0426  0.1166
26101W        W42575  13.489  12.897  14.190  0.0583 -0.0454 -0.0794
26102W        W42576  17.647   7.394  13.474 -0.0771 -0.0092 -0.1076
26103W        W42577  11.943  13.211   5.555  0.1372 -0.3633 -0.0672
26104W        W42578   8.917  14.968   5.194 -0.1470  0.0177 -0.1434
26105W        W42579   9.924  13.763  13.954  0.1138 -0.0319  0.0538
26106W        W42580   2.670  17.343  13.656  0.2728  0.0860  0.4170
26107W        W42581  13.562   9.756   2.286  0.1651 -0.0389  0.3263
26108W        W42582   0.898   0.699  16.588 -0.0358 -0.2024  0.0686
26109W        W42583  11.593   0.900   0.316 -0.3573  0.0834 -0.1301
26110W        W42584   0.966   7.398  15.045 -0.2561 -0.1055  0.0511
26111W        W42585  15.096   3.550   1.113  0.0660  0.1061 -0.0539
26112W        W42586   6.296  10.735   2.280  0.0428 -0.1121  0.0777
26113W        W42587  15.792   9.658   2.455 -0.2849 -0.0400 -0.0688
26114W        W42588   1.830   2.180  15.613  0.0605 -0.1464 -0.2924
26115W        W42589   7.241   5.747  16.268 -0.1502  0.0571  0.0450
26116W        W42590  17.065  16.456   4.245 -0.3547  0.3883 -0.0724
26117W        W42591  14.578  10.448  11.482  0.1083 -0.3168  0.3642
26118W        W42592  11.650  17.429   3.078  0.0876 -0.1390 -0.0219
26119W        W42593   9.991  11.449  11.597  0.1765  0.1263 -0.1138
26120W        W42594  15.256   9.774   3.095 -0.0402  0.1333 -0.1584
26121W        W42595  17.217  11.567   1.902  0.3740 -0.1656  0.4466
26122W        W42596   1.600  10.972   1.334  0.1838  0.1822  0.0504
26123W        W42597  10.076  14.259   1.114 -0.1408  0.0446 -0.0661
26124W        W42598   9.527   6.582  12.382  0.0275 -0.2379 -0.0122
26125W        W42599   3.591  14.465   0.824 -0.0521 -0.1271  0.0860
26126W        W42600  15.735   0.797  11.634  0.0453 -0.1141  0.0768
26127W        W42601   7.563  11.785  16.390  0.0336 -0.0258  0.2915
26128W        W42602  13.037   0.362  11.094 -0.1237  0.1012  0.1755
26129W        W42603   3.489   7.871  11.462  0.1969  0.0711 -0.2331
26130W        W42604  15.779  15.869   1.396  0.2430  0.1389  0.0756
26131W        W42605   6.987  14.558  14.293 -0.2180 -0.0943 -0.2821
26132W        W42606  11.517  10.177  14.650 -0.0326  0.0507  0.0834
26133W        W42607  15.914   7.817   5.060 -0.0707 -0.0486  0.2977
26134W        W42608   6.742  14.742   3.565  0.1709  0.0173  0.0060
26135W        W42609   2.637   7.237   4.264  0.2219 -0.1529 -0.0274
26136W        W42610   6.206  10.100   2.200  0.2267 -0.1274 -0.0816
26137W        W42611  10.661   8.766  13.013  0.0182  0.0554  0.3063
26138W        W42612   9.131   6.867   1.030  0.2004 -0.0724 -0.0052
26139W        W42613  16.002   6.811  11.989 -0.1335  0.2563 -0.1346
26140W        W42614   7.681   6.102  13.402  0.3464 -0.3718  0.0027
26141W        W42615   7.459  15.531   4.233  0.3006  0.1330 -0.1789
26142W        W42616   6.687   7.449   5.361 -0.1460  0.1152 -0.0388
26143W        W42617  10.933  10.115   3.509  0.3602 -0.2219  0.0716
26144W        W42618  13.263  11.924   4.317 -0.1023  0.0774  0.0080
26145W        W42619   8.149   5.529   1.421  0.1992  0.0432  0.1948
26146W        W42620   5.021   9.422   3.813  0.0042 -0.0603  0.0371
26147W        W42621  12.244   1.800   2.374 -0.0811  0.0025  0.0408
26148W        W42622   3.047   3.061   3.878  0.1200 -0.0820  0.0950
26149W        W42623   5.838  10.518   2.265 -0.2959  0.2855  0.2606
26150W        W42624  16.706  16.238  15.763  0.0291 -0.0815 -0.0796
26151W        W42625  16.278   2.984  12.121 -0.0456 -0.2013 -0.0305
26152W        W42626  12.496   3.420  12.542  0.0057  0.3543 -0.0770
26153W        W42627   9.447  16.513   2.259 -0.0438  0.1705  0.0820
26154W        W42628   3.048   7.352  14.914 -0.0833  0.1918 -0.3333
26155W        W42629   7.567  13.187   2.163 -0.1191  0.1020  0.2067
26156W        W42630   0.435  17.151  14.898  0.1571 -0.2094 -0.1253
26157W        W42631   5.284   9.734  13.931 -0.0608  0.0203 -0.1608
26158W        W42632   2.335   8.942   1.376 -0.0940  0.1280  0.1801
26159W        W42633  13.796  17.261   1.086  0.0010  0.1353 -0.1970
26160W        W42634   5.178  13.158  15.634 -0.0127 -0.1809  0.1964
26161W        W42635   8.819   8.134   4.147  0.0320  0.2134  0.2351
26162W        W42636  10.525  16.377   4.749 -0.1821  0.1875 -0.0982
26163W        W42637   1.790  17.347  16.672  0.0316  0.0226 -0.0537
26164W        W42638   1.879   6.238  15.741  0.0780 -0.1654 -0.1130
26165W        W42639   2.944  17.789   1.404 -0.0337  0.2821 -0.2802
26166W        W42640   4.163   9.005  11.487  0.0833 -0.2242 -0.0072
26167W        W42641  13.997   6.105  16.093  0.1797 -0.0084  0.0756
26168W        W42642   9.622   3.083   4.589  0.0826 -0.0087 -0.0776
26169W        W42643  11.808   2.478   0.307 -0.0634 -0.1358  0.0026
26170W        W42644   8.820   4.126   5.093 -0.3125  0.1502  0.1538
26171W        W42645  14.291   4.888  12.268 -0.3676 -0.2982  0.1916
26172W        W42646  16.879   8.342  13.048  0.0762 -0.1439  0.0601
26173W        W42647  13.055  17.115   5.005  0.1877 -0.1394  0.1968
26174W        W42648   9.208  14.833  14.100  0.0384  0.2612 -0.0508
26175W        W42649   1.006   1.131   2.640  0.0900 -0.2931  0.2608
26176W        W42650  17.111  13.103  11.553  0.1917 -0.1815 -0.3828
26177W        W42651   1.240   3.247   5.174  0.0646  0.1290 -0.2467
26178W        W42652  12.383  13.005   1.876  0.0652  0.3308  0.0055
26179W        W42653   3.260  17.638  12.996  0.2801  0.2155 -0.3147
26180W        W42654   9.084  16.782  16.715 -0.0982  0.2196  0.2926
26181W        W42655   8.267  12.689   5.101 -0.1760  0.2300  0.0834
26182W        W42656  16.612   1.908   4.689 -0.2489  0.1296 -0.0438
26183W        W42657  14.255  10.465   3.116  0.1616  0.0039 -0.0060
26184W        W42658  11.958   0.084  14.781  0.0096  0.4075  0.1216
26185W        W42659  12.154  13.255  13.414  0.0631  0.0309 -0.2666
26186W        W42660   7.823  16.037   4.202 -0.0713  0.1467  0.0075
26187W        W42661  16.299   5.583  12.183 -0.2353 -0.0599 -0.0892
26188W        W42662   8.982  11.508  13.879  0.0486  0.0506  0.1101
26189W        W42663   7.364   2.201   3.489 -0.0612  0.0374  0.0014
26190W        W42664   8.691   8.720   2.586  0.0032  0.0817  0.0712
26191W        W42665  15.246  12.298   3.646  0.1785 -0.1401  0.0273
26192W        W42666  12.295   4.761   1.276  0.1256  0.1432 -0.0645
26193W        W42667   4.928   7.376   4.827 -0.0885 -0.1284  0.3210
26194W        W42668   0.785   7.056  16.131 -0.3454 -0.1144  0.0312
26195W        W42669   8.355  15.192  15.662  0.0812 -0.0667  0.0158
26196W        W42670  15.184   9.343   3.295  0.1407 -0.0070 -0.1810
26197W        W42671  13.938   6.650  14.753  0.0618 -0.1824 -0.0262
26198W        W42672   6.375  12.790   4.453 -0.4169  0.0317 -0.2897
26199W        W42673  11.858   1.434   3.479  0.1127 -0.1830  0.1276
26200W        W42674  14.886   1.806   0.727 -0.0013  0.0508  0.0852
26201W        W42675  14.088   8.569   2.427  0.3002  0.1109 -0.0036
26202W        W42676  16.456   0.854  15.317 -0.2298  0.0981 -0.0277
26203W        W42677   8.476  15.940  16.828 -0.1492  0.0919  0.0062
26204W        W42678  14.016   8.316   0.042 -0.1650  0.2896 -0.0676
26205W        W42679   6.187   7.509   3.408 -0.1058  0.0212  0.2723
26206W        W42680   0.792  12.060   1.359  0.1494 -0.1433  0.1553
26207W        W42681   1.335  11.819   4.378  0.3545 -0.2075 -0.1487
26208W        W42682   5.539   7.437  16.652  0.1525 -0.0959  0.0168
26209W        W42683   8.879   6.719   4.419 -0.0303  0.3292 -0.0003
26210W        W42684  11.985   3.529  12.759 -0.1306  0.1280 -0.0305
26211W        W42685  13.604  17.744   2.349  0.1602 -0.1120  0.0161
26212W        W42686   4.449   5.119   5.430  0.2975  0.1389 -0.2502
26213W        W42687   3.021   9.533  15.565 -0.0590  0.0562 -0.3095
26214W        W42688  13.835   1.197   4.527 -0.1268 -0.2457 -0.1194
26215W        W42689  11.059   0.417  14.723 -0.0861  0.1802  0.0541
26216W        W42690   2.573   4.374   1.604 -0.1930 -0.1973 -0.2205
26217W        W42691   0.598   5.521   3.793  0.0167  0.0260 -0.1934
26218W        W42692  11.181   9.922   1.143  0.1325 -0.2583  0.0367
26219W        W42693  16.313   2.525  11.951  0.0966  0.0070  0.1886
26220W        W42694   2.517  11.459  11.175 -0.2414 -0.0200  0.0418
26221W        W42695   2.677  17.174   3.131  0.0835  0.0420 -0.0063
26222W        W42696  16.122  17.451   0.111  0.3645 -0.0593  0.0779
26223W        W42697   0.627   2.602   5.460  0.0110 -0.1464 -0.0232
26224W        W42698  13.027  11.777  15.986 -0.2360 -0.1936 -0.0301
26225W        W42699   0.561   4.011   0.040 -0.0861  0.0316  0.1014
26226W        W42700   2.842   2.373   1.165  0.0762  0.4818  0.1785
26227W        W42701  10.217   2.189   4.411  0.0613 -0.2689 -0.1282
26228W        W42702  15.704  14.479   1.384 -0.0348  0.2071  0.0820
26229W        W42703  12.614   3.553  16.022  0.2793  0.0023 -0.1008
26230W        W42704  11.416   7.293  12.192  0.1278  0.1787  0.0604
26231W        W42705   0.167  12.236  15.832  0.2876  0.1341  0.0706
26232W        W42706   1.504  10.212  14.013  0.0351 -0.1384  0.1747
26233W        W42707   7.866  10.543  11.574 -0.2172 -0.1088 -0.2253
26234W        W42708  17.280   7.582   3.556 -0.2672  0.0905 -0.0277
26235W        W42709   1.591  11.293  14.684  0.2043  0.0509 -0.1982
26236W        W42710  11.562   7.678  14.519 -0.0396 -0.3523 -0.2415
26237W        W42711  12.732  12.286   3.396 -0.3163  0.3561  0.1966
26238W        W42712  17.183   6.656  13.885  0.3316  0.0121  0.0420
26239W        W42713   5.451   2.558   4.337 -0.1946 -0.0486 -0.0763
26240W        W42714  15.899   1.136   2.628 -0.0337  0.0336  0.1004
26241W        W42715   7.897   0.962   5.659  0.0301 -0.1522  0.0450
26242W        W42716   2.314  11.196   1.761  0.1315 -0.0755 -0.1726
26243W        W42717   3.407  10.781  11.883  0.0650 -0.0588  0.0947
26244W        W42718  11.484  12.113   0.525  0.0764 -0.3385 -0.0513
26245W        W42719  15.045  13.766   4.502  0.0817  0.3247  0.2820
26246W        W42720  16.820   0.892   4.594 -0.0409  0.0856 -0.3359
26247W        W42721   2.339  10.444  12.081 -0.1743 -0.0200  0.0076
26248W        W42722   3.818   0.863   2.848 -0.0673  0.1264  0.0607
26249W        W42723   3.103   6.445   1.242 -0.2496 -0.1221 -0.0172
26250W        W42724   0.715  14.779   0.244  0.0497  0.1081  0.1682
26251W        W42725  16.486   2.705  13.186 -0.0263  0.2793 -0.1243
26252W        W42726  17.095  14.002  16.272 -0.3043 -0.0117 -0.0307
26253W        W42727   8.467   6.029  12.691 -0.0027  0.0274 -0.1352
26254W        W42728   3.368   5.081   2.533  0.1752 -0.1960 -0.0289
26255W        W42729   2.998  12.770  11.792 -0.2154 -0.1099 -0.2114
26256W        W42730   7.716  15.912   0.859 -0.1537 -0.1404 -0.3117
26257W        W42731   6.634   4.898   4.005  0.3044 -0.3183  0.1204
26258W        W42732  14.564   3.469  15.391 -0.0924 -0.0354 -0.1793
26259W        W42733  16.538   1.963   1.602  0.1465  0.1049 -0.1272
26260W        W42734   5.404  13.511  11.761 -0.1913  0.0780  0.0072
26261W        W42735  14.972   1.701  15.205 -0.1032 -0.0111  0.0405
26262W        W42736  12.844   2.833  15.270 -0.2842 -0.1472  0.1964
26263W        W42737   9.162  12.405  11.838 -0.1637  0.3625 -0.1299
26264W        W42738  11.396   7.130   2.566 -0.1132 -0.1286  0.2661
26265W        W42739   8.795   9.126  16.685 -0.0576 -0.0767  0.1651
26266W        W42740  11.022   5.488   4.857 -0.0603  0.0493 -0.1693
26267W        W42741   1.058   9.585  12.872  0.0546  0.3507  0.3025
26268W        W42742  15.093  11.163  11.928 -0.3621 -0.2758  0.1946
26269W        W42743   0.947  16.918  12.090 -0.0593 -0.1331 -0.1899
26270W        W42744   8.593   3.567   2.997 -0.1637 -0.2893  0.0805
26271W        W42745   6.399   1.669   4.864  0.0198 -0.0690  0.1599
26272W        W42746   4.149   9.581  10.180 -0.0974 -0.1823 -0.2671
26273W        W42747   5.247  11.234  12.172  0.2319 -0.3286 -0.1452
26274W        W42748   3.814   8.149  11.250 -0.0745  0.1661  0.0032
26275W        W42749  13.998  11.089   0.589  0.0017  0.0998 -0.1123
26276W        W42750   1.895  11.647   5.803  0.2005 -0.2210  0.0650
26277W        W42751  11.499   2.272  13.958  0.1234  0.1484 -0.5238
26278W        W42752  12.735   5.439   1.479 -0.3061 -0.1245 -0.2864
26279W        W42753   2.496   2.182  16.278  0.1107 -0.0231 -0.3075
26280W        W42754   8.204  13.724   0.330  0.1471 -0.4761 -0.1692
26281W        W42755   5.596   8.755   3.677  0.0755 -0.1325 -0.1987
26282W        W42756   0.825   5.032   1.717 -0.2037  0.1716 -0.2983
26283W        W42757   5.617   5.420   4.466  0.0310  0.4556 -0.0578
26284W        W42758  13.659   4.606   6.059  0.1227  0.0656  0.0241
26285W        W42759  13.170   6.774   6.381  0.0773  0.0428  0.1767
26286W        W42760   2.096  13.906  15.421  0.1064 -0.1029 -0.2052
26287W        W42761  14.957   4.637   2.499  0.1599 -0.0455  0.0783
26288W        W42762   5.022  16.475   5.328  0.1299 -0.0456  0.0091
26289W        W42763   9.637   4.939   1.710 -0.0043 -0.1004  0.1056
26290W        W42764   8.499   6.218   4.352  0.0822  0.1239 -0.2765
26291W        W42765  15.912  16.155  13.313 -0.0693 -0.1395 -0.1404
26292W        W42766   8.081  11.948  15.637  0.0402  0.0004  0.2889
26293W        W42767   0.425  12.083  16.592  0.1976 -0.0567 -0.1921
26294W        W42768  17.476  10.553   0.805 -0.6347 -0.1647  0.1471
26295W        W42769   0.335   9.091  11.475  0.3000  0.3337 -0.2467
26296W        W42770  15.215   4.234  14.824  0.0296  0.1107  0.1050
26297W        W42771  17.092   0.457   2.635  0.0958  0.0889 -0.1384
26298W        W42772  15.860  13.617  12.896  0.0979  0.3228  0.0157
26299W        W42773  17.374  14.636   0.709 -0.2547  0.2358 -0.0171
26300W        W42774  13.824  17.320   2.447 -0.3119  0.0598  0.0797
26301W        W42775   0.563   7.902   4.705  0.1493 -0.0142  0.1400
26302W        W42776   0.029   8.085   1.648  0.0389  0.0419  0.0800
26303W        W42777  10.435   5.436   5.551  0.1586  0.0113  0.0955
26304W        W42778  10.954  14.639  14.724  0.2089  0.0386 -0.0245
26305W        W42779  15.907   7.789  16.409  0.0845 -0.1184  0.1236
26306W        W42780  16.594  11.408  16.634  0.1437 -0.3093  0.3228
26307W        W42781   9.037   1.918  15.232 -0.0690 -0.2281 -0.4271
26308W        W42782   6.887  15.828  15.646 -0.2708  0.0738 -0.3447
26309W        W42783   6.199  17.741  15.360  0.1796  0.1528  0.0769
26310W        W42784  15.257   2.917  15.420 -0.0004 -0.0671 -0.1345
26311W        W42785   8.902   0.269   6.352  0.0214 -0.1352  0.4073
26312W        W42786   3.602   3.737   2.807  0.5142  0.3362  0.0471
26313W        W42787   0.372  17.383  13.213  0.3187  0.1238 -0.3384
26314W        W42788   1.361   3.381   6.229  0.1481 -0.0029 -0.0255
26315W        W42789  10.616   7.034   1.477 -0.1905  0.0874 -0.1255
26316W        W42790   9.555   9.216   0.260 -0.0037 -0.1377 -0.1071
26317W        W42791   1.621   2.184   5.119 -0.2474 -0.2350  0.0583
26318W        W42792   4.538   3.245   1.503 -0.0904 -0.1037 -0.1521
26319W        W42793   3.667   5.839   2.704 -0.0943  0.0378  0.0276
26320W        W42794   2.108   2.598  14.671 -0.1511 -0.2276  0.0145
26321W        W42795  16.952   8.520  14.395  0.1693  0.0665 -0.1077
26322W        W42796  11.653  17.689   0.107  0.1110  0.1178  0.1383
26323W        W42797   2.920   9.331  12.335  0.2046 -0.1460  0.2213
26324W        W42798   5.579   8.114  15.034  0.0777 -0.0155 -0.1163
26325W        W42799   5.697   8.786  11.705  0.0839  0.1570 -0.1518
26326W        W42800   9.705   4.017  12.729  0.1387  0.1842 -0.1332
26327W        W42801  17.808   1.601   2.028  0.1915  0.0668  0.0744
26328W        W42802   8.110   3.200  14.105  0.0666  0.1330  0.2018
26329W        W42803   0.054  14.462   3.371  0.0879  0.2145  0.1261
26330W        W42804   0.589   8.594   5.699  0.3483 -0.0849  0.1825
26331W        W42805  12.520  17.459   1.226 -0.0282 -0.2637 -0.1231
26332W        W42806   9.130   5.255  13.417  0.1902  0.1077  0.2685
26333W        W42807   6.817  15.868  13.123  0.0629 -0.2603 -0.2262
26334W        W42808   7.657   0.020   0.475 -0.2039  0.2184  0.0195
26335W        W42809  15.159   7.945   2.942 -0.3342  0.2064 -0.0036
26336W        W42810   1.391  15.663   5.213 -0.1313 -0.0329 -0.4000
26337W        W42811  11.843  13.465   2.465 -0.1334  0.0838 -0.1394
26338W        W42812  14.827   9.516  12.971 -0.0986  0.1140 -0.0068
26339W        W42813  14.034   0.683  16.783  0.0929  0.0313 -0.1589
26340W        W42814   3.648  17.447  12.732 -0.0543 -0.0663 -0.0397
26341W        W42815   1.433   9.469   2.656  0.0084  0.1158 -0.0193
26342W        W42816  15.189   1.502  13.686  0.0820  0.3562 -0.0871
26343W        W42817   1.680  17.092  12.567  0.0431 -0.1164 -0.2002
26344W        W42818  14.705   8.098  14.007 -0.1483  0.0177  0.1327
26345W        W42819   9.762   8.015  12.453 -0.0798  0.2526 -0.0810
26346W        W42820   5.910  12.226  13.304 -0.4235 -0.0675 -0.1633
26347W        W42821   0.289   1.507  13.086 -0.0509 -0.0281  0.2590
26348W        W42822  10.458  14.232   1.872 -0.1589  0.2793 -0.0334
26349W        W42823  16.485  12.014  12.266 -0.0097  0.1422  0.1110
26350W        W42824  17.474   9.274  14.750 -0.1626 -0.3461  0.0028
26351W        W42825   7.967  14.624  14.609 -0.2079 -0.0763  0.5228
26352W        W42826   8.319   4.886  16.054 -0.0368  0.2112  0.4391
26353W        W42827   3.060  15.467  13.713  0.1012 -0.0341  0.2540
26354W        W42828   8.806  15.794  16.475 -0.0396 -0.3553 -0.1897
26355W        W42829   0.699  16.073  12.519 -0.1407  0.0406  0.0883
26356W        W42830   0.415  13.596   4.075  0.1684  0.3827 -0.0114
26357W        W42831   7.474   7.280   0.260  0.3454  0.0922  0.0065
26358W        W42832  15.524   5.487  15.157 -0.0404  0.3731 -0.0874
26359W        W42833  16.291   1.303  12.486  0.0653  0.2659  0.1862
26360W        W42834   5.853  16.459  13.105  0.2666  0.2307  0.2644
26361W        W42835  12.975   5.888   1.307  0.3912  0.1568 -0.2046
26362W        W42836  14.057   0.108  13.777 -0.2971 -0.0955  0.0679
26363W        W42837  10.837   3.787  14.711  0.1748 -0.0007  0.0419
26364W        W42838   1.623   1.116  11.956 -0.4600  0.0807  0.2548
26365W        W42839   9.554   9.821   3.963  0.0794 -0.1111  0.0851
26366W        W42840  11.545   5.454   3.595  0.1416  0.1609 -0.0365
26367W        W42841  13.899   1.628   4.814  0.0813 -0.0518 -0.0639
26368W        W42842   4.944  16.763  16.586 -0.0392 -0.0398 -0.0592
26369W        W42843   4.558  16.085   3.462 -0.1356  0.2570  0.2274
26370W        W42844  14.478   2.020  15.702  0.0330 -0.1335 -0.1422
26371W        W42845  16.199   0.736  15.718 -0.0004 -0.2848  0.0753
26372W        W42846   1.476   2.106   2.393 -0.0279  0.2524  0.1341
26373W        W42847  16.703   6.106  12.893  0.0689 -0.0170 -0.0330
26374W        W42848  15.554  12.493  14.501  0.3118 -0.0501  0.2717
26375W        W42849   2.984   1.822  14.905  0.2879 -0.0537  0.0701
26376W        W42850   6.903  15.431   0.444 -0.3079  0.3096 -0.2045
26377W        W42851  10.483   6.581  12.559  0.0540  0.1037 -0.1166
26378W        W42852   2.650  12.900  13.320  0.2139  0.2401 -0.1122
26379W        W42853   6.463  13.813   5.461 -0.0087  0.1529  0.0668
26380W        W42854   2.938  10.596   4.761 -0.0936  0.2954 -0.3430
26381W        W42855  10.491  10.918   4.359 -0.2011 -0.0345  0.1278
26382W        W42856   0.333  17.483   0.866 -0.1245 -0.0814 -0.0543
26383W        W42857  12.198   0.441  14.534 -0.0439  0.1018  0.0300
26384W        W42858  14.724  14.916   4.687  0.3777  0.0388 -0.2438
26385W        W42859  16.460  13.889   1.201 -0.0725 -0.0041 -0.3471
26386W        W42860  17.348  16.131   3.988 -0.1431  0.0570 -0.2636
26387W        W42861   4.179  11.175   5.275 -0.1593 -0.0788 -0.3638
26388W        W42862   2.772   6.633  14.098 -0.0516 -0.0373  0.2474
26389W        W42863  15.829   2.492  16.576 -0.1406  0.1805 -0.0536
26390W        W42864  11.764  16.292   3.831  0.0110 -0.0627 -0.0609
26391W        W42865   1.495   6.091  11.645 -0.0437 -0.0200 -0.1528
26392W        W42866   8.855   5.380  16.194  0.0642 -0.1570 -0.2513
26393W        W42867   3.971   8.641  13.683 -0.0571 -0.2587 -0.0589
26394W        W42868   3.998   7.629  16.820 -0.0399  0.2961 -0.2718
26395W        W42869   4.302  15.854   3.825 -0.1876  0.0248  0.0391
26396W        W42870  13.583   2.554   6.421 -0.0119  0.0847  0.0392
26397W        W42871  12.961  11.668   0.028  0.4869 -0.1710  0.0941
26398W        W42872   1.582   4.164   4.219 -0.1543  0.2331  0.3141
26399W        W42873   2.686  11.062  15.624  0.0045  0.0784  0.1024
26400W        W42874   4.795   0.378   2.348 -0.0935 -0.0208 -0.1909
26401W        W42875  17.303   4.574  15.529 -0.0499  0.1858  0.0664
26402W        W42876  10.506  16.924   6.097 -0.1052 -0.0367 -0.1655
26403W        W42877   7.986  16.162  12.954  0.4646  0.1973  0.1009
26404W        W42878   1.833   3.437  15.895 -0.0609 -0.2880  0.1952
26405W        W42879   3.076   6.252  15.322 -0.1060  0.1656  0.1143
26406W        W42880   4.591  12.322   4.433 -0.1496 -0.0663 -0.2114
26407W        W42881  15.287  13.434   4.991 -0.1111  0.0609 -0.1116
26408W        W42882   2.646  10.367   0.751  0.1074  0.3386 -0.0654
26409W        W42883  14.554   2.502   4.047 -0.1737  0.1605  0.0968
26410W        W42884   4.735   7.041   1.939  0.0038 -0.1426 -0.2752
26411W        W42885   1.537   5.681   1.617  0.0534 -0.0475  0.0247
26412W        W42886  12.630   8.878   1.347  0.0265 -0.2683  0.0043
26413W        W42887   3.502   3.725   2.262  0.1629 -0.2659  0.0871
26414W        W42888  14.568   7.048   4.061 -0.1776 -0.0279  0.3514
26415W        W42889   8.349   8.077   0.813  0.0514  0.1209  0.3796
26416W        W42890   1.455   1.571  12.237  0.1393  0.4054  0.0852
26417W        W42891  10.379  14.714  16.430  0.5381 -0.1787 -0.0940
26418W        W42892  17.672   8.316   3.647 -0.4202  0.0079 -0.0872
26419W        W42893   2.664   8.281   0.989 -0.1183  0.3449  0.0322
26420W        W42894   3.919   4.256   0.577  0.1146 -0.0326 -0.2594
26421W        W42895  13.191  15.384   0.973 -0.0512 -0.2382 -0.1303
26422W        W42896  13.558  13.133   2.034  0.0353  0.4439  0.0888
26423W        W42897  15.048  10.667   2.540  0.0341  0.2732  0.1440
26424W        W42898   5.184   4.456  12.727 -0.4379 -0.1897  0.0059
26425W        W42899  10.788  13.152   5.718  0.1048 -0.0273 -0.1751
26426W        W42900   1.392  14.637  16.503  0.1133  0.0622  0.1491
26427W        W42901   0.225   1.559  14.698 -0.4392 -0.2620  0.1681
26428W        W42902   2.385   6.989   1.195  0.1078 -0.0765  0.0246
26429W        W42903   4.175  14.204   0.347 -0.0189  0.1456  0.1929
26430W        W42904   0.109  10.670  15.544 -0.0649 -0.0542  0.2595
26431W        W42905   1.185   2.309  13.921  0.0023 -0.2511  0.1374
26432W        W42906   5.815   1.890  15.965 -0.1972 -0.1973 -0.2045
26433W        W42907   8.386  13.299   3.136  0.0140 -0.2325 -0.1444
26434W        W42908  10.156   4.727   1.693  0.0220  0.0637  0.0919
26435W        W42909   0.044   7.342   3.155 -0.0439  0.1046 -0.0745
26436W        W42910   0.472   4.096   1.455  0.0051  0.0566 -0.1139
26437W        W42911  13.454   7.728   2.168  0.0734 -0.0046  0.2008
26438W        W42912  10.723   0.435   3.390 -0.1157  0.0209 -0.2235
26439W        W42913  11.932  15.765  15.534  0.2278  0.0447 -0.3912
26440W        W42914   3.488   2.667   5.032 -0.2407  0.0630 -0.1296
26441W        W42915   6.395   5.673  16.718  0.1915  0.0145 -0.1094
26442W        W42916   0.527  11.037  11.385 -0.0740 -0.1924  0.0510
26443W        W42917   1.084  15.661  14.103 -0.0312  0.2702 -0.0824
26444W        W42918  13.762  17.278   4.513  0.0261  0.0106 -0.2856
26445W        W42919  17.066   6.866  14.981  0.1334  0.2202 -0.2078
26446W        W42920  16.620   3.897  14.232  0.0112 -0.1034 -0.2417
26447W        W42921   2.576   3.573  12.798  0.0001  0.0207 -0.0060
26448W        W42922  11.753   8.812  13.894 -0.0222 -0.1285  0.0948
26449W        W42923  14.158   1.268   6.257  0.0864  0.0925 -0.1666
26450W        W42924   1.716   5.081   2.472  0.1914  0.0721 -0.0620
26451W        W42925   9.062  16.435   0.229  0.0721  0.0263 -0.0335
26452W        W42926   7.227   3.166   4.297  0.0391 -0.0693  0.0919
26453W        W42927   8.094   4.665  14.716  0.2780  0.1201  0.0919
26454W        W42928   8.973   6.825  16.237  0.3874  0.1159  0.2366
26455W        W42929  14.989  11.349   0.799 -0.2368 -0.2360 -0.1026
26456W        W42930   9.403   6.037  14.908 -0.1837  0.0848 -0.1216
26457W        W42931  10.126   8.486   1.802 -0.1690 -0.0006 -0.0943
26458W        W42932   7.010   7.224   2.822 -0.1753  0.4545  0.0239
26459W        W42933  12.409   6.216  16.150 -0.1336 -0.0693 -0.0996
26460W        W42934  13.292  11.769   2.228 -0.0367 -0.1013 -0.0494
26461W        W42935   6.019   1.964  13.318 -0.0218  0.1913  0.0291
26462W        W42936   0.814   6.669  14.337  0.0412 -0.6151 -0.3785
26463W        W42937   0.782  17.796  15.701  0.1817 -0.0165 -0.2468
26464W        W42938  17.817   1.654   0.761  0.1661  0.2934  0.3829
26465W        W42939   8.912   8.560  12.066  0.2002  0.0459 -0.0372
26466W        W42940   9.593  16.282   3.755  0.1514  0.0936  0.1570
26467W        W42941  12.597   5.198   2.033 -0.1861  0.1518 -0.0676
26468W        W42942   6.870  15.002  12.898 -0.1916 -0.0570 -0.0617
26469W        W42943  17.076   2.173   0.970  0.3497 -0.1204 -0.0784
26470W        W42944  16.797   5.061   1.660  0.1505 -0.2389  0.0843
26471W        W42945  12.035  10.143   1.767 -0.0124 -0.0154  0.1741
26472W        W42946   6.370  16.903   3.508  0.0596  0.1298  0.0335
26473W        W42947   2.324  13.527   4.965 -0.0259  0.2015  0.2680
26474W        W42948   6.630   4.584  15.299 -0.1076 -0.1007 -0.0486
26475W        W42949   7.399  13.702  16.897  0.1904  0.0523 -0.1253
26476W        W42950   7.240  13.414   1.231  0.3600  0.0902  0.0187
26477W        W42951  16.381  11.159  11.702  0.2611  0.1786  0.2303
26478W        W42952  11.371   9.130   6.025 -0.1195  0.2729 -0.0017
26479W        W42953   5.340   2.764  13.130  0.1147 -0.2142 -0.1224
26480W        W42954   9.830   6.860   0.496 -0.2103  0.2504 -0.3405
26481W        W42955  13.974  13.872   1.542  0.0706 -0.0821  0.0044
26482W        W42956   5.626   6.931   2.671 -0.1337 -0.0518  0.1412
26483W        W42957   8.717  10.023  15.214  0.2411 -0.2346 -0.0263
26484W        W42958   5.633  17.279  13.384 -0.4516 -0.0789 -0.3805
26485W        W42959   7.523   5.753  12.955  0.0043 -0.3294 -0.2136
26486W        W42960  14.559  10.709   2.455 -0.1159  0.0870 -0.0421
26487W        W42961  11.231   9.395  15.086 -0.0784 -0.1858  0.1985
26488W        W42962  13.904  12.089  15.013 -0.0630 -0.1633 -0.0125
26489W        W42963   1.233  10.642  15.126  0.2392  0.0455 -0.4428
26490W        W42964   5.081  12.454   0.133  0.0573  0.0232  0.0439
26491W        W42965   5.374  17.635   3.495 -0.0316 -0.0710 -0.1846
26492W        W42966   7.819  16.963   2.512 -0.1213  0.0764 -0.2458
26493W        W42967   8.946  11.700  12.975 -0.0180 -0.0532 -0.0072
26494W        W42968  10.686   8.549  13.793  0.1284  0.3266  0.1714
26495W        W42969  12.563  14.227   0.495  0.0560  0.2170 -0.0189
26496W        W42970  11.891  11.546   2.117  0.3460 -0.0069 -0.1830
26497W        W42971  10.742   8.713  16.118 -0.0538  0.1134 -0.0777
26498W        W42972  15.565  14.218  15.227  0.1748  0.0720 -0.2272
26499W        W42973  15.608  10.519  16.791 -0.1029 -0.0190 -0.3615
26500W        W42974   4.506   0.326   0.645 -0.0140  0.3774 -0.4263
26501W        W42975   6.963  17.589   4.760  0.4514  0.1857  0.0789
26502W        W42976   4.715   9.442  16.080  0.0148  0.0103 -0.1411
26503W        W42977   6.119  10.506  15.922  0.2262  0.1759 -0.2964
26504W        W42978  16.306   5.459  13.960 -0.2453 -0.0186  0.0176
26505W        W42979  11.250  17.661  16.261 -0.2331 -0.0532 -0.0788
26506W        W42980  13.673   0.030   3.275 -0.1750 -0.1100 -0.4882
26507W        W42981   9.562  11.360   2.380  0.1985 -0.0806 -0.1213
26508W        W42982  16.721   4.346  15.824  0.1935  0.1295 -0.1692
26509W        W42983   4.683   3.052  13.665  0.0588  0.0547 -0.1345
26510W        W42984  16.292  10.958  15.379  0.2630  0.4104  0.1256
26511W        W42985   0.887  13.129   3.499  0.2875  0.2369  0.2147
26512W        W42986   3.788   2.073  12.776  0.1024 -0.0713 -0.0655
26513W        W42987  16.675   1.640   2.556  0.0999  0.2535 -0.0436
26514W        W42988  12.858  16.108  12.606  0.1495 -0.0314  0.1225
26515W        W42989   5.561   4.653   1.359 -0.0868 -0.2920 -0.1419
26516W        W42990   7.399   1.089  14.658  0.1178 -0.0368 -0.2683
26517W        W42991   7.492   1.310  15.574  0.1861 -0.0590  0.2731
26518W        W42992  12.938   7.366   3.786  0.1831  0.0979  0.2668
26519W        W42993   4.024   5.020   4.436  0.1764  0.0218 -0.1716
26520W        W42994   1.440  16.349  15.093  0.1646  0.2536 -0.0132
26521W        W42995   7.272   9.711   2.682  0.3416  0.0514  0.3182
26522W        W42996  12.606   9.094  14.490 -0.0405 -0.0784  0.0684
26523W        W42997  14.911  15.650  15.658  0.0489 -0.0657 -0.0923
26524W        W42998  10.833   2.234   1.846 -0.1267  0.0672  0.1389
26525W        W42999  14.431   9.044   2.426 -0.0282  0.2629 -0.0552
26526W        W43000  17.397   7.946  11.814 -0.0290  0.2109  0.0220
26527W        W43001   8.983   0.202  14.993  0.2916 -0.0306  0.1154
26528W        W43002   5.186   5.537   1.073  0.1535 -0.1979 -0.2440
26529W        W43003  12.938  17.757  11.395  0.1350  0.1411 -0.0876
26530W        W43004   4.377  11.739   2.646 -0.1087  0.1477  0.0919
26531W        W43005   5.919  17.335   0.275  0.0141 -0.1557 -0.0480
26532W        W43006   0.141  14.272  15.943 -0.0659  0.3231 -0.0575
26533W        W43007  16.080  17.524   4.310  0.0733  0.3151  0.0262
26534W        W43008  10.347  14.793   0.634 -0.0743  0.0386  0.0409
26535W        W43009  15.038   9.198  15.766  0.1331 -0.0778  0.0683
26536W        W43010   0.386   4.463   5.182 -0.0728 -0.0546  0.3135
26537W        W43011   3.772   4.430  16.549  0.0833  0.1519  0.0918
26538W        W43012  15.943   0.500  14.555 -0.0018  0.2149  0.1624
26539W        W43013   3.501   8.583  13.522 -0.0791  0.2311  0.2230
26540W        W43014  17.442   2.116  16.338 -0.1995  0.0735  0.1847
26541W        W43015  12.830   7.492  12.653  0.0482 -0.0553  0.1286
26542W        W43016  13.458   5.583   2.209  0.0298  0.1195 -0.1486
26543W        W43017  13.872   2.604   2.870 -0.0893 -0.4564 -0.1764
26544W        W43018  17.696   3.461  13.751  0.0646  0.3714 -0.0096
26545W        W43019   6.906  12.980   1.339 -0.0019 -0.2619 -0.0156
26546W        W43020   2.712   6.626   3.392 -0.1667 -0.0503  0.1509
26547W        W43021  13.861   4.802   3.860  0.0100  0.0579 -0.3125
26548W        W43022  17.406   8.615  14.722 -0.0752  0.0477  0.3056
26549W        W43023  10.975   9.265   1.155  0.1379 -0.0152 -0.0755
26550W        W43024   0.591  12.957  12.949  0.1356  0.0908  0.1600
26551W        W43025   6.917  17.263   2.202 -0.2451  0.0288 -0.0353
26552W        W43026   7.927   2.716   0.895 -0.1247  0.2356 -0.1071
26553W        W43027   6.818   5.012  15.560  0.0551  0.1104 -0.0435
26554W        W43028   6.818  14.001  13.326 -0.1539 -0.0481 -0.0986
26555W        W43029   5.171  15.232   5.186 -0.1367  0.2371  0.0672
26556W        W43030   7.790  11.389   5.241 -0.5589 -0.0148  0.0652
26557W        W43031   4.742   9.436   1.184 -0.3288  0.0810  0.0703
26558W        W43032   4.788  11.141   0.211  0.1915 -0.0559 -0.1373
26559W        W43033   6.113  10.659  11.206 -0.0185 -0.0333  0.1511
26560W        W43034   8.836  16.144   3.464  0.0085  0.0324  0.0177
26561W        W43035  16.954  11.652   3.584 -0.0791 -0.0414  0.0249
26562W        W43036  11.930  12.471   4.457 -0.1218 -0.0529  0.2546
26563W        W43037   3.977  13.167  16.414 -0.0693 -0.1845  0.1239
26564W        W43038   7.059   8.961   5.294  0.0440 -0.1820 -0.1987
26565W        W43039   0.167  13.850   2.457  0.2708  0.0368  0.1426
26566W        W43040  13.680   6.366   2.926  0.3455 -0.0486  0.1008
26567W        W43041   8.757   2.331  16.773  0.0738  0.1130 -0.0874
26568W        W43042   2.586  10.032  11.145  0.2153 -0.1447 -0.1157
26569W        W43043   4.543   9.497   1.768 -0.0476 -0.0626 -0.2866
26570W        W43044  12.940   4.423   2.689 -0.0157  0.0314 -0.2406
26571W        W43045  12.638   3.685  12.163 -0.0672 -0.2932  0.2743
26572W        W43046  10.570  15.443   1.121 -0.1336  0.0896  0.0453
26573W        W43047   4.426   6.579   1.342 -0.1312 -0.0647 -0.0024
26574W        W43048  12.819   1.447   5.357  0.0459  0.1573 -0.3388
26575W        W43049   4.920  13.924   0.712  0.3182 -0.1868  0.2561
26576W        W43050  11.589   8.125   2.748 -0.1403  0.1797  0.1269
26577W        W43051  16.261  16.038  15.819 -0.3225  0.1221  0.1225
26578W        W43052   0.903   5.096   0.019 -0.0279 -0.0748  0.0790
26579W        W43053  11.013   3.783   2.444  0.0201 -0.0218 -0.0052
26580W        W43054  12.016  10.850  15.637 -0.0754  0.2977 -0.0027
26581W        W43055   9.811   6.325   3.055 -0.1760 -0.2931 -0.0660
26582W        W43056   8.861   9.441   0.625  0.0614 -0.0672 -0.1798
26583W        W43057   1.813   1.910   1.895  0.0225 -0.3130 -0.0400
26584W        W43058  17.415  12.433  15.465  0.2079 -0.2919 -0.0960
26585W        W43059   2.683  12.041   2.664  0.1924  0.1160  0.0115
26586W        W43060   4.196   2.333  16.131 -0.0806 -0.0836 -0.0839
26587W        W43061  10.328  13.017   5.115  0.1334  0.0551  0.2219
26588W        W43062   2.666   4.649   0.372  0.1443  0.1771  0.2904
26589W        W43063   1.688  17.279   5.023 -0.0929  0.2934  0.2842
26590W        W43064   2.089  14.012   4.884  0.2759 -0.2526  0.1009
26591W        W43065  15.254  12.090   5.623 -0.2223  0.0960  0.0539
26592W        W43066  14.829  13.006   5.638 -0.0063  0.1294 -0.0911
26593W        W43067   2.482   5.595   6.302 -0.1373 -0.0042 -0.0226
26594W        W43068  15.223   9.347   5.749  0.0559 -0.1747 -0.0760
26595W        W43069  15.362  11.076   3.017 -0.2433  0.0511  0.2027
26596W        W43070   1.331  17.639  14.584 -0.1683 -0.2213  0.1365
26597W        W43071  13.957   3.373  12.919  0.0378 -0.1620 -0.3284
26598W        W43072   8.948  15.478   5.060 -0.0313 -0.2048  0.3752
26599W        W43073  13.753  17.599  13.961 -0.0301  0.3321 -0.0823
26600W        W43074   6.819   0.836  16.482  0.2136  0.1047  0.1484
26601W        W43075  17.804   2.716   1.544  0.2213  0.0250  0.0548
26602W        W43076  15.474   0.871  16.672 -0.0452  0.1014 -0.3215
26603W        W43077  16.082   2.270   5.508  0.2013  0.1243  0.4811
26604W        W43078   0.216  13.544  14.593  0.0578  0.0517  0.2442
26605W        W43079  17.018   7.606   2.144  0.2693  0.0775 -0.0435
26606W        W43080   3.953  15.557  13.655  0.0993 -0.0322  0.1247
26607W        W43081  17.434  11.998   1.047  0.2196 -0.1617 -0.0045
26608W        W43082   0.431  10.380   0.002  0.0385  0.0646  0.1545
26609W        W43083   4.983  14.785   1.371  0.1384  0.1863 -0.2423
26610W        W43084  11.746   2.500   3.941  0.0566 -0.1643 -0.1812
26611W        W43085  17.016   6.640   0.253  0.0990  0.0559 -0.3356
26612W        W43086   2.949   1.924   3.432 -0.1276  0.0570  0.0915
26613W        W43087  14.437  13.597   1.682 -0.1803  0.2185  0.0969
26614W        W43088   5.135   1.852  12.894  0.1390  0.0469 -0.0730
26615W        W43089  15.490  17.200  13.569 -0.0127  0.0784  0.2181
26616W        W43090   6.586   2.132   1.813 -0.1086  0.2940 -0.5173
26617W        W43091  12.817   3.562  14.000  0.0958  0.0402 -0.1597
26618W        W43092   0.247   4.725  15.041 -0.0961 -0.1227 -0.2780
26619W        W43093   7.762  16.543  13.180 -0.0855  0.0407  0.3978
26620W        W43094   6.986  14.194  12.799  0.0019 -0.1202 -0.1053
26621W        W43095  16.157   6.643  15.380  0.1543  0.1742  0.0710
26622W        W43096  12.912   8.080  14.616  0.1543 -0.0112  0.1302
26623W        W43097  10.595   4.007   1.910 -0.1472  0.0468 -0.0991
26624W        W43098  17.753   6.525   6.329 -0.2836  0.2989  0.1666
26625W        W43099   8.061   8.603  11.512 -0.4012 -0.0256  0.1555
26626W        W43100  15.097  16.990   0.879 -0.1040 -0.0811 -0.1271
26627W        W43101   2.079   1.303   6.541  0.0815  0.1414  0.0841
26628W        W43102   7.229  15.050   1.223  0.1936 -0.1121  0.0111
26629W        W43103   6.879  13.806   0.986  0.1595  0.1649 -0.2396
26630W        W43104   7.906   2.022  16.831  0.4652  0.0035  0.1366
26631W        W43105   7.623   3.498  16.161 -0.0284 -0.1637 -0.2643
26632W        W43106   8.730  16.307  16.130 -0.0853 -0.4129 -0.2696
26633W        W43107   9.533   0.254   0.052  0.2494  0.1384  0.1410
26634W        W43108   7.325  17.385   1.406  0.0249 -0.2869  0.0090
26635W        W43109  11.096   2.164  15.290 -0.0962  0.1153 -0.4853
26636W        W43110   8.964  16.524  13.901 -0.3760 -0.2512  0.0721
26637W        W43111   9.304  15.437  16.188 -0.1320 -0.0610 -0.1647
26638W        W43112   0.940  12.055  14.646  0.0069  0.1607  0.1330
26639W        W43113   8.140  14.201   0.817 -0.0118  0.0510  0.0462
26640W        W43114  14.934   4.146   2.169  0.0889 -0.0218  0.0347
26641W        W43115  15.178  17.406   5.048  0.0137  0.1447  0.0034
26642W        W43116  10.260  10.558   2.276  0.0166  0.2200 -0.1215
26643W        W43117  15.134   9.136  16.799 -0.2694  0.3932  0.0689
26644W        W43118   2.799  13.628   2.060 -0.0428 -0.2530  0.1939
26645W        W43119   8.777   6.833  13.447  0.1212  0.0751 -0.1546
26646W        W43120  13.378   6.441  13.096 -0.2270 -0.1517  0.1613
26647W        W43121   1.272   2.876  12.274 -0.0360  0.0243 -0.0159
26648W        W43122   7.147   6.337  10.973 -0.3226 -0.0760  0.1291
26649W        W43123   9.713   5.197   2.326  0.0716  0.0008  0.3715
26650W        W43124  12.863  13.150  15.201  0.1810 -0.2294  0.0486
26651W        W43125  13.220   3.005  16.391 -0.0434  0.0304  0.0753
26652W        W43126   8.246   8.038  13.029  0.1348 -0.1683 -0.3244
26653W        W43127  12.152   8.917  13.123 -0.0583  0.1889 -0.1285
26654W        W43128  11.996   0.925   0.676  0.0522  0.2235 -0.0898
26655W        W43129  13.947  14.853   3.182  0.2731  0.0260  0.4673
26656W        W43130  17.827  13.635   4.764 -0.0758 -0.0514 -0.1267
26657W        W43131   1.693  15.056  13.248 -0.0679  0.1946  0.6209
26658W        W43132  13.655   1.118   0.666 -0.0756 -0.2396 -0.0381
26659W        W43133   4.023   6.388   1.598  0.2580  0.0984  0.0292
26660W        W43134   0.349  10.589  11.485 -0.0970  0.1095 -0.1053
26661W        W43135   7.633   6.917  11.751  0.3079  0.2646  0.1373
26662W        W43136   3.956   2.237   4.604  0.3426  0.1093 -0.1999
26663W        W43137  11.287  17.749   1.317 -0.0525 -0.2250 -0.0654
26664W        W43138  15.340  12.913  13.672 -0.0560 -0.0706  0.0721
26665W        W43139   5.487   5.880  15.343 -0.1053 -0.2314  0.2666
26666W        W43140  16.538   1.208  15.689  0.1560  0.2302 -0.1682
26667W        W43141  13.003  14.735   3.641  0.2750 -0.0616 -0.3483
26668W        W43142   8.942  11.249  12.801 -0.1123 -0.0741 -0.2080
26669W        W43143  13.694   6.381   6.127 -0.1227 -0.0134 -0.1012
26670W        W43144  13.841  16.973   2.054  0.2058  0.1022 -0.4353
26671W        W43145  14.745  17.022   3.557  0.1894  0.3904  0.0774
26672W        W43146  10.788  11.559   0.622  0.1505 -0.0419 -0.0943
26673W        W43147   1.988  17.806  16.644  0.1708 -0.0366  0.1801
26674W        W43148  10.863   8.852   4.044 -0.3052 -0.0404 -0.0547
26675W        W43149   3.043   6.641   0.785  0.2315 -0.2018 -0.1267
26676W        W43150  10.895   4.338   0.070 -0.1484 -0.0194  0.0762
26677W        W43151  13.015   8.857  14.622 -0.1610  0.3480 -0.0175
26678W        W43152   1.721   9.636  16.272 -0.4024 -0.0415 -0.0193
26679W        W43153  13.542   4.788   1.102 -0.1085  0.1469  0.0509
26680W        W43154   6.322   1.192  15.869 -0.3168  0.1249 -0.2518
26681W        W43155   6.182  17.180  11.473 -0.0700  0.1308  0.1913
26682W        W43156  15.468   9.281   2.819  0.0067  0.2666  0.0088
26683W        W43157   8.977   8.760  13.260 -0.0699  0.0272  0.1891
26684W        W43158  16.219  15.875   2.237 -0.2970 -0.0017 -0.2252
26685W        W43159  14.911  13.366   3.134  0.0101 -0.0752  0.0338
26686W        W43160  14.668   2.643   1.782  0.0652  0.1466 -0.0234
26687W        W43161   1.960   0.503  13.088 -0.1335  0.3654 -0.0614
26688W        W43162  13.857   2.715  16.807  0.0589  0.0197  0.0581
26689W        W43163  11.728   6.395   2.049 -0.2240 -0.1299 -0.1938
26690W        W43164  10.814   3.941   1.461  0.0406 -0.2274 -0.0302
26691W        W43165   7.655   4.055  14.070 -0.0650 -0.0593 -0.1759
26692W        W43166  12.036   6.886  16.624 -0.0331 -0.1576 -0.1784
26693W        W43167  15.288   3.705  14.798 -0.0755 -0.3311 -0.1503
26694W        W43168   6.255   6.178  14.736 -0.0622  0.0365  0.0593
26695W        W43169   7.413   4.245  14.459  0.1422 -0.0101  0.0650
26696W        W43170   3.253  10.200   1.999 -0.0017  0.0527 -0.2099
26697W        W43171  12.656   8.746   2.709 -0.1119 -0.0391  0.4036
26698W        W43172  11.044   4.353  15.153  0.0737  0.0544  0.0304
26699W        W43173   8.522   2.746  12.828  0.1579 -0.0794  0.0272
26700W        W43174  15.762   9.667   3.072  0.3799 -0.2530  0.1515
26701W        W43175   7.706  11.344   3.873  0.1054 -0.1248 -0.0489
26702W        W43176   5.762  14.153   4.621  0.2953 -0.3441 -0.0790
26703W        W43177   5.679  11.391  13.841  0.0135 -0.0408 -0.1781
26704W        W43178  13.921   9.022  13.381  0.0639 -0.0950 -0.1397
26705W        W43179   0.113   5.804  15.307 -0.4398  0.0532 -0.0471
26706W        W43180   5.694  12.170   0.955  0.3526  0.2785 -0.1950
26707W        W43181  12.296   5.722  14.999 -0.1474 -0.1784 -0.0404
26708W        W43182   0.547  17.180  16.147 -0.4007  0.1785  0.0763
26709W        W43183  10.631  15.249  11.599  0.1432  0.2620 -0.0384
26710W        W43184   7.951  12.630  14.863  0.2823  0.0929  0.0596
26711W        W43185  15.284  11.823  10.421 -0.0857 -0.0565  0.0391
26712W        W43186  14.594  14.805   0.499  0.0265 -0.1349  0.2655
26713W        W43187   5.293  16.916  15.813 -0.2241 -0.1313  0.0307
26714W        W43188  15.035   4.279   4.035  0.1673  0.3960  0.1290
26715W        W43189  12.466  13.320  12.448 -0.0264 -0.0261 -0.1938
26716W        W43190  15.409   4.933  16.765 -0.0651 -0.2238  0.2282
26717W        W43191  10.344  16.909   2.435  0.2905 -0.2357 -0.1082
26718W        W43192   1.148   0.642  13.405  0.0782 -0.1280  0.0097
26719W        W43193   9.174  11.136  15.839  0.2599 -0.0461  0.1249
26720W        W43194  15.226   1.052   1.946 -0.1742  0.2230  0.1433
26721W        W43195   0.383  12.534  13.419 -0.1031 -0.0313 -0.2113
26722W        W43196  10.856   4.521   2.137  0.3263  0.3114  0.0182
26723W        W43197   2.766   7.167  12.736  0.1070 -0.4115 -0.2228
26724W        W43198  11.662   0.323  12.500  0.2632 -0.1038  0.0469
26725W        W43199  13.726  14.439  13.323  0.3857  0.0840  0.1707
26726W        W43200   8.350   6.734   3.582  0.1587  0.0744  0.0038
26727W        W43201   5.008   3.608   3.535  0.0466 -0.1131 -0.2710
26728W        W43202   5.471  14.102  15.930  0.0094 -0.1667  0.3437
26729W        W43203   8.223   0.412   1.448 -0.2547  0.0373  0.3489
26730W        W43204  13.122   5.130  13.868  0.1410 -0.1458 -0.0235
26731W        W43205  17.310  15.647   4.850  0.1655  0.0786  0.0301
26732W        W43206   6.714  13.082  11.678  0.3393  0.0028 -0.3041
26733W        W43207  15.053   4.984   3.234  0.1772  0.3038  0.2224
26734W        W43208   8.107   8.799   4.377  0.0498 -0.1548  0.0242
26735W        W43209  14.993   7.814  15.892  0.4267  0.2500 -0.0310
26736W        W43210  16.139   8.965   3.191 -0.0216 -0.1937  0.0763
26737W        W43211  13.948  15.966   3.542 -0.0899  0.0489 -0.2955
26738W        W43212  14.763   9.369  14.816  0.2612  0.2434  0.0359
26739W        W43213  15.752  10.480   0.694 -0.0323 -0.0344  0.0855
26740W        W43214   6.293  14.703  12.519  0.1070  0.0697 -0.1392
26741W        W43215  13.832   7.023   1.257  0.0226 -0.0075  0.5050
26742W        W43216  11.332  17.138   2.274 -0.2351 -0.3548 -0.0307
26743W        W43217  12.705   7.377   3.354  0.2669 -0.0319  0.3516
26744W        W43218   5.957  11.771  12.569 -0.0581 -0.0937  0.0036
26745W        W43219  17.620   6.711   1.434  0.2328  0.1834  0.0466
26746W        W43220  10.474   3.127  16.548  0.1045 -0.0673  0.0687
26747W        W43221   0.466   2.851  13.338 -0.3707 -0.0175 -0.0164
26748W        W43222   6.519  12.578   5.405 -0.1485  0.0422 -0.0672
26749W        W43223  10.664  12.269   0.489  0.1220 -0.3111 -0.0306
26750W        W43224   1.811   9.766  12.554 -0.2810 -0.3028 -0.0278
26751W        W43225   6.137   7.962  16.096 -0.0129 -0.2570 -0.0762
26752W        W43226  10.077   6.245   0.176  0.0132  0.1714  0.1213
26753W        W43227  10.903  14.258   1.623  0.0271  0.2507  0.0257
26754W        W43228   0.512   2.428  16.100  0.1538  0.0108  0.1693
26755W        W43229  14.887   4.557  16.767  0.1154 -0.0399 -0.0505
26756W        W43230   0.778  16.578   2.481  0.1316  0.3742 -0.1068
26757W        W43231   0.618   1.809   4.975 -0.0220 -0.1278  0.0484
26758W        W43232  11.158   0.369  15.485  0.2740 -0.0459  0.1044
26759W        W43233   9.014   9.402   2.085  0.0047 -0.0014  0.0112
26760W        W43234   0.938   1.774  12.374  0.1395  0.2952  0.0317
26761W        W43235  13.645  17.003   4.936 -0.2801 -0.0054 -0.1026
26762W        W43236  11.787   4.994   2.178 -0.1440 -0.3597 -0.0183
26763W        W43237  13.495   8.783   5.970  0.0721  0.0317 -0.3288
26764W        W43238  11.659   5.891  11.877  0.3624  0.0805  0.0008
26765W        W43239   2.862   8.274   3.630  0.1338  0.1205  0.1774
26766W        W43240   7.831   7.712  13.147  0.2811  0.3895 -0.2205
26767W        W43241  13.607  15.601   1.850  0.3235 -0.0432  0.3536
26768W        W43242  14.881   2.731   0.275  0.1336 -0.2325  0.1507
26769W        W43243   0.941   4.013  15.107  0.3024 -0.0002  0.1333
26770W        W43244   4.305  13.848  16.916  0.0648 -0.0560 -0.5423
26771W        W43245   9.160   5.450   1.501  0.0662 -0.2164  0.2355
26772W        W43246   6.475   2.548  14.773 -0.1947  0.1112  0.1936
26773W        W43247   1.548   5.756  15.053  0.1389 -0.1419  0.1131
26774W        W43248   4.983   8.697   2.142  0.4315 -0.1583 -0.1593
26775W        W43249  11.362  15.076  16.927 -0.2765 -0.1396 -0.1435
26776W        W43250   8.082   8.530  13.347  0.0870  0.1886 -0.0543
26777W        W43251   6.603   1.546   5.356  0.2735 -0.4551  0.0044
26778W        W43252  14.129  10.156   5.132  0.2225  0.2137  0.1080
26779W        W43253   5.054   4.733   2.519 -0.0753 -0.1007 -0.1738
26780W        W43254   6.356   0.670   5.871  0.3349 -0.0522  0.0630
26781W        W43255   9.128  14.709  15.620  0.0187 -0.1032 -0.0472
26782W        W43256  13.677  12.703   3.739 -0.2461  0.0956  0.0427
26783W        W43257   6.976  15.642  14.598  0.0926  0.2255  0.3057
26784W        W43258   0.145  17.301  15.965  0.2177  0.1746 -0.1139
26785W        W43259   9.353   5.121  13.834 -0.1886  0.0720 -0.1231
26786W        W43260   9.241  16.510  13.378  0.1864  0.1918  0.3027
26787W        W43261   7.950   4.659   5.246 -0.0993  0.2389  0.1288
26788W        W43262   8.782  17.215   4.328  0.3459 -0.0309  0.3777
26789W        W43263   4.171  14.404  15.676 -0.0561 -0.1473 -0.0260
26790W        W43264  16.164  15.574  16.232 -0.1763  0.0700  0.0239
26791W        W43265   9.102   0.396  15.450 -0.3819  0.0359  0.3757
26792W        W43266   7.298   3.441   1.803  0.0089  0.0633  0.1736
26793W        W43267  12.011   4.478  12.960 -0.0963  0.1726 -0.2277
26794W        W43268   5.765   8.459   4.326 -0.1178  0.1391  0.0582
26795W        W43269   0.200  10.597   2.139  0.1528 -0.1397  0.1449
26796W        W43270  16.665   5.277   3.441  0.1120 -0.1613  0.2306
26797W        W43271   2.270   1.982   2.760  0.0991  0.1139  0.1939
26798W        W43272   4.912   2.753   5.066  0.2123  0.5031 -0.2524
26799W        W43273  10.529   8.086  14.553  0.0779  0.1526 -0.2479
26800W        W43274   9.755  11.517   5.259 -0.0632  0.0378  0.1122
26801W        W43275  14.297   6.620   2.471  0.0201 -0.1168  0.3133
26802W        W43276  17.813  14.081  12.906 -0.0352 -0.2293  0.3755
26803W        W43277   8.430   3.341  15.632  0.4184  0.2018  0.2556
26804W        W43278  12.709  15.126  16.694  0.1243  0.0080  0.1137
26805W        W43279  10.383  14.251  12.104  0.1648 -0.3420  0.0811
26806W        W43280  11.371   0.682  15.871  0.0652 -0.3247 -0.0841
26807W        W43281  15.455  10.499   1.184  0.0137 -0.0911  0.1741
26808W        W43282   0.061   9.409  16.082  0.1129 -0.1776 -0.1758
26809W        W43283   9.333   3.277  15.057  0.0652 -0.3124  0.2799
26810W        W43284   4.473  11.429   5.593 -0.0212 -0.1823 -0.0238
26811W        W43285   0.049  10.635  11.087 -0.0029 -0.3109  0.1653
26812W        W43286   3.918   4.184  15.113 -0.0922 -0.0394  0.0624
26813W        W43287   1.522  10.226   2.254  0.1581 -0.2924  0.0913
26814W        W43288   2.309   3.883  13.727  0.0528 -0.2419 -0.0245
26815W        W43289   8.157   1.404   6.079  0.1471 -0.1392 -0.1196
26816W        W43290  14.093   9.301   3.040 -0.2391  0.2230 -0.2610
26817W        W43291  10.004   4.098  12.330 -0.1237  0.3272  0.2137
26818W        W43292   8.927   9.878   4.196  0.1118  0.1229  0.2071
26819W        W43293   9.397   4.679   0.571 -0.2137 -0.0782  0.0064
26820W        W43294   1.714  16.862   2.225  0.0087 -0.0330 -0.1281
26821W        W43295  13.346  16.831  16.674  0.2259 -0.2597  0.2686
26822W        W43296   7.338   8.505   6.135  0.2458 -0.1671 -0.1419
26823W        W43297   3.819   2.729  15.496  0.0821  0.1403  0.1594
26824W        W43298  16.143  10.451  16.645 -0.0928 -0.2585 -0.0578
26825W        W43299  16.238   2.069   4.368  0.0168 -0.0095 -0.2687
26826W        W43300   4.122  16.571  15.925  0.1769 -0.0919 -0.2260
26827W        W43301  17.787  15.827   1.923 -0.0232 -0.3012  0.1550
26828W        W43302   3.568  16.194   5.065 -0.0736 -0.0094  0.3045
26829W        W43303   8.454   6.564   3.041 -0.1228  0.2034 -0.0006
26830W        W43304  16.802   5.885   0.511 -0.0138 -0.0132 -0.2913
26831W        W43305  14.019  11.964   6.264 -0.2418 -0.2054 -0.0212
26832W        W43306  15.854  16.418   6.031  0.0850 -0.1463 -0.0496
26833W        W43307   4.092  13.820  14.289 -0.0384 -0.1221  0.0864
26834W        W43308   0.207  13.031  14.667  0.3216 -0.1349 -0.2008
26835W        W43309  12.268  16.259   2.774 -0.1117 -0.0371  0.2100
26836W        W43310  15.535   0.289  13.564  0.4036  0.0111 -0.0196
26837W        W43311  17.437  17.609  14.106 -0.0879 -0.0317  0.2518
26838W        W43312   0.512   6.575   5.756 -0.2356 -0.0400 -0.2268
26839W        W43313  11.886  15.317   2.542 -0.1548  0.0512  0.0955
26840W        W43314   0.055   5.427   2.469 -0.2121  0.0621 -0.2384
26841W        W43315  11.525   1.789  13.828  0.0502  0.0647  0.2748
26842W        W43316   3.661  14.298   0.276 -0.0269 -0.1393 -0.1523
26843W        W43317   3.678   8.879   2.560  0.0617 -0.0974 -0.0341
26844W        W43318  12.575   6.453  13.325  0.0981 -0.1160 -0.1595
26845W        W43319  10.895   8.084  15.124  0.3048 -0.1385 -0.0150
26846W        W43320   2.494  17.799  16.800 -0.1186  0.2642 -0.0413
26847W        W43321   2.233   9.470   3.778 -0.2096  0.1456 -0.1592
26848W        W43322   7.247   3.856   1.135  0.1368  0.1148 -0.1901
26849W        W43323  13.317   2.187  15.045 -0.3601  0.0024  0.1291
26850W        W43324   6.122   7.073   2.439  0.1120 -0.0844  0.1434
26851W        W43325   8.838   9.802   1.817 -0.1712 -0.0481 -0.0977
26852W        W43326  15.643   0.038   5.256  0.2496  0.1854 -0.0172
26853W        W43327   3.038   5.987   1.735 -0.1854 -0.0328 -0.0511
26854W        W43328   8.412   2.694   5.796 -0.2595 -0.0983 -0.1369
26855W        W43329   3.635  15.657   2.687 -0.2196  0.0838 -0.1210
26856W        W43330   4.403   9.710   3.200  0.2299  0.1099 -0.0474
26857W        W43331  13.025   2.125   3.181  0.1504  0.0585 -0.0558
26858W        W43332   0.304   6.230  12.706 -0.2377  0.0338  0.0783
26859W        W43333  16.664   1.621   2.051 -0.0298  0.1806 -0.0103
26860W        W43334   8.354   5.505   0.161 -0.2555 -0.0664  0.0102
26861W        W43335  10.552  11.053   5.370 -0.1218 -0.0881 -0.3600
26862W        W43336  13.922  15.223  16.757 -0.0495 -0.4152  0.0598
26863W        W43337   1.331   2.430   1.712  0.0574  0.1237  0.0655
26864W        W43338   2.327  16.481  13.432  0.0881 -0.0986  0.0708
26865W        W43339   7.703  12.436   4.353 -0.0831 -0.1902  0.0836
26866W        W43340   4.792   9.342   3.196 -0.0801 -0.1064  0.1224
26867W        W43341   7.117   6.071   5.362 -0.0853 -0.0318  0.1502
26868W        W43342   2.221   1.570   4.543 -0.0460 -0.2383 -0.4109
26869W        W43343   3.991   6.485  16.660 -0.2064  0.0878 -0.0355
26870W        W43344  13.764   1.917   1.149  0.0458  0.0562  0.2003
26871W        W43345   3.996   5.317  15.406  0.0879  0.2267  0.5029
26872W        W43346   0.987   1.592   1.669  0.1901 -0.1725  0.1530
26873W        W43347  13.272   3.858   2.259 -0.0420 -0.0086 -0.2424
26874W        W43348  13.785  15.243   3.472 -0.1251 -0.1949 -0.3099
26875W        W43349  10.974  13.961   3.961 -0.2789  0.0059  0.3779
26876W        W43350   5.307   3.241   3.379 -0.1785  0.1507  0.1095
26877W        W43351   5.868   6.068   3.911 -0.0120  0.3229  0.0417
26878W        W43352   2.436   9.417  14.714 -0.0111  0.2284 -0.2254
26879W        W43353  15.052  13.538  15.248  0.1822  0.0640  0.1331
26880W        W43354   7.210   8.803  12.783  0.0320  0.0516 -0.0451
26881W        W43355  12.633   8.528   1.753 -0.1654  0.5773 -0.2277
26882W        W43356   0.582  11.200   2.376 -0.0916  0.0996 -0.2014
26883W        W43357  15.648   8.930   3.073  0.2216  0.2485  0.1297
26884W        W43358   2.527  12.563   3.404 -0.1912  0.1210 -0.0554
26885W        W43359   0.275   9.311  15.260  0.2835  0.4158  0.0548
26886W        W43360   8.367  14.133  12.772 -0.1315 -0.1228 -0.4421
26887W        W43361  15.558   0.397  16.508 -0.1914 -0.1103  0.0474
26888W        W43362  17.366   1.064   0.179  0.1930 -0.0481  0.4107
26889W        W43363  14.693  14.666   4.264  0.3289 -0.1324  0.3879
26890W        W43364   4.780   9.940  15.689 -0.0485  0.1807 -0.0130
26891W        W43365  12.533  13.248  16.834  0.1954  0.1348  0.0758
26892W        W43366   4.673   6.122  15.830  0.2208  0.0956  0.2611
26893W        W43367   3.188   1.135   5.614 -0.2931 -0.1463 -0.1183
26894W        W43368  11.862  10.016  14.962 -0.2171  0.2982 -0.1666
26895W        W43369  13.727  11.060   4.606  0.2586 -0.2289 -0.0652
26896W        W43370   5.824  16.124  14.138  0.0441 -0.0526 -0.0576
26897W        W43371  14.926  14.298   1.258 -0.1178  0.1304  0.0885
26898W        W43372   8.596  10.051  16.847  0.1080  0.0991 -0.2655
26899W        W43373   7.870   9.413  15.441  0.1947 -0.0383 -0.4091
26900W        W43374   9.413   1.483   4.961 -0.1140 -0.0060  0.1957
26901W        W43375  14.001  12.596  14.740 -0.0522 -0.0700 -0.2014
26902W        W43376   3.440   0.176  14.236 -0.0843  0.4914 -0.1793
26903W        W43377   4.040  13.454   1.520 -0.0733 -0.2627 -0.0494
26904W        W43378  16.798   7.157   2.301 -0.0057  0.1345 -0.2005
26905W        W43379  11.753  14.956   1.353 -0.0950 -0.2889 -0.2721
26906W        W43380   6.076   5.320  15.781  0.2405 -0.1197 -0.0513
26907W        W43381  10.708  11.257  13.051  0.2384 -0.1757 -0.4498
26908W        W43382   7.539   2.525   5.092  0.2309  0.0267  0.0993
26909W        W43383   5.233  13.852  12.543  0.0136 -0.1029  0.1127
26910W        W43384  15.095  10.015  16.130 -0.1509 -0.0153 -0.0507
26911W        W43385   6.304   9.949  12.046 -0.0447 -0.3103 -0.0653
26912W        W43386   4.525   5.068   0.169 -0.1558 -0.2433 -0.2174
26913W        W43387  14.910   6.227  15.149 -0.0078  0.0245 -0.2116
26914W        W43388   3.034  11.712   2.646  0.0217 -0.2407 -0.0792
26915W        W43389   1.226  14.896   4.086  0.2781 -0.2972 -0.0844
26916W        W43390   1.163  10.822   3.524  0.2569 -0.0768  0.3614
26917W        W43391   7.532  17.093   1.006 -0.1127 -0.2303 -0.0558
26918W        W43392   0.115   9.551   1.229  0.0032 -0.0895  0.0019
26919W        W43393   6.303   0.141   5.766 -0.1690 -0.0630  0.1647
26920W        W43394  11.973  10.584   3.960 -0.2548  0.1296  0.0966
26921W        W43395   4.070  11.056  13.432 -0.2054  0.0281 -0.0332
26922W        W43396   2.743  16.699   0.622 -0.3438  0.2105  0.2410
26923W        W43397   8.194   1.661  16.674  0.1364 -0.0267  0.2091
26924W        W43398   8.519   6.675  16.487  0.2166  0.1954  0.0001
26925W        W43399  12.036  12.803  15.844 -0.2105 -0.1642  0.1079
26926W        W43400  13.915  11.913   0.571 -0.1084  0.1273  0.1953
26927W        W43401   1.215  13.578   4.191 -0.2254  0.1577 -0.1668
26928W        W43402   3.981   6.547  16.149 -0.0889 -0.3751 -0.1662
26929W        W43403   6.188  10.650   4.666 -0.0157  0.0441 -0.1205
26930W        W43404   5.169   8.821   3.078 -0.3483 -0.1529 -0.1181
26931W        W43405   7.419  12.364   4.862  0.2190  0.1063 -0.0334
26932W        W43406  12.722   4.795  13.924  0.4494 -0.0679 -0.1844
26933W        W43407   0.200  11.686  15.283  0.1107  0.1117  0.1315
26934W        W43408  15.565   7.596   4.165 -0.0578 -0.0002 -0.0697
26935W        W43409  17.716  17.760   0.990  0.1902  0.2558  0.1377
26936W        W43410   6.981  10.226   2.878 -0.1278 -0.0110  0.0123
26937W        W43411  13.221   9.048   4.400  0.1960  0.1188 -0.2447
26938W        W43412  15.944   6.135  14.510  0.0610 -0.2040 -0.0683
26939W        W43413  10.544  16.163  11.284 -0.0546 -0.0736 -0.3017
26940W        W43414   7.490   6.298  12.906  0.1613 -0.0446  0.0102
26941W        W43415  14.050  11.347   1.981  0.0609  0.1814 -0.0481
26942W        W43416  15.511   9.771  12.516 -0.0193  0.0757 -0.0802
26943W        W43417  12.588  16.574  14.439 -0.1536  0.1767 -0.0980
26944W        W43418   9.332  13.242   0.350  0.1445 -0.3322 -0.2042
26945W        W43419  12.180   7.313  12.599  0.0486 -0.1175 -0.1004
26946W        W43420  13.060  12.004   2.630 -0.3282 -0.1625 -0.1523
26947W        W43421  12.162  11.192   3.665  0.0841  0.0825  0.1823
26948W        W43422   3.938  14.100  16.239 -0.1543  0.0016  0.1593
26949W        W43423   2.427  17.815   5.445  0.0711 -0.0039 -0.2613
26950W        W43424   6.282   4.419  12.419 -0.2503  0.3625 -0.0166
26951W        W43425  12.383   5.264   1.161  0.3333  0.1962 -0.4510
26952W        W43426  13.493  11.484   1.806  0.1959 -0.0054  0.2485
26953W        W43427  15.129  11.522   4.353  0.0321 -0.0709  0.0692
26954W        W43428  17.229  13.335   2.501 -0.1124  0.0876 -0.0612
26955W        W43429   5.068   8.905  14.392 -0.0694 -0.0223 -0.0297
26956W        W43430  16.581   6.912  15.694 -0.0840  0.0360 -0.1159
26957W        W43431   2.924   5.537  13.488  0.2885 -0.2097 -0.2941
26958W        W43432   5.402  12.138   4.534  0.0177  0.0764  0.0584
26959W        W43433  10.187   7.686   3.910  0.1402 -0.2133  0.0847
26960W        W43434   0.077   5.092   5.765 -0.2064  0.0279  0.1893
26961W        W43435  10.700   7.622   2.091  0.3760 -0.0947  0.3157
26962W        W43436   2.971   8.076   1.875  0.1164 -0.1567 -0.4434
26963W        W43437   4.975  12.182  13.336  0.0475 -0.0648  0.1112
26964W        W43438   7.000   2.729   4.421 -0.0746 -0.1318 -0.0406
26965W        W43439   5.949  16.787   3.177 -0.2870  0.0340  0.0272
26966W        W43440  12.283   3.159  15.936  0.1025 -0.0531 -0.0319
26967W        W43441  17.443  11.181  15.057  0.3107  0.0692  0.0601
26968W        W43442   2.901   9.061  11.867  0.0227  0.1068 -0.0262
26969W        W43443  15.405   6.093   4.756 -0.0657 -0.0618 -0.0303
26970W        W43444   4.156   4.604   3.645  0.3582 -0.2252  0.0359
26971W        W43445   5.482  13.017   5.020  0.2334 -0.0479 -0.0469
26972W        W43446   4.795   5.400   3.817  0.1876  0.1831  0.0483
26973W        W43447   0.444   3.396   5.831  0.0380 -0.3568 -0.2503
26974W        W43448   5.507   0.990   0.082  0.1444  0.2394 -0.2896
26975W        W43449   5.490  10.978   2.993 -0.0157  0.2183 -0.2872
26976W        W43450   7.903  15.938  14.382  0.0205  0.2084  0.0965
26977W        W43451  16.079  14.494  13.580 -0.0752 -0.1136  0.2827
26978W        W43452  14.966  11.097  14.681  0.0318 -0.2688 -0.0917
26979W        W43453   3.627  10.071  12.957  0.1621 -0.1595  0.0592
26980W        W43454   5.906   6.389  12.352  0.1422 -0.2042  0.0141
26981W        W43455   8.940   2.295   5.208 -0.0722  0.1604 -0.0184
26982W        W43456   5.776  12.338  14.429 -0.3133 -0.1326  0.0407
26983W        W43457   8.114   1.446   4.364 -0.2106  0.1179 -0.2570
26984W        W43458  15.291   6.462  16.639 -0.2008 -0.0513 -0.1599
26985W        W43459  12.596   0.059   4.508  0.0603  0.0733  0.3121
26986W        W43460  14.747   2.515  16.471 -0.0451  0.0292  0.1916
26987W        W43461  11.009  14.852  14.316  0.2475  0.0329  0.0901
26988W        W43462   8.087  12.735  12.636  0.2518  0.0159 -0.3804
26989W        W43463   2.170  16.420  12.040  0.2523 -0.0686 -0.0554
26990W        W43464   3.968   6.328   5.694  0.2069  0.0325  0.2327
26991W        W43465  11.114  14.103  13.620  0.0246 -0.1334 -0.1982
26992W        W43466  10.003   0.793   5.534 -0.1517  0.0804  0.1118
26993W        W43467   8.480  14.384   3.076 -0.0036 -0.2569 -0.1025
26994W        W43468  17.418   8.788  16.634 -0.1617 -0.2292 -0.0331
26995W        W43469   8.672  14.963  16.499 -0.1370  0.5337  0.0314
26996W        W43470  15.866   6.015   5.068 -0.1140  0.0422 -0.3216
26997W        W43471   8.048  17.537   2.043  0.2212  0.0212 -0.1132
26998W        W43472  11.848   2.605  12.779  0.2122  0.0456 -0.0767
26999W        W43473   5.179   1.978   1.221  0.4208 -0.2466  0.0895
27000W        W43474   7.567  14.552  16.033 -0.1102 -0.2695 -0.1221
27001W        W43475  12.913   6.379  16.066  0.0165  0.0918 -0.2898
27002W        W43476   9.355   4.834  14.316 -0.0619 -0.1567  0.1521
27003W        W43477  10.989  15.570   0.792 -0.1411  0.0503 -0.2137
27004W        W43478   4.724   1.886   1.429  0.0922 -0.2905  0.0147
27005W        W43479   8.762   2.919  16.231  0.0799  0.1767 -0.3244
27006W        W43480   4.883   4.897  16.486  0.0194  0.0510 -0.1358
27007W        W43481   2.348  10.338  13.191 -0.0750  0.1691  0.1385
27008W        W43482  13.843   5.529   2.599  0.0994  0.0157 -0.0216
27009W        W43483   7.013  17.754   1.077  0.1570 -0.0096 -0.1040
27010W        W43484  16.516  14.259   1.609 -0.1072  0.4628 -0.0380
27011W        W43485  15.961  14.987   0.813  0.2677 -0.0884  0.3325
27012W        W43486   2.328   5.031   5.896  0.1328 -0.3210 -0.0826
27013W        W43487  13.333   5.458   5.281  0.0792 -0.0296 -0.1618
27014W        W43488  14.246  14.025  14.051 -0.3734  0.1045  0.0663
27015W        W43489   6.403   3.420  13.724 -0.1583  0.1039 -0.0372
27016W        W43490   2.832  14.626  13.882  0.0566  0.2194  0.0501
27017W        W43491   1.710  15.922   2.235  0.1932  0.0850  0.1864
27018W        W43492  14.738   5.525   2.457  0.0494 -0.1985  0.2427
27019W        W43493   7.944  13.654  12.149  0.2664  0.3237 -0.2015
27020W        W43494   9.786   2.469  11.261  0.0905  0.1560 -0.2973
27021W        W43495   1.825  10.163  15.558 -0.0022 -0.0718  0.1307
27022W        W43496   4.358  14.238  12.808 -0.0646  0.2454 -0.5017
27023W        W43497  14.674   9.895  16.427  0.0858 -0.0065  0.1204
27024W        W43498  16.303  16.927   2.009  0.2503 -0.0849  0.2667
27025W        W43499   0.630   1.141   1.690 -0.0965 -0.0848  0.1162
27026W        W43500   9.261   9.600   5.115 -0.0717 -0.1437 -0.0626
27027W        W43501  16.241   0.333  12.498 -0.0350  0.1546 -0.1196
27028W        W43502  14.850   7.381   2.417  0.0765 -0.1233 -0.0792
27029W        W43503  12.925   3.299   5.320 -0.2758 -0.1187  0.2175
27030W        W43504   5.906  16.048  10.747  0.0646  0.2399  0.0076
27031W        W43505   3.032   9.740   4.301 -0.1993 -0.1679  0.1169
27032W        W43506   5.155   6.578   5.241 -0.0659  0.0473 -0.1530
27033W        W43507  17.653   0.656   5.243  0.0230  0.0346  0.0462
27034W        W43508   8.185  13.823  16.326 -0.0742  0.0184  0.0239
27035W        W43509   4.567   9.641   4.087 -0.1849 -0.2916  0.0774
27036W        W43510  16.078   7.545   2.003 -0.1377 -0.0785  0.0300
27037W        W43511  14.942   8.467   5.162 -0.1211  0.4976 -0.0629
27038W        W43512  12.492  11.147   3.161  0.0316  0.1059  0.1317
27039W        W43513  16.439  15.310   4.953  0.0852 -0.2372  0.0701
27040W        W43514   8.342  12.817  16.541 -0.1016  0.2202 -0.0018
27041W        W43515  13.074   4.486   4.921  0.0631 -0.4082 -0.0856
27042W        W43516   9.003   4.058  16.592  0.1179 -0.0517  0.0937
27043W        W43517  11.645   8.354  13.850 -0.2734  0.0710  0.1479
27044W        W43518   0.926  15.254  15.554 -0.1207 -0.0026  0.0494
27045W        W43519   6.624   9.084   4.053  0.0275  0.2276  0.3685
27046W        W43520   9.943   5.944   3.708  0.0624  0.1233  0.0703
27047W        W43521   8.147  14.447  13.079 -0.1198 -0.0428 -0.3476
27048W        W43522   1.237  15.611  14.616  0.1354  0.2743  0.2163
27049W        W43523   3.449  11.151  11.582  0.0221  0.1736  0.3136
27050W        W43524  10.326   3.046  13.604 -0.0333 -0.0484  0.1269
27051W        W43525   6.752   3.761  16.156  0.0027  0.1556 -0.5104
27052W        W43526  12.168   1.763  14.731  0.1770 -0.1163  0.3647
27053W        W43527   8.083   8.887   3.893  0.4893  0.1176 -0.1857
27054W        W43528   5.342   1.105   1.245  0.1213 -0.1128 -0.1839
27055W        W43529  10.095  17.237   5.807 -0.2408  0.1857  0.1139
27056W        W43530   4.853   6.501   3.057 -0.0323 -0.0843  0.2027
27057W        W43531   7.627  14.028  13.461  0.2781 -0.1213  0.0803
27058W        W43532   9.895   8.274   3.122 -0.4350  0.0015 -0.0206
27059W        W43533   4.951   8.321   1.239  0.3547  0.2071  0.2798
27060W        W43534   8.186   6.850   0.618 -0.0264  0.0062 -0.0532
27061W        W43535  15.670  14.158   2.519  0.0224 -0.1079  0.2113
27062W        W43536  13.753   5.635   1.737 -0.1725 -0.2219  0.2299
27063W        W43537   1.693  13.819   0.264  0.1678  0.1615 -0.0091
27064W        W43538   2.066   7.164   0.083 -0.1137 -0.0101  0.4874
27065W        W43539  17.430   6.235   1.488 -0.0245  0.1878 -0.2478
27066W        W43540   9.909   6.167  13.286  0.1326 -0.2913  0.0583
27067W        W43541  12.752  16.936  14.803 -0.2320 -0.3838  0.1139
27068W        W43542   3.549   6.397   5.449 -0.1533  0.0511  0.0470
27069W        W43543   5.386  16.175   3.108  0.2014 -0.0159  0.1932
27070W        W43544  14.739   5.564   3.362  0.0960  0.1476 -0.0501
27071W        W43545  12.630   8.342   0.596 -0.0711 -0.0026 -0.0639
27072W        W43546   4.546  14.293  16.106  0.1135  0.2072  0.0859
27073W        W43547  15.637   9.129  11.711 -0.1680 -0.0908 -0.0692
27074W        W43548  12.463   9.391  13.021 -0.0006 -0.0840 -0.2712
27075W        W43549  11.567   7.385   4.530 -0.0596 -0.0290  0.1487
27076W        W43550  12.539  10.309  16.286  0.3774  0.0101  0.0870
27077W        W43551   2.473   4.735   0.883 -0.0491 -0.1348 -0.1048
27078W        W43552  14.535  13.267   0.678  0.1939 -0.0620  0.3224
27079W        W43553  13.557  10.971  14.360  0.1154  0.0072  0.0591
27080W        W43554   1.640  11.714  15.023 -0.1047  0.2206  0.0006
27081W        W43555  12.875   5.109  15.542 -0.1804  0.1984 -0.0165
27082W        W43556   3.684  15.423  13.223 -0.0503  0.1091 -0.3393
27083W        W43557   7.119   8.397   3.056 -0.2281 -0.0493  0.1405
27084W        W43558   5.907   4.460   5.865 -0.0773 -0.1892 -0.0547
27085W        W43559   8.130  15.999   5.873 -0.2302  0.1119 -0.2181
27086W        W43560  11.340  11.636   0.588  0.0506  0.1932  0.0168
27087W        W43561   7.332   0.944   4.091  0.1383 -0.4257 -0.2230
27088W        W43562   6.725  10.215  16.804 -0.1183  0.3531  0.4083
27089W        W43563   0.796   4.124  15.635 -0.0000 -0.1126  0.0234
27090W        W43564   5.934  16.039  14.601 -0.1888  0.1601  0.1492
27091W        W43565  15.625   0.843   0.290  0.0872 -0.1529  0.0045
27092W        W43566  11.835  14.484  12.232  0.2125 -0.0903 -0.2884
27093W        W43567   7.568  16.100  16.821  0.1622 -0.1815  0.0887
27094W        W43568   3.311  11.165  15.320 -0.0266 -0.1155  0.1313
27095W        W43569   8.557  10.807  14.442 -0.1148  0.1356 -0.0097
27096W        W43570   8.468  12.560   3.743  0.2129 -0.1603  0.0068
27097W        W43571  13.030   3.377  15.067  0.2936 -0.1124  0.0550
27098W        W43572  17.778  15.535  13.535  0.0454  0.1480  0.0848
27099W        W43573   0.669   4.292   3.577 -0.1002  0.1372  0.1193
27100W        W43574  13.696  13.332  15.176 -0.1922  0.0480 -0.2435
27101W        W43575   9.815   7.629  12.852 -0.0117 -0.0312 -0.1592
27102W        W43576  16.088  13.799   5.180 -0.0976 -0.0101  0.0254
27103W        W43577  12.633   0.019  16.014  0.2478 -0.0785 -0.3236
27104W        W43578   7.872  16.402  14.136  0.4287  0.2672  0.0814
27105W        W43579  14.499   6.051  15.983 -0.2527  0.0132  0.1787
27106W        W43580  15.841   1.516  12.062 -0.2369 -0.1941 -0.0956
27107W        W43581  11.034  13.966   2.498  0.0490  0.2738 -0.1190
27108W        W43582  17.156   2.988  15.025  0.1608  0.1008  0.0533
27109W        W43583   6.959   9.151   2.155  0.1750  0.1523 -0.2690
27110W        W43584  14.144   2.166   4.274  0.0406  0.0159 -0.0867
27111W        W43585  13.057   9.008   5.691 -0.2649  0.0909  0.0870
27112W        W43586   6.237  12.351   1.000 -0.1185  0.1108  0.0938
27113W        W43587   3.682  12.726  13.184 -0.1511 -0.1454  0.0294
27114W        W43588  12.190   8.944  14.280  0.1325 -0.0211 -0.1082
27115W        W43589   3.073  13.736   3.734 -0.2932 -0.2120 -0.0220
27116W        W43590  16.120   3.777  12.713 -0.1959  0.1422 -0.1780
27117W        W43591   9.481  17.287  13.735  0.1409  0.0097 -0.0140
27118W        W43592  10.462   4.007  16.250 -0.4812  0.2996  0.1598
27119W        W43593  15.228  16.293  13.765  0.0484 -0.0217  0.1002
27120W        W43594   6.572  16.480   3.357  0.0515  0.2692  0.1428
27121W        W43595   9.850   8.884  16.435 -0.0262 -0.3185 -0.1665
27122W        W43596   2.495  13.341   0.397  0.1105  0.2115  0.3292
27123W        W43597  11.758   1.611   4.413  0.1272 -0.0508  0.0897
27124W        W43598   2.683   5.539  16.390  0.0272 -0.0828 -0.2021
27125W        W43599  16.836  15.001   3.777  0.5195  0.1030  0.1057
27126W        W43600  15.545   4.436   4.649  0.0568  0.3156 -0.1042
27127W        W43601   5.671  14.236   2.281  0.0184 -0.0179  0.0638
27128W        W43602  12.369   8.178   4.030 -0.1583  0.1495 -0.1514
27129W        W43603   5.950  17.691   2.467 -0.0971  0.0383 -0.1858
27130W        W43604   2.799  12.480   1.429 -0.2312  0.3256 -0.0981
27131W        W43605  16.297  14.624  16.874 -0.2015 -0.1944 -0.2234
27132W        W43606   5.232   4.941   1.534 -0.1068 -0.0495  0.2464
27133W        W43607  13.473   0.337   3.613  0.0342 -0.0584  0.0520
27134W        W43608   1.414  17.755   5.817 -0.0655  0.2024 -0.1511
27135W        W43609   1.050  15.642  16.477  0.3877 -0.2440 -0.0129
27136W        W43610  16.081  17.104   5.642  0.2623 -0.0890 -0.2707
27137W        W43611   0.252   4.608   3.551 -0.0742  0.2510  0.1091
27138W        W43612  13.824   4.336  13.240  0.0054 -0.0835 -0.0916
27139W        W43613  11.452   6.523   6.277 -0.0162  0.1514 -0.0896
27140W        W43614   7.161   9.280   3.833 -0.0299 -0.0951  0.0050
27141W        W43615   9.582   3.482  12.529  0.2703  0.1887  0.0756
27142W        W43616  16.870   4.009  12.178 -0.0852 -0.2026  0.3206
27143W        W43617  14.196   1.362   1.423  0.2216  0.1020  0.1371
27144W        W43618   7.010   2.946  16.670 -0.1939  0.0569  0.0103
27145W        W43619   6.161   6.331  15.395  0.0245  0.2633 -0.1695
27146W        W43620   0.686  11.548  13.845  0.0594 -0.1593  0.1178
27147W        W43621   5.411   6.728  13.459  0.2002  0.3046  0.1123
27148W        W43622  14.507  12.780   3.982  0.0243 -0.1361 -0.0719
27149W        W43623   3.133   4.979  15.112 -0.1696 -0.0253  0.1422
27150W        W43624   8.480  11.272  14.563 -0.2944  0.0671  0.0354
27151W        W43625   7.442   3.016  16.238 -0.0831 -0.1094 -0.0756
27152W        W43626   5.263   5.109   5.261 -0.2177  0.0528  0.0442
27153W        W43627  10.201   0.439   3.333 -0.0386 -0.2382 -0.1687
27154W        W43628  10.509   0.927  15.986 -0.0045  0.0158 -0.0452
27155W        W43629   5.740  15.062   0.984  0.1200 -0.0378  0.0457
27156W        W43630  16.080   1.933  13.452 -0.0366 -0.0242 -0.2954
27157W        W43631   5.434  10.931  12.523  0.1185  0.0752 -0.3242
27158W        W43632   5.708   7.401   5.522 -0.2623  0.0413 -0.0928
27159W        W43633   7.040   0.098  11.795  0.0326 -0.1414 -0.2107
27160W        W43634  12.283  13.257   2.734 -0.1068  0.3202  0.0716
27161W        W43635   9.528  16.880   2.862 -0.0269  0.2800  0.2076
27162W        W43636   2.996  16.793  12.862 -0.0713 -0.0985  0.1803
27163W        W43637   3.847   9.780  15.458 -0.0191 -0.2483  0.2972
27164W        W43638   8.432   8.159  11.772  0.5440  0.0395 -0.1037
27165W        W43639  12.722   6.026   3.753  0.0101  0.0173  0.3617
27166W        W43640   1.156   9.196   2.175  0.2785  0.0626  0.2886
27167W        W43641   2.982   2.419   4.449 -0.1723 -0.0287  0.2703
27168W        W43642   2.295  17.443  15.941  0.0611 -0.2815 -0.0327
27169W        W43643  11.688   0.042   1.600 -0.1310  0.0519 -0.0241
27170W        W43644  12.913  10.043  15.939 -0.0037 -0.1811  0.2017
27171W        W43645   5.886   2.161   1.878 -0.0762  0.0887  0.0308
27172W        W43646   7.463   5.995   2.724 -0.3167 -0.0390  0.1719
27173W        W43647   8.820  15.682   0.750  0.0576  0.2523 -0.0327
27174W        W43648   1.588   8.705  11.736  0.1177 -0.1343  0.1125
27175W        W43649   8.680  14.715   1.313  0.3930  0.1920 -0.1783
27176W        W43650  14.253   7.919  12.331 -0.0305  0.0413 -0.1583
27177W        W43651  13.778  16.510  14.577 -0.2924 -0.3232  0.0511
27178W        W43652   9.347   5.312   3.365  0.4145  0.0125  0.0712
27179W        W43653   8.473   4.517  11.781  0.0350  0.0326  0.0405
27180W        W43654   8.729  16.698   4.170  0.0314  0.2254  0.1467
27181W        W43655  14.900   5.406  12.978 -0.2987  0.2388 -0.2805
27182W        W43656   5.921  16.505   5.529 -0.0655  0.1719 -0.2833
27183W        W43657   6.695   9.373   5.234 -0.0376 -0.0864 -0.1286
27184W        W43658   7.087  16.763  14.427  0.1145 -0.0233  0.0638
27185W        W43659  11.777   7.565   2.732 -0.1526 -0.1238  0.0250
27186W        W43660   7.972   1.684   3.806 -0.0300  0.0899  0.1526
27187W        W43661   3.073   2.853   1.182  0.0845  0.0180 -0.2062
27188W        W43662  11.520  10.743   3.172 -0.2014  0.0028 -0.0233
27189W        W43663   6.505  10.768  16.119 -0.1139 -0.1819  0.0702
27190W        W43664  13.943   1.748  12.989 -0.3539 -0.0900 -0.1200
27191W        W43665   1.398   8.980   0.759  0.2197 -0.0285 -0.0494
27192W        W43666  14.653   6.772   4.589  0.4357 -0.1717 -0.1670
27193W        W43667  16.042   2.650   2.828 -0.0408  0.2741  0.2297
27194W        W43668  15.161   3.657   2.029  0.0246  0.0223 -0.1371
27195W        W43669  13.292  10.948   1.166 -0.1529 -0.0693  0.1375
27196W        W43670  12.276  16.134   3.694 -0.0720  0.0198 -0.1968
27197W        W43671   2.928  17.219   0.544 -0.0093 -0.0896  0.4731
27198W        W43672  14.652   1.730   1.172 -0.1633  0.2189  0.2366
27199W        W43673   6.786   9.988   1.170 -0.0076 -0.1424  0.4066
27200W        W43674  11.039   0.667   2.607 -0.0936  0.0676 -0.4144
27201W        W43675   2.842  14.337   4.320 -0.1801 -0.3626  0.1639
27202W        W43676  16.404   6.675   0.735 -0.0033 -0.3687  0.0069
27203W        W43677  12.681  17.542   3.400  0.1560  0.0731  0.0161
27204W        W43678   1.465  10.129  16.390 -0.0984  0.0359 -0.0048
27205W        W43679  13.382  15.901   1.003  0.1025 -0.0699  0.0538
27206W        W43680  15.791  17.161  13.912 -0.3445 -0.0096 -0.1385
27207W        W43681   2.822   8.413  16.464  0.0151 -0.1487 -0.1945
27208W        W43682   4.508   1.390  16.762 -0.0287  0.0144  0.0245
27209W        W43683   7.615  16.824   3.590  0.1668 -0.3442 -0.0340
27210W        W43684  17.710  12.463  12.071 -0.2443  0.0161  0.0086
27211W        W43685  10.002  11.405  14.044  0.2388 -0.1286 -0.0499
27212W        W43686  15.907  16.349  12.549  0.0090  0.1843 -0.2358
27213W        W43687   0.110  10.423   0.428 -0.0641 -0.3147 -0.5924
27214W        W43688   6.027   4.823  12.600  0.0620 -0.0181 -0.2039
27215W        W43689   0.143   8.918  15.943  0.0867 -0.3411  0.1897
27216W        W43690   0.813  12.393   2.776  0.3031 -0.0834  0.3217
27217W        W43691   1.473   9.016   1.265 -0.0980  0.0669 -0.1059
27218W        W43692   5.588   8.867   5.040  0.2056  0.0180  0.3700
27219W        W43693   1.852   0.059  14.724 -0.1025  0.2104 -0.0128
27220W        W43694   6.100   0.214  16.163  0.1802 -0.0446  0.0588
27221W        W43695   8.464   9.547  16.793 -0.0786 -0.1570  0.0698
27222W        W43696   3.537   4.466  12.452 -0.1782  0.1445 -0.1407
27223W        W43697  12.831   4.547   6.059  0.1767  0.2998  0.3531
27224W        W43698  11.096   1.881  15.683 -0.0565 -0.3012  0.1340
27225W        W43699  17.141   7.603   0.220  0.0157 -0.3909 -0.0905
27226W        W43700   2.204  15.550  16.840 -0.0012  0.1632 -0.1635
27227W        W43701  14.868   8.161   0.991 -0.2410 -0.3744  0.0268
27228W        W43702   8.927   1.859   1.881  0.5057  0.1012  0.0439
27229W        W43703  13.670  15.754  14.236  0.1502 -0.2680  0.1203
27230W        W43704   3.912   1.667  15.970  0.0628 -0.0092 -0.2407
27231W        W43705  13.709  14.486  15.740  0.2532  0.0572 -0.0228
27232W        W43706  11.138  11.572  16.129  0.1776  0.2267  0.2264
27233W        W43707  15.557  10.953   1.450  0.2236 -0.0488  0.0900
27234W        W43708   4.489  13.698  14.985  0.1274 -0.0106 -0.0140
27235W        W43709  15.274   0.928  12.379 -0.1554 -0.2099  0.1332
27236W        W43710   0.692   3.591  14.684 -0.0318  0.0093  0.1673
27237W        W43711  14.723   2.332  12.098 -0.3040  0.0727 -0.0440
27238W        W43712  17.545   3.546   3.445  0.1465  0.2782  0.1436
27239W        W43713   8.799   8.169   2.090  0.1581  0.1553 -0.4378
27240W        W43714   3.233  17.593   3.040 -0.1994 -0.1548 -0.0540
27241W        W43715   3.606   3.453   4.595 -0.0391  0.5620 -0.1598
27242W        W43716  17.820   2.334   3.988 -0.3652  0.0123  0.0885
27243W        W43717   8.092   6.390  14.110  0.1389  0.2882 -0.0130
27244W        W43718   5.462  16.220   5.642  0.1422 -0.4026 -0.1107
27245W        W43719  16.460  15.199   4.111 -0.0262 -0.1935 -0.2012
27246W        W43720   2.308  16.984  15.607  0.0888 -0.0353 -0.0130
27247W        W43721   9.775  13.449  14.532 -0.0223 -0.0538  0.0158
27248W        W43722   1.675  14.623  14.211  0.2423 -0.2198 -0.0576
27249W        W43723   5.049   5.420  13.603 -0.1339  0.2259 -0.2986
27250W        W43724  16.650   8.098  14.180 -0.0705  0.1258  0.0436
27251W        W43725  14.322   9.788   3.060 -0.0528 -0.2239 -0.0393
27252W        W43726  17.472  11.486   4.832 -0.3483  0.3080  0.0441
27253W        W43727   5.016  12.001  11.793 -0.0902 -0.1501  0.1305
27254W        W43728  11.700  11.750   3.009  0.0853  0.2194 -0.1165
27255W        W43729  11.707  13.069  13.353 -0.0749  0.1113  0.0512
27256W        W43730  12.342   2.861  13.190  0.0056  0.0671 -0.1738
27257W        W43731   7.040   3.293   1.431 -0.0046  0.2183 -0.1313
27258W        W43732  11.104   5.684  16.791  0.0005  0.3442  0.1638
27259W        W43733   2.821   2.147  16.855 -0.1403  0.0708 -0.0250
27260W        W43734   7.247  16.262   0.361 -0.0039  0.1925  0.0193
27261W        W43735   5.205   2.773   2.993  0.0405 -0.1344 -0.3978
27262W        W43736   5.847   6.265   0.952 -0.4747  0.1146  0.0043
27263W        W43737   8.976   5.841  14.817 -0.0874  0.3228 -0.1703
27264W        W43738   6.707   8.288   1.256 -0.1729  0.0167  0.2303
27265W        W43739   9.875   1.725  15.682  0.1380  0.2546  0.0337
27266W        W43740  11.782   9.815  14.419  0.0553  0.2358  0.0973
27267W        W43741   6.981   0.663   3.704 -0.1707  0.3431  0.0870
27268W        W43742   9.047  17.325   4.818 -0.1418 -0.0223 -0.1280
27269W        W43743   7.843  17.223  15.059 -0.5687 -0.1049  0.0394
27270W        W43744   2.906   5.872  15.642 -0.0062  0.0576  0.2643
27271W        W43745   6.550   2.977   3.241  0.3167  0.1942  0.0382
27272W        W43746   7.649   3.068  14.508 -0.0468 -0.0289  0.0339
27273W        W43747   2.423   6.169   4.335  0.1252  0.0691  0.0295
27274W        W43748  16.504   6.167  16.475  0.0945 -0.0811 -0.0084
27275W        W43749   0.186  11.772   4.617  0.1953  0.0298 -0.0894
27276W        W43750   8.362   2.109   1.729  0.0417  0.1641 -0.1297
27277W        W43751   6.743   0.850   1.614  0.1738 -0.0867 -0.0902
27278W        W43752  17.019  11.099  11.435 -0.0693 -0.0509  0.0955
27279W        W43753  13.537   3.941   5.455  0.1257 -0.0791 -0.1253
27280W        W43754   1.643   4.057  15.219  0.1879 -0.1274  0.1625
27281W        W43755   9.679  14.250  14.842  0.1033  0.0408 -0.0023
27282W        W43756   4.750   8.278   4.110 -0.0316 -0.0979 -0.2269
27283W        W43757   9.471   5.349  16.481  0.2009 -0.1014  0.2074
27284W        W43758   6.044   6.119   5.349  0.0469 -0.0553  0.1326
27285W        W43759   6.447  14.644  16.670  0.1107 -0.1512  0.3753
27286W        W43760   7.904  16.674  11.651 -0.1009  0.0375 -0.2470
27287W        W43761   0.305   4.492  12.918 -0.0486  0.1407  0.1462
27288W        W43762  11.162  15.629   2.122  0.2539  0.1364 -0.1926
27289W        W43763   0.409  14.059  13.485  0.2426 -0.1006  0.2459
27290W        W43764   4.610   4.779   1.121 -0.1410  0.3017  0.0589
27291W        W43765   8.608  17.286   5.068 -0.1291  0.2237  0.1512
27292W        W43766  11.819   4.005   3.587  0.0214  0.0380 -0.0681
27293W        W43767   1.660  15.276  15.431  0.1191 -0.0024 -0.1125
27294W        W43768  14.864  12.861  13.877  0.2069  0.1298  0.0763
27295W        W43769   6.663  12.512   2.754 -0.2393  0.0561 -0.3385
27296W        W43770  14.648   2.971   4.047 -0.0072 -0.0664  0.4076
27297W        W43771  13.000  13.026  14.201  0.1987  0.2731  0.1521
27298W        W43772   7.474  16.794  12.055 -0.2951  0.3849  0.2166
27299W        W43773   1.409   0.901   1.165  0.0682 -0.0564  0.1124
27300W        W43774   9.595  16.506  16.070  0.2094  0.1046  0.1929
27301W        W43775   8.430   3.215  16.628 -0.1305 -0.1312 -0.2051
27302W        W43776   6.419  14.973   2.819 -0.1407  0.1707  0.0792
27303W        W43777   2.984   3.243  13.702 -0.0204  0.0910  0.2060
27304W        W43778  11.477  10.237  15.248  0.1712  0.0115  0.0455
27305W        W43779  10.578   3.436   3.635 -0.0236  0.0238  0.2163
27306W        W43780  13.997  13.373  16.919  0.1833  0.2681 -0.1822
27307W        W43781   8.300   9.477  13.341 -0.0880 -0.1750  0.2150
27308W        W43782  17.719  14.668  11.413  0.0355  0.2650  0.0163
27309W        W43783   6.695  17.130  14.121  0.2602 -0.0488 -0.3888
27310W        W43784   5.922  16.411  16.263 -0.0570  0.1093  0.0654
27311W        W43785   8.310  17.004  15.095 -0.0064 -0.3546 -0.1188
27312W        W43786   6.983  11.111   0.432 -0.1460 -0.2727  0.2321
27313W        W43787   9.176   8.258  13.400  0.1816  0.2980  0.3536
27314W        W43788  10.674   3.153  12.077 -0.0259  0.0915  0.0262
27315W        W43789   2.484   1.258   2.115 -0.1778 -0.2834  0.1457
27316W        W43790   0.864   8.659  14.099  0.0201  0.3488  0.0291
27317W        W43791  17.378   8.433   4.016 -0.0990 -0.2961  0.0280
27318W        W43792   7.349  14.308  11.878 -0.1415 -0.0654 -0.1767
27319W        W43793   9.798   8.522   0.324  0.2216 -0.1215 -0.2702
27320W        W43794   0.842  13.250   0.511 -0.2201  0.1442 -0.1632
27321W        W43795   3.456  17.511  14.951  0.0664  0.2372 -0.0113
27322W        W43796  14.935   3.611   0.660  0.1718  0.1428  0.2282
27323W        W43797  11.181   7.801  10.731  0.1888 -0.3786  0.0442
27324W        W43798  15.677   7.433  16.861 -0.2149  0.1129 -0.1980
27325W        W43799   9.576  14.409   2.611 -0.2963  0.0411 -0.1102
27326W        W43800  17.257   6.121   0.416  0.0329 -0.0059  0.0414
27327W        W43801  16.700  10.302  11.749 -0.0184 -0.0738 -0.3262
27328W        W43802  12.408  15.980   1.024  0.1505 -0.3176  0.1619
27329W        W43803   3.657   2.284  15.797 -0.1119 -0.0779  0.0289
27330W        W43804   3.367   0.069  13.735  0.2117 -0.1886 -0.0190
27331W        W43805   3.478   1.047  14.777  0.0698  0.0964  0.0563
27332W        W43806  14.354  16.052   2.322  0.1266 -0.1429  0.2351
27333W        W43807   9.384   1.889   3.574 -0.0624  0.2295 -0.1744
27334W        W43808   9.550   1.468   2.642 -0.1274  0.2854  0.3805
27335W        W43809  17.035   8.487  12.569  0.2424 -0.1012 -0.1292
27336W        W43810   3.938  12.083  14.445 -0.1970  0.1334  0.0139
27337W        W43811   8.897   5.254   3.014 -0.1132 -0.0232 -0.0440
27338W        W43812   5.319   4.215   2.391  0.1472  0.3359 -0.2143
27339W        W43813   2.224   5.016   1.799 -0.1352  0.0083  0.4564
27340W        W43814  10.611  13.678   2.742  0.2147  0.1562 -0.0148
27341W        W43815   0.031  11.428  16.188 -0.2648  0.1343  0.0447
27342W        W43816   0.747  10.513  14.951 -0.1454  0.3167 -0.0493
27343W        W43817  13.367  15.276  13.462  0.0730 -0.0562  0.3126
27344W        W43818   6.182   5.856   4.930  0.0462  0.1650 -0.4383
27345W        W43819  13.226  13.830  15.724  0.4312  0.1459  0.0020
27346W        W43820   6.149  13.514  16.666 -0.1258  0.0943 -0.3941
27347W        W43821   5.265   4.966  13.541  0.3657  0.0407  0.0343
27348W        W43822   0.505  12.075   2.178 -0.1374 -0.4150  0.1644
27349W        W43823   9.856  14.382   2.164  0.0565  0.1419 -0.3130
27350W        W43824  12.680  16.013  15.729  0.0466  0.1529 -0.2007
27351W        W43825  11.900  14.725  13.269 -0.2192 -0.1492 -0.1766
27352W        W43826   9.552   5.022   6.163  0.2666  0.0891 -0.0643
27353W        W43827   1.252  16.167   1.744 -0.0663  0.3576 -0.1300
27354W        W43828  16.072  16.441  14.971 -0.2414  0.2441  0.2705
27355W        W43829  10.835  16.944   1.477 -0.2268 -0.2124  0.1366
27356W        W43830   7.532  13.546  13.914  0.0119 -0.3700  0.4227
27357W        W43831  11.069   2.034  14.039  0.1896  0.0773  0.1017
27358W        W43832   0.356   5.646  16.106 -0.0779  0.1575  0.2498
27359W        W43833   7.416  14.856   1.653  0.1201  0.0123 -0.3178
27360W        W43834  10.819   4.827  14.840  0.0965  0.3185  0.0979
27361W        W43835   5.183   1.637  16.399 -0.0131 -0.0424 -0.2354
27362W        W43836  16.906  14.294  16.883  0.0829 -0.0137  0.1473
27363W        W43837   2.503  16.993   2.715 -0.1979  0.1601  0.2418
27364W        W43838   2.778  13.480  12.718 -0.1901  0.1821  0.0681
27365W        W43839  17.040   5.880  15.208 -0.0240  0.0276  0.2677
27366W        W43840   1.377   7.977  12.752 -0.2424  0.2260  0.0902
27367W        W43841  14.490  16.602   3.427  0.0161  0.3454 -0.1093
27368W        W43842   4.334  14.175  12.209 -0.1846 -0.2362 -0.0950
27369W        W43843  12.118   5.569   0.195  0.2171 -0.0340  0.0100
27370W        W43844  13.054  15.466   5.074 -0.0231  0.0515  0.0468
27371W        W43845  13.878  11.880   1.140 -0.1046  0.0967 -0.0010
27372W        W43846  14.337  13.539   4.621 -0.4324 -0.3793 -0.2996
27373W        W43847  17.430  13.422   1.257 -0.0471 -0.0510  0.0253
27374W        W43848   9.634  15.355  16.556 -0.2329 -0.1349 -0.3908
27375W        W43849   2.415  10.797   4.906  0.1087  0.2564 -0.0306
27376W        W43850   7.490  14.149   2.153  0.1613 -0.0004 -0.0027
27377W        W43851  16.978   3.889   5.470  0.2222 -0.0367  0.2185
27378W        W43852  12.136  11.883   1.738  0.0817 -0.0706 -0.0357
27379W        W43853   9.691  10.607  16.354 -0.0855 -0.3757 -0.0608
27380W        W43854  10.530  12.263   2.425 -0.0780  0.0209  0.0283
27381W        W43855   5.510  13.566  15.922 -0.1467  0.2182 -0.1506
27382W        W43856  14.134   5.212   4.891  0.0042  0.0011  0.0667
27383W        W43857  12.036  14.059   1.373 -0.2203 -0.2832  0.2420
27384W        W43858   2.405   7.589  16.169  0.0775 -0.2300  0.1828
27385W        W43859   3.730   1.639   1.761 -0.1665 -0.0948  0.3166
27386W        W43860   2.749   5.752   5.647  0.1598  0.0077  0.1858
27387W        W43861  16.332   0.884  13.298  0.0133  0.0440  0.0833
27388W        W43862  15.414  12.652  16.713 -0.2782 -0.0697 -0.1772
27389W        W43863   9.877   4.685   5.968  0.0010 -0.0462 -0.0522
27390W        W43864  13.681   0.340   5.168  0.1697  0.0064 -0.0133
27391W        W43865   4.025  11.314   3.897 -0.2545 -0.1573  0.3664
27392W        W43866   1.014   5.962   3.936  0.0451  0.1102 -0.3543
27393W        W43867  13.112  14.891   5.542  0.0187  0.5147  0.1950
27394W        W43868  12.585  15.498   5.862 -0.4044 -0.1161  0.2418
27395W        W43869  15.081  17.389   4.548 -0.3176  0.0786  0.3883
27396W        W43870   8.468  11.696   2.761 -0.0176 -0.1201 -0.1163
27397W        W43871   7.824  11.601   4.689 -0.0178  0.1431  0.0016
27398W        W43872   9.277   5.474  14.568 -0.0374  0.0436 -0.0118
27399W        W43873   4.279   0.870  11.654 -0.0418 -0.1003 -0.1160
27400W        W43874   9.102   6.609  12.143 -0.1847  0.3863  0.1834
27401W        W43875   4.744  11.448   2.319  0.2551  0.1647 -0.0986
27402W        W43876   4.073   3.800  13.927 -0.1106 -0.1066 -0.1697
27403W        W43877   4.518   1.315  12.727 -0.1025 -0.2463 -0.0930
27404W        W43878  13.196  13.551  14.881  0.1611  0.1226  0.1699
27405W        W43879   8.224  11.385  15.775  0.1520 -0.0316  0.1359
27406W        W43880  11.352   6.814  14.886  0.1460 -0.2772  0.2428
27407W        W43881   9.595   3.873   3.589 -0.0469 -0.2654 -0.1307
27408W        W43882  10.978  15.151  14.772  0.0406  0.1300  0.3907
27409W        W43883   7.455   6.022   3.602 -0.2266  0.4166  0.0154
27410W        W43884  15.119   1.875   5.295  0.0039 -0.1519  0.2116
27411W        W43885   6.431   7.926   5.420  0.1113  0.4496 -0.0075
27412W        W43886   3.229   9.213   3.550 -0.0681  0.2451  0.1255
27413W        W43887   3.213   7.317   5.248  0.2163 -0.1067  0.1761
27414W        W43888  10.888   8.403   1.571 -0.1424 -0.4918 -0.0661
27415W        W43889   6.785   6.402   0.953  0.1381  0.0079  0.1429
27416W        W43890  13.578  16.301   5.441  0.0913 -0.0076  0.1348
27417W        W43891  13.130  14.837   2.126 -0.1890 -0.1762 -0.1964
27418W        W43892  10.765  15.676  11.732 -0.1696  0.0979 -0.0922
27419W        W43893  17.653   1.144  14.115  0.1853 -0.2740  0.0709
27420W        W43894   4.197   4.143   0.953 -0.1869 -0.0883 -0.0017
27421W        W43895   7.932   0.449  15.234  0.3078 -0.0218 -0.0514
27422W        W43896   1.035  15.018  12.601  0.2877  0.0367  0.2044
27423W        W43897  12.847   3.807  14.928  0.1833  0.3496 -0.0120
27424W        W43898   3.882   2.910   3.514  0.4854 -0.4498  0.2976
27425W        W43899   0.823  11.726   3.460  0.0814 -0.3884  0.1155
27426W        W43900   8.289   2.599   2.004 -0.0463 -0.1610  0.1044
27427W        W43901   6.674   5.995   5.026 -0.0341  0.1323 -0.0919
27428W        W43902  14.173   9.844   1.364  0.3078  0.0276 -0.3203
27429W        W43903  13.554   9.920  13.178 -0.0175 -0.0512 -0.0138
27430W        W43904  15.785  17.420   5.362 -0.0306 -0.0161  0.3693
27431W        W43905   3.628  13.449   5.105 -0.5866  0.1179 -0.3742
27432W        W43906  16.471   5.782   3.445 -0.2356 -0.0858 -0.0753
27433W        W43907   6.580   9.321  13.679 -0.0047  0.0082 -0.2649
27434W        W43908  13.810   9.878   5.435 -0.0591 -0.1291 -0.1757
27435W        W43909   4.845   5.864   0.925  0.0497  0.0925  0.1415
27436W        W43910   4.743  12.253   0.389  0.0612 -0.0688  0.0612
27437W        W43911  11.468  17.129   4.023  0.2677  0.2006 -0.0064
27438W        W43912  11.838  16.912   3.716  0.1865  0.1611 -0.0650
27439W        W43913   0.116  14.196   1.169  0.2767  0.2233 -0.3473
27440W        W43914  11.505  13.042   1.296  0.2292 -0.0114 -0.2245
27441W        W43915  13.312  12.720   0.212  0.3208 -0.2907 -0.1477
27442W        W43916  17.216   3.717   3.738  0.1755  0.0940 -0.0956
27443W        W43917   8.516  12.569  16.115  0.3382  0.0699  0.1508
27444W        W43918  14.868   0.151   2.732  0.0499 -0.0153  0.1847
27445W        W43919   7.496   0.472   3.845  0.3115  0.2247 -0.1238
27446W        W43920   1.805   0.679  14.139  0.2009 -0.0627 -0.2233
27447W        W43921   6.687   0.895   4.237  0.0062  0.0991  0.1073
27448W        W43922  10.358   3.549   5.734  0.0508 -0.2219 -0.0160
27449W        W43923  11.833  13.729  14.100 -0.0454  0.2637 -0.0503
27450W        W43924   7.497   2.737  16.682 -0.0996 -0.1477  0.1043
27451W        W43925  14.081   7.021  15.878  0.0927  0.3467  0.2045
27452W        W43926  17.573   6.615   4.717  0.0691  0.1094  0.1717
27453W        W43927   8.520  16.282  13.689 -0.0295  0.0192 -0.1599
27454W        W43928   7.029   5.181   2.854 -0.1271 -0.1031 -0.0919
27455W        W43929  14.294   0.778   0.297  0.1299 -0.1989 -0.1467
27456W        W43930   2.561  14.554   1.690  0.0796  0.0389  0.1809
27457W        W43931   3.948   4.880  16.831  0.0754 -0.1213  0.1575
27458W        W43932   9.478  17.418   1.285  0.0344  0.0313 -0.0933
27459W        W43933  11.154   7.339  12.622 -0.1842 -0.0915 -0.1908
27460W        W43934  11.374   7.114  13.089  0.0393 -0.1225  0.2238
27461W        W43935  13.786   8.279  12.125 -0.1603 -0.0062  0.3703
27462W        W43936  12.064   5.001  16.574  0.1701 -0.1193  0.1217
27463W        W43937   6.489  17.733   1.598 -0.0103 -0.0280 -0.1506
27464W        W43938   6.289  12.864   3.405  0.4016  0.1466 -0.0841
27465W        W43939   1.300  13.791   3.755 -0.2306  0.1428  0.0747
27466W        W43940  13.810  16.702   5.393 -0.2458 -0.0487  0.2919
27467W        W43941  10.721  16.172  11.784 -0.2481 -0.1542 -0.0582
27468W        W43942   5.916  12.327  11.427  0.1804 -0.2250 -0.1220
27469W        W43943  14.732   8.368   2.272  0.1904  0.0054  0.2106
27470W        W43944  11.607   5.883   4.104 -0.0469  0.0224 -0.0021
27471W        W43945   4.737  13.308   4.900 -0.3276  0.2467 -0.0218
27472W        W43946  13.181  17.363  14.766 -0.0642  0.0940 -0.0101
27473W        W43947   0.508  16.549   1.361 -0.0190 -0.0467  0.0992
27474W        W43948   9.696   2.176   5.811  0.2326  0.2155 -0.1086
27475W        W43949   9.698   7.335   0.410 -0.1363  0.1384 -0.2501
27476W        W43950  16.912  10.980   3.206  0.0060  0.1170 -0.5122
27477W        W43951   4.358   5.605   5.114  0.0272 -0.1415 -0.1607
27478W        W43952  10.411  14.872  14.432 -0.0904 -0.1254  0.1175
27479W        W43953   2.239  10.072   1.759  0.2343  0.1543 -0.0974
27480W        W43954  10.879  16.918  16.874  0.3196  0.1914  0.0916
27481W        W43955   5.800   6.821  16.707 -0.1174 -0.1788  0.0032
27482W        W43956  10.805   8.365  14.252 -0.1543 -0.1323  0.1588
27483W        W43957   1.822  16.552  13.319 -0.1834 -0.1858  0.1041
27484W        W43958   9.143  14.695   1.491  0.0025 -0.0659 -0.1078
27485W        W43959   8.000   7.246  14.222  0.1289  0.2228 -0.0518
27486W        W43960   0.901  14.212   1.868  0.0238  0.1663  0.0649
27487W        W43961   7.997  16.629  12.765  0.0772 -0.2377 -0.1905
27488W        W43962   0.812  15.672   4.462  0.0157 -0.0588 -0.0190
27489W        W43963   7.837  11.863   4.103 -0.2220  0.1079  0.3719
27490W        W43964   8.971  12.497   3.708 -0.2603  0.3732 -0.1839
27491W        W43965   1.095  14.769  16.031  0.1825 -0.0074  0.2297
27492W        W43966  11.525   3.516   2.490 -0.2570 -0.3240 -0.0181
27493W        W43967   2.069   4.151  15.479  0.0143 -0.1034  0.1423
27494W        W43968   2.591  13.580   3.635  0.0109  0.1854 -0.0998
27495W        W43969   7.872   5.584   5.332  0.0977  0.1138 -0.0855
27496W        W43970  13.840   5.491   4.538  0.0474 -0.0991 -0.0818
27497W        W43971   3.343  15.521   1.583 -0.1955 -0.3162  0.1562
27498W        W43972  17.303   2.241  12.103 -0.1317  0.0017 -0.0922
27499W        W43973   1.120  10.183  15.970 -0.1666 -0.1895 -0.0258
27500W        W43974   6.702   9.337   0.321  0.0138  0.1736  0.0709
27501W        W43975  15.089  14.526  16.152  0.0510 -0.1036  0.1062
27502W        W43976   6.778   2.446  13.324 -0.0829  0.3811  0.2298
27503W        W43977  14.948   1.229  15.499 -0.0042  0.3274 -0.2978
27504W        W43978   5.773  16.497  11.587 -0.1070 -0.2340 -0.3874
27505W        W43979  15.781   0.402  15.561 -0.1167 -0.0701  0.0626
27506W        W43980  10.932  17.060  13.529  0.3058  0.0419  0.2652
27507W        W43981   2.577  13.028   2.752  0.3897  0.0683 -0.0261
27508W        W43982   6.531  16.230   4.864 -0.2365 -0.1865  0.2597
27509W        W43983   1.434  11.534   2.025  0.2854 -0.0143  0.1613
27510W        W43984  17.668   1.904  13.686 -0.0579  0.0937  0.0651
27511W        W43985   6.232   3.702   2.316  0.0919 -0.0878 -0.1281
27512W        W43986   7.904   2.857   2.321 -0.2086 -0.0515  0.1594
27513W        W43987  10.259   8.163   4.106  0.0168  0.1833 -0.0570
27514W        W43988   4.018  12.126  10.821 -0.0767  0.0511 -0.0030
27515W        W43989  14.962  15.433   6.042 -0.0227  0.1015  0.0163
27516W        W43990   1.141   1.112  16.281 -0.0811  0.0811 -0.3611
27517W        W43991   4.676  15.779  15.062 -0.2599 -0.1643  0.3681
27518W        W43992  12.475  10.572  12.653 -0.0443  0.0767 -0.3144
27519W        W43993   7.643   5.173  13.481  0.1032 -0.2185 -0.2138
27520W        W43994  11.098  10.434   1.131  0.1532 -0.0765  0.0047
27521W        W43995   7.152  12.477  16.032 -0.2561  0.0171 -0.0905
27522W        W43996  15.338  12.298   0.700 -0.0034 -0.0546 -0.0789
27523W        W43997  17.426  16.863  14.753 -0.2609 -0.0779 -0.2355
27524W        W43998   0.943  11.310  16.788 -0.0383 -0.1079 -0.1200
27525W        W43999   6.647   4.502  15.885 -0.0221  0.0127 -0.0523
27526W        W44000   7.511  13.464  13.413 -0.0670  0.2518 -0.2491
27527W        W44001  12.466   8.127   0.158  0.0465 -0.2791  0.2145
27528W        W44002  16.967   9.507   0.534 -0.2900 -0.0137  0.0369
27529W        W44003  17.041   1.354  14.701  0.1097 -0.0302 -0.3450
27530W        W44004   3.614  16.466   0.611  0.0672  0.0681 -0.1207
27531W        W44005   9.652   1.762  16.929  0.1871  0.2842  0.1162
27532W        W44006   2.717  17.544  14.688  0.2877 -0.0599 -0.0584
27533W        W44007  12.011  17.299   1.133  0.2760  0.0502  0.2136
27534W        W44008   3.600   8.066  15.844 -0.0398  0.1539 -0.3418
27535W        W44009  15.290  11.909   4.004  0.1077 -0.2332  0.1242
27536W        W44010   6.836   9.097  11.871 -0.2165  0.0157  0.0233
27537W        W44011  16.858   3.935  16.110 -0.0477  0.4770  0.0006
27538W        W44012   9.419  15.682  12.688  0.1885  0.2862 -0.1175
27539W        W44013   9.896   0.964  12.413 -0.1436  0.1084  0.1787
27540W        W44014  15.845   0.013  14.774  0.4115 -0.1307 -0.1261
27541W        W44015  10.970  11.121   4.620  0.1877  0.1264 -0.2322
27542W        W44016  12.281  15.732   5.490  0.1826  0.0537  0.0501
27543W        W44017  16.494   9.963   3.203 -0.2272  0.0904  0.1720
27544W        W44018   8.074  11.076  11.221 -0.3162 -0.1658  0.3671
27545W        W44019  14.223  17.479   0.861 -0.1952 -0.1191 -0.0192
27546W        W44020   8.532  12.620  15.274 -0.3335  0.1619 -0.0985
27547W        W44021  17.750  13.901   3.328  0.1857 -0.0411  0.0410
27548W        W44022   6.469  10.313  12.334 -0.1330 -0.1766  0.0670
27549W        W44023   0.484   1.164  15.167  0.1000  0.0304  0.1030
27550W        W44024  12.125  10.286   6.053 -0.3851  0.1993  0.0355
27551W        W44025   5.071   1.409   5.310  0.2124 -0.0177  0.0171
27552W        W44026   6.949  11.592   0.635  0.0620 -0.3542  0.2664
27553W        W44027  16.973   5.035   1.172 -0.0495  0.0254  0.4952
27554W        W44028  15.294   5.487   2.483  0.2327 -0.3029 -0.2572
27555W        W44029  12.519   4.970  13.413 -0.2182  0.0054  0.0970
27556W        W44030   6.304   9.171  14.051  0.0213  0.3597  0.0989
27557W        W44031   1.851   5.322   4.251 -0.0450  0.0390 -0.2485
27558W        W44032  11.503   3.407   5.581 -0.1071 -0.2739  0.1458
27559W        W44033   5.257  17.622  16.528  0.1582  0.1764 -0.1717
27560W        W44034   9.020   0.387   0.023  0.0016 -0.1107  0.1377
27561W        W44035  11.961   7.723  12.810  0.0873  0.1117 -0.1706
27562W        W44036  11.014  10.215  14.418  0.0429 -0.0156 -0.0312
27563W        W44037  13.826   2.832   3.736 -0.3121  0.0811  0.1211
27564W        W44038  12.179  11.842   5.831  0.1399 -0.1807 -0.1173
27565W        W44039  16.530  14.011   5.000 -0.0187 -0.1120 -0.2365
27566W        W44040   9.913   5.674  16.387  0.0816  0.2272  0.1703
27567W        W44041  14.378  11.648   4.905 -0.0233 -0.0674 -0.5255
27568W        W44042  10.332   6.721  13.051  0.0883  0.0290 -0.0987
27569W        W44043  11.170   9.736   1.701 -0.0906 -0.0206  0.0055
27570W        W44044   0.089   1.710   3.339 -0.0179  0.2074 -0.0343
27571W        W44045  17.544  14.258   5.052 -0.0228  0.2463 -0.3157
27572W        W44046  14.839  16.151   1.064  0.0348  0.1761 -0.1720
27573W        W44047   1.007   9.162   2.655  0.0862 -0.0695 -0.1131
27574W        W44048   7.889  14.878  11.604 -0.0872  0.2821  0.0460
27575W        W44049  17.095  12.249   0.062  0.2052  0.0089  0.1944
27576W        W44050   3.528   3.403  11.785  0.2231 -0.2196 -0.0379
27577W        W44051  10.156  10.983  15.775 -0.0759  0.3328 -0.0867
27578W        W44052  12.965  11.808  13.783 -0.0125 -0.0121 -0.1227
27579W        W44053   7.405   5.853   0.125  0.2095 -0.1815 -0.1231
27580W        W44054   0.451  11.348   3.366  0.0683  0.4828  0.3328
27581W        W44055   8.795   7.177   4.327 -0.0289  0.3545  0.1025
27582W        W44056   8.791   1.329  16.483  0.1083  0.1138 -0.0737
27583W        W44057  13.919   4.808  16.605  0.3080  0.3036  0.2832
27584W        W44058   3.485  16.573   4.643 -0.2387 -0.1582 -0.0667
27585W        W44059  12.394   8.785  12.690 -0.0729 -0.0173 -0.0832
27586W        W44060   1.768   9.782   2.012  0.1269  0.0802 -0.3113
27587W        W44061  10.469   8.965  15.147 -0.1108  0.1712  0.1085
27588W        W44062   0.084   2.534   1.977  0.0445 -0.3572  0.1551
27589W        W44063   7.743  17.258   1.788 -0.1040  0.0613 -0.0043
27590W        W44064  17.055   6.486   6.227  0.1064 -0.0334 -0.0439
27591W        W44065   2.340   2.717  15.151  0.2276 -0.0146  0.0091
27592W        W44066  11.341   3.789   3.665 -0.2313 -0.0017 -0.0704
27593W        W44067   0.975   1.061  15.163  0.3368 -0.2154 -0.0029
27594W        W44068   9.990   1.028  14.946 -0.0438  0.0933 -0.0614
27595W        W44069  16.593  17.395   3.051 -0.2160 -0.1794  0.0339
27596W        W44070  12.257   0.212   6.012 -0.1243  0.1528  0.0825
27597W        W44071   4.854  12.447   0.863  0.1309  0.1432  0.2080
27598W        W44072   7.345   4.375   1.428 -0.1275  0.3702  0.1271
27599W        W44073   7.048   5.683  16.758  0.0963 -0.1050 -0.1185
27600W        W44074  17.219  10.089   1.677  0.2521  0.1147  0.0368
27601W        W44075  14.674  13.704   4.252  0.0477  0.0507  0.0660
27602W        W44076  10.579  17.467   4.887  0.4095 -0.0744 -0.3556
27603W        W44077   9.688  12.792  13.379  0.0420  0.2363  0.5455
27604W        W44078   0.497   5.951   5.855  0.1794 -0.1641  0.0702
27605W        W44079  17.267  16.133  16.528  0.1274 -0.0320  0.1644
27606W        W44080  12.939  17.054   5.495  0.1396  0.1551 -0.2550
27607W        W44081  11.324  16.706   2.701 -0.0698 -0.1679  0.0227
27608W        W44082   4.730  11.547   1.320  0.2097 -0.1506  0.0972
27609W        W44083   3.906   8.622  11.378  0.0244  0.0523 -0.0118
27610W        W44084   7.738  17.239  14.326 -0.2230 -0.1404 -0.0184
27611W        W44085   1.397  17.803  12.382  0.0346 -0.0150  0.0670
27612W        W44086  16.354  16.542   4.898 -0.1521 -0.0164 -0.0679
27613W        W44087   7.247   9.406  12.810  0.0290 -0.0667 -0.0971
27614W        W44088   1.637   3.361  12.812  0.0824  0.1649 -0.3089
27615W        W44089   3.430  10.673   4.845 -0.0373  0.0540 -0.2420
27616W        W44090   7.435   4.903   2.469 -0.2765 -0.1938  0.0153
27617W        W44091  11.972  10.167  11.951 -0.0001 -0.0579  0.0433
27618W        W44092   7.736   9.798   3.435 -0.2373  0.2313  0.3775
27619W        W44093  14.795  14.115  16.250  0.0964  0.1959  0.4225
27620W        W44094   6.328  14.683   3.323 -0.0926 -0.2419 -0.3266
27621W        W44095  11.108   4.124  13.437 -0.2839  0.2297  0.0100
27622W        W44096   3.932  13.086   4.334  0.1498 -0.1503  0.1250
27623W        W44097  16.185  14.052  12.585  0.0456  0.1143 -0.1705
27624W        W44098  17.056   5.934   2.922  0.0595  0.3192 -0.0219
27625W        W44099   9.244  12.287  14.593 -0.1924  0.0875 -0.1093
27626W        W44100   5.383  13.296   3.376 -0.1447 -0.1205 -0.0364
27627W        W44101  17.500  13.126   4.515 -0.0113 -0.0888 -0.0457
27628W        W44102   0.266  13.804  16.218 -0.1421 -0.1878  0.1469
27629W        W44103   3.899  12.385  15.384  0.0038  0.2443 -0.0331
27630W        W44104  12.241  16.693   1.537 -0.2946  0.2598  0.0525
27631W        W44105   0.280   8.061   0.158  0.0666 -0.0200 -0.1219
27632W        W44106  12.271   0.731  13.252  0.1576  0.1165 -0.1141
27633W        W44107  15.697   4.696   2.513 -0.0669  0.2623  0.0670
27634W        W44108   9.522   1.896   5.384  0.4412 -0.0013 -0.1082
27635W        W44109   4.823  14.198   5.106 -0.2289  0.2127 -0.2309
27636W        W44110   5.628  14.145   2.814 -0.0633 -0.0296 -0.1100
27637W        W44111   2.097  13.251   2.832 -0.1833  0.0568  0.0265
27638W        W44112   2.825   7.615  15.312 -0.2712  0.1439 -0.0264
27639W        W44113  11.227   2.708  13.987 -0.0019 -0.3311  0.0959
27640W        W44114   5.846   1.093   6.607  0.0207  0.3267 -0.1112
27641W        W44115  11.975   4.553  16.922 -0.0375  0.0587  0.0601
27642W        W44116   4.590  10.710  16.069 -0.0538 -0.3023  0.1333
27643W        W44117   1.482   8.223   4.580  0.3183 -0.0459  0.1550
27644W        W44118   4.943  17.125   1.608  0.2378  0.1034  0.1037
27645W        W44119  10.481  10.370  13.658  0.0449 -0.1639  0.2347
27646W        W44120   6.038   6.652   2.717  0.0142 -0.0480 -0.0322
27647W        W44121   4.789   5.762   5.429  0.4499  0.2104 -0.2612
27648W        W44122  16.576   5.939   2.021 -0.1358 -0.3249 -0.1226
27649W        W44123   6.969   9.135  16.364  0.2491 -0.0216 -0.1867
27650W        W44124   0.021  16.025   3.705  0.0608 -0.2734  0.0246
27651W        W44125  10.550   8.991  13.969  0.1797  0.0998  0.0860
27652W        W44126   8.220   9.840  12.476  0.3365 -0.1097 -0.0597
27653W        W44127   1.046   1.188  15.780  0.0036 -0.2671 -0.1182
27654W        W44128  11.674   6.592   5.295  0.0055  0.2582  0.1287
27655W        W44129  10.662  15.533  16.886 -0.1641 -0.2954  0.0917
27656W        W44130   8.418  16.023  15.230 -0.1018 -0.0656  0.0277
27657W        W44131  12.635  13.578   3.139 -0.3219  0.1385  0.0882
27658W        W44132   4.550  16.608  16.877  0.1572 -0.0425  0.0551
27659W        W44133   8.933   8.631   2.146 -0.2200 -0.2509 -0.0760
27660W        W44134  15.262  14.490   1.537  0.2170  0.3746 -0.0247
27661W        W44135   6.869   5.486   4.523 -0.1179 -0.1077  0.0525
27662W        W44136   3.375  16.419   3.819  0.2155  0.0353 -0.0057
27663W        W44137  16.015  14.256  12.169 -0.0097 -0.2379  0.1809
27664W        W44138  11.090  13.458   3.963  0.0689 -0.2167 -0.2018
27665W        W44139   1.146  13.389  11.770 -0.0235 -0.0582 -0.0099
27666W        W44140   4.884  13.221  13.650  0.2135 -0.1736  0.1055
27667W        W44141   1.987   8.942  16.877 -0.2122 -0.1300  0.1248
27668W        W44142   3.634  10.420   1.744  0.3033 -0.0763 -0.2509
27669W        W44143  15.857   6.730   4.038  0.2296 -0.1823 -0.2582
27670W        W44144   5.918  11.688  16.778 -0.2592  0.3122 -0.0544
27671W        W44145   7.086   1.117  16.166 -0.2647 -0.1471 -0.1567
27672W        W44146  16.589   6.457   4.678  0.5200 -0.1612 -0.1024
27673W        W44147  15.851   0.092  16.273 -0.0104 -0.4605 -0.0098
27674W        W44148  17.173   7.732   5.600 -0.4795 -0.3221  0.0776
27675W        W44149  15.878   4.203   2.433 -0.0902  0.0663  0.2267
27676W        W44150  11.290   3.190   0.938  0.0697 -0.0427  0.1243
27677W        W44151   8.633  14.235   0.575  0.0107  0.1107 -0.3652
27678W        W44152  16.556   0.108   3.226 -0.0497  0.0741  0.0381
27679W        W44153   3.251   5.799   0.065 -0.0442 -0.0956 -0.1113
27680W        W44154  17.496   5.151   6.096 -0.0928 -0.3325  0.3006
27681W        W44155  15.258  15.922   2.809  0.1047  0.2881 -0.2607
27682W        W44156  15.383   5.612  15.990 -0.2499  0.3168 -0.0655
27683W        W44157   0.857  17.741   0.416  0.0986 -0.0464 -0.2079
27684W        W44158   0.761   6.162   2.428  0.1417  0.0211  0.1230
27685W        W44159   8.220  10.436   5.184 -0.3113 -0.0526 -0.0899
27686W        W44160   1.426   6.721  16.389  0.0387 -0.0090  0.1925
27687W        W44161   7.895   1.927   4.228  0.3004 -0.1144 -0.2083
27688W        W44162  13.732   5.190  13.088  0.0249  0.0217 -0.2390
27689W        W44163   2.158  14.733   1.455 -0.0274  0.0855 -0.0882
27690W        W44164  17.068   9.758   3.188  0.2745  0.0444 -0.1961
27691W        W44165  12.676   6.456   5.161  0.0092 -0.1118  0.1001
27692W        W44166   8.917   5.458   3.662  0.0678 -0.0914 -0.0271
27693W        W44167  16.486   2.215  13.291 -0.0784 -0.0676 -0.2476
27694W        W44168  15.072  13.924   4.945 -0.3070  0.0020  0.2109
27695W        W44169   9.523   0.130  11.692  0.0197 -0.2724  0.1437
27696W        W44170  12.563   4.592  11.915  0.3073 -0.2046 -0.2291
27697W        W44171   8.158  12.442   3.406 -0.1939  0.2515 -0.0546
27698W        W44172   3.409  12.849   5.956 -0.1248  0.1248  0.1864
27699W        W44173   9.255  14.985  11.901 -0.0725 -0.0190  0.0665
27700W        W44174   9.667   5.581  14.054 -0.0165 -0.0494 -0.0735
27701W        W44175   1.648   8.313   3.488  0.1049 -0.1549  0.1256
27702W        W44176  10.568  13.753   2.237  0.0718 -0.1443 -0.0316
27703W        W44177   9.444  15.723  15.092  0.0603 -0.0873  0.2031
27704W        W44178   6.230  16.680   1.899  0.0218  0.2624  0.1140
27705W        W44179   0.958  16.436  15.465  0.4109 -0.0458  0.0062
27706W        W44180  14.023   0.535   1.456  0.0172  0.0933  0.2240
27707W        W44181  15.548  13.670  15.197 -0.0920 -0.1309  0.1596
27708W        W44182   0.596  16.963   0.632 -0.2515  0.2060  0.2536
27709W        W44183  10.787  13.066  15.054  0.0081 -0.0309  0.0946
27710W        W44184  13.599   2.005  14.543  0.2817  0.2336 -0.2412
27711W        W44185  10.839  10.999  15.015  0.1592  0.1385 -0.1931
27712W        W44186   8.830   9.366   5.098  0.0187  0.0184  0.0319
27713W        W44187   5.993   4.317   0.497  0.2231  0.0485  0.0040
27714W        W44188   6.642  11.399  12.185 -0.0961 -0.0212  0.0982
27715W        W44189  14.319   0.587  15.479 -0.1491  0.0569 -0.2078
27716W        W44190   0.513  17.635  15.144  0.1566 -0.1377 -0.1538
27717W        W44191  16.761   0.992  11.155  0.0043 -0.3027 -0.3901
27718W        W44192   7.445  15.761  14.365 -0.3260  0.1778  0.0448
27719W        W44193   0.985   9.015   1.484 -0.5844 -0.2709  0.0546
27720W        W44194  12.472  13.239   4.261  0.1282 -0.0940  0.2492
27721W        W44195  14.361  16.588   4.273  0.3822  0.1689  0.1605
27722W        W44196   8.293   0.032   2.373 -0.0736 -0.0227 -0.0393
27723W        W44197  11.924   6.533   1.084 -0.1854 -0.3202 -0.2807
27724W        W44198   4.362   6.819  14.708  0.1250  0.2321 -0.0501
27725W        W44199  10.353   2.619  13.960 -0.0390  0.0758  0.2647
27726W        W44200  10.303   9.746  14.508 -0.3857 -0.1737 -0.2849
27727W        W44201  14.497  12.496  16.395  0.0558  0.0088  0.2926
27728W        W44202   6.677   9.444  16.746  0.1424 -0.0419  0.0214
27729W        W44203   4.822   7.791   1.878 -0.0451  0.0158 -0.5278
27730W        W44204  14.429  12.830  16.822  0.0773  0.1540  0.0187
27731W        W44205  13.682   5.757  13.224  0.1641 -0.0417  0.0523
27732W        W44206   3.108  15.290   0.625 -0.0680  0.0334 -0.2527
27733W        W44207  10.026  16.565   4.621  0.1481  0.1307 -0.0941
27734W        W44208  16.859   3.102  15.477  0.0850  0.1193  0.0142
27735W        W44209   1.526   2.028  14.240  0.1587  0.3777 -0.4739
27736W        W44210  12.451  17.018  12.381  0.2573 -0.1840 -0.0639
27737W        W44211  10.461  13.073  11.646  0.0137  0.0516  0.1929
27738W        W44212   1.303  16.212   1.035  0.1198 -0.0514 -0.5771
27739W        W44213   5.270   9.411   0.346 -0.2389  0.0122  0.0407
27740W        W44214  14.659   7.941  12.774  0.3543 -0.0228 -0.1029
27741W        W44215  17.675   5.218  13.558  0.2087 -0.1509  0.1752
27742W        W44216  12.370   7.756  16.651 -0.0506 -0.1403  0.0072
27743W        W44217  15.878  16.657   5.599  0.3142  0.2137 -0.0848
27744W        W44218   1.221  13.119   4.423  0.0713 -0.2134 -0.0218
27745W        W44219   4.988  11.995   4.213  0.3542  0.1183 -0.1170
27746W        W44220   8.037   3.156  14.856 -0.1830 -0.1291  0.3022
27747W        W44221  15.608   1.394  14.505 -0.1467 -0.2701 -0.4359
27748W        W44222   4.511  10.412   4.983 -0.0365 -0.1777  0.0889
27749W        W44223   4.378   3.733   0.600  0.3100  0.1000  0.2597
27750W        W44224  15.876  11.575   5.020 -0.1127 -0.0788  0.3633
27751W        W44225  16.156  15.040  16.220  0.1572  0.0810 -0.0244
27752W        W44226   2.755  16.965  16.595 -0.1494  0.1110 -0.1291
27753W        W44227  11.573   8.613  12.048 -0.1326 -0.1436  0.1689
27754W        W44228   1.378   1.929   1.491 -0.0626  0.3260  0.0520
27755W        W44229  15.996   5.424  16.564 -0.3639  0.1857 -0.1056
27756W        W44230   8.850   4.275   1.157  0.3587  0.0460 -0.0028
27757W        W44231   1.469   7.258  14.966 -0.0454 -0.0931 -0.1034
27758W        W44232  17.427   2.313   4.281  0.0965 -0.2877  0.3887
27759W        W44233  13.297   0.745  16.170  0.3107 -0.0804 -0.2424
27760W        W44234  13.670  16.876  15.964  0.1323 -0.0597 -0.1866
27761W        W44235   6.412   5.056   0.958  0.0128 -0.1453  0.4366
27762W        W44236   7.533   9.758   1.326  0.0562 -0.1911 -0.0024
27763W        W44237   9.929   2.144   0.603  0.0550  0.1134  0.3441
27764W        W44238   5.898  16.614   2.682 -0.2374  0.1314 -0.2034
27765W        W44239  13.626  16.159   0.544 -0.0605 -0.1434 -0.0519
27766W        W44240   3.517   9.651   4.107  0.1307  0.0555  0.0404
27767W        W44241  15.358   4.583   4.209  0.2039 -0.0721  0.1604
27768W        W44242   7.981   1.599  13.954 -0.0036  0.0349  0.2721
27769W        W44243   4.738  16.803   3.490  0.2444  0.0735 -0.1856
27770W        W44244   5.435  11.737   1.730 -0.2333 -0.0185  0.0541
27771W        W44245   5.525   3.529  15.629  0.2127  0.1095  0.3554
27772W        W44246  11.520   6.798   1.293 -0.2294 -0.0150 -0.6174
27773W        W44247   7.787   2.359   1.213  0.0003  0.0875  0.0325
27774W        W44248   8.954   2.733   5.563 -0.1474  0.0092  0.0200
27775W        W44249  13.853   0.604  14.447 -0.0236  0.1403  0.1641
27776W        W44250   2.667  17.042   1.172 -0.0710 -0.0225 -0.1085
27777W        W44251   4.651  16.615  13.997  0.0029 -0.2680 -0.3096
27778W        W44252   8.791   6.818   3.414 -0.0395  0.1023 -0.4291
27779W        W44253   1.829   3.614  13.723  0.3601 -0.1604  0.0602
27780W        W44254   1.804   1.783  12.604  0.2533 -0.0893  0.0710
27781W        W44255   0.127  10.472   4.467  0.0534  0.0182  0.0072
27782W        W44256  17.308   5.848   4.728 -0.0987 -0.0634 -0.0465
27783W        W44257   9.276   9.196   0.734  0.1485  0.2077 -0.0301
27784W        W44258  15.436  14.649   5.207  0.1724 -0.3783  0.1708
27785W        W44259  13.247   0.483  13.730 -0.0682  0.0186 -0.0003
27786W        W44260   8.605   1.554   2.233 -0.2111  0.2790  0.0246
27787W        W44261  13.493   4.139   3.262  0.1244  0.3475  0.0748
27788W        W44262   1.065  17.632   2.209 -0.1164  0.1434 -0.1267
27789W        W44263  15.463  10.952  14.628 -0.0252  0.0724 -0.0751
27790W        W44264  17.726  16.990   2.662 -0.1606 -0.0381 -0.1492
27791W        W44265  13.285  14.632   4.030  0.1672 -0.5388 -0.2720
27792W        W44266   6.849   1.773   4.594 -0.1773 -0.2762 -0.1210
27793W        W44267  12.939  11.540  14.315 -0.0833  0.0418  0.0397
27794W        W44268  14.278   6.189  14.027 -0.0082 -0.3814  0.0392
27795W        W44269  10.716   3.766   2.849 -0.1131  0.0972  0.1220
27796W        W44270   6.371   1.013   1.251 -0.0876  0.0857 -0.0035
27797W        W44271  11.807  12.773  14.128 -0.0528 -0.0403 -0.1317
27798W        W44272   9.008   3.490  13.071  0.0392  0.0951 -0.2964
27799W        W44273   3.388  14.802   0.483  0.0284  0.0848  0.2912
27800W        W44274   9.287  14.947  11.387  0.0975  0.0134 -0.0384
27801W        W44275  13.852  10.077   2.894  0.2229  0.0624  0.1200
27802W        W44276  14.608   9.074  15.991  0.1249  0.1678 -0.0844
27803W        W44277  13.700   1.678   3.290  0.0278  0.2030  0.1166
27804W        W44278  17.498   3.904   5.227  0.0685  0.0866 -0.0803
27805W        W44279  16.266  13.803   1.732 -0.4431 -0.1401 -0.0652
27806W        W44280  10.353  13.451  15.732  0.1295 -0.2493  0.3659
27807W        W44281   0.022   2.385  13.720  0.0034 -0.1342  0.2696
27808W        W44282  14.587  13.933   5.310  0.2335 -0.0902 -0.0702
27809W        W44283  15.080   3.554  15.384  0.0691  0.0594 -0.1728
27810W        W44284  13.783  14.552   2.198 -0.0951 -0.3338 -0.1069
27811W        W44285  16.250   4.563  16.598 -0.1158 -0.0623  0.2025
27812W        W44286   4.548  14.608   1.893  0.1474  0.2070  0.0861
27813W        W44287   4.177  16.245  12.639  0.0372  0.0095  0.0986
27814W        W44288  10.906  14.497   3.379 -0.1720  0.0341 -0.0582
27815W        W44289  16.180  10.249   1.549  0.0362  0.0236 -0.0625
27816W        W44290   3.386  16.715  13.915  0.0978  0.0824 -0.1299
27817W        W44291   4.839   6.124   6.441  0.0946  0.2794  0.1743
27818W        W44292   9.352  11.329   0.569 -0.2301 -0.2542  0.0671
27819W        W44293   0.336  11.655  10.978  0.1348 -0.3038 -0.1012
27820W        W44294  12.230   3.037  11.851 -0.4369  0.2537  0.0194
27821W        W44295  12.743   7.749   2.594 -0.1253 -0.3217  0.3810
27822W        W44296  13.809   5.991   3.311  0.1246  0.1497 -0.4818
27823W        W44297   1.080   0.965  12.643 -0.2556 -0.2715 -0.1389
27824W        W44298  12.587  15.317   0.222 -0.0422  0.1693  0.0764
27825W        W44299   4.070   9.414  14.079 -0.0184 -0.1027 -0.1533
27826W        W44300   4.484   5.468  11.732 -0.1357  0.2219  0.2127
27827W        W44301  12.904   2.136  16.013 -0.0177  0.2378 -0.1868
27828W        W44302   3.985   2.368  13.091  0.0610 -0.2414 -0.0300
27829W        W44303   7.541  11.467   1.948  0.1423 -0.0602  0.0466
27830W        W44304  10.644  10.570   1.231  0.2448  0.1457 -0.0352
27831W        W44305  12.741   2.781  13.565 -0.1407 -0.1841  0.0549
27832W        W44306   3.716   3.221   3.074  0.1259  0.0262  0.3020
27833W        W44307   1.345   9.686   2.238  0.4722  0.1632 -0.3015
27834W        W44308  15.648   8.773  16.463  0.0319  0.0082  0.1275
27835W        W44309  11.083   2.915   2.673  0.0346 -0.1236  0.0138
27836W        W44310   6.201  17.220  12.537 -0.2080 -0.0743  0.1689
27837W        W44311   0.755   4.501  12.984  0.1323  0.3477 -0.2503
27838W        W44312   4.520  17.135  14.183  0.0658  0.2194 -0.1188
27839W        W44313   3.726   2.385   3.651  0.0256  0.2146  0.0081
27840W        W44314   0.685   3.344  13.237 -0.2166 -0.0298  0.0011
27841W        W44315   1.808   0.827  15.587 -0.2374 -0.3602  0.1294
27842W        W44316  17.412   2.217   2.883 -0.2038  0.3200 -0.1902
27843W        W44317  16.318   3.428   3.841 -0.1825 -0.0408  0.1260
27844W        W44318   7.983  12.507   2.398  0.1385 -0.0428  0.0231
27845W        W44319  11.861   2.533   4.455  0.0250 -0.3141 -0.1992
27846W        W44320  13.140   5.740  14.470  0.0863  0.0622 -0.1466
27847W        W44321  13.116   7.424  16.110  0.2946  0.1920 -0.0128
27848W        W44322  10.465  10.962   3.826 -0.1560 -0.2437  0.0810
27849W        W44323   9.911   4.777   6.455 -0.0267 -0.0640  0.3451
27850W        W44324   5.637   9.744   5.097 -0.0315 -0.1838  0.0664
27851W        W44325   6.949  13.477   4.648  0.2782 -0.0159 -0.1601
27852W        W44326   1.918  12.655   1.645  0.1989  0.0265 -0.0534
27853W        W44327   6.832  13.565   1.436 -0.1364 -0.0325  0.3808
27854W        W44328  12.090  15.910  10.592 -0.0500 -0.1900 -0.1688
27855W        W44329  12.832  10.707  14.951 -0.0508  0.2785  0.5068
27856W        W44330  10.449   9.295   1.449 -0.2309 -0.0987  0.2996
27857W        W44331  14.662   4.607   3.098  0.1789 -0.4156 -0.4411
27858W        W44332   9.429   5.535  15.108 -0.0580  0.4077 -0.0102
27859W        W44333   0.086  11.836   1.051  0.0436 -0.4132 -0.0066
27860W        W44334   1.403  16.800   1.021 -0.1516  0.3687  0.3704
27861W        W44335  10.028  16.187  13.736  0.0183 -0.0508 -0.1362
27862W        W44336   9.645  16.301   2.884  0.0228 -0.1460 -0.2546
27863W        W44337   6.935  12.714   6.092  0.0308  0.1985 -0.1743
27864W        W44338   9.517   6.602   6.265  0.4292 -0.2271  0.2212
27865W        W44339   7.321   7.565  12.378 -0.0099 -0.2610  0.1688
27866W        W44340  11.428  14.752  13.500 -0.2078 -0.1831 -0.0769
27867W        W44341   1.296   6.112  16.001  0.0712 -0.4222  0.0982
27868W        W44342  14.675   1.318  14.972 -0.1897 -0.1543 -0.0211
27869W        W44343   1.522   7.579   6.274 -0.1530 -0.1167  0.0961
27870W        W44344  13.481   3.737  12.257 -0.0482 -0.1825 -0.1505
27871W        W44345   4.007  15.807  13.153  0.1237  0.2225  0.1966
27872W        W44346   4.089   8.516  15.193 -0.3086  0.1456 -0.0780
27873W        W44347   5.874  14.803  11.566 -0.0827 -0.1791 -0.0741
27874W        W44348  13.284  11.375  16.276 -0.1565  0.1497 -0.1795
27875W        W44349  16.587  12.889   2.745 -0.0131  0.1000  0.0298
27876W        W44350   8.024  17.268  16.674  0.0613  0.1735  0.1187
27877W        W44351   2.334  14.139  13.251  0.0633  0.2229  0.2115
27878W        W44352   5.667  11.302   4.086  0.1991  0.3057 -0.2226
27879W        W44353  17.169  16.150   6.010 -0.0453  0.0721  0.1869
27880W        W44354   1.652  12.411  14.225 -0.0396 -0.0441  0.1487
27881W        W44355   2.013  16.292  13.854 -0.2089 -0.1784  0.0055
27882W        W44356   9.443   5.919  14.423  0.0208 -0.0149 -0.0644
27883W        W44357   4.142   5.816  14.790 -0.1171  0.0574  0.4927
27884W        W44358   4.257  10.689  16.446  0.1996 -0.0315  0.3459
27885W        W44359  11.931   6.479   4.315 -0.1032 -0.1964 -0.3723
27886W        W44360   8.725   5.870   0.189  0.1077  0.2961 -0.0592
27887W        W44361   5.966   6.773  13.469  0.1900 -0.2709 -0.0316
27888W        W44362   8.483  13.172   5.117  0.0845 -0.2247  0.1520
27889W        W44363   2.230  11.806   2.577  0.0107 -0.0931  0.4057
27890W        W44364   3.354   2.864   3.513 -0.0485 -0.0034  0.2409
27891W        W44365   4.471  11.217  14.144  0.0321 -0.2487  0.0150
27892W        W44366   2.813  16.954   4.450  0.1305 -0.0357  0.1890
27893W        W44367  12.013   6.406  13.199  0.1740 -0.3114 -0.2395
27894W        W44368   0.311   8.242  16.563  0.2570  0.0894 -0.1008
27895W        W44369   6.656  13.138   3.593  0.0668  0.4162  0.0994
27896W        W44370  15.512   1.070   4.978 -0.1933  0.0120 -0.1662
27897W        W44371   9.840  14.902   4.048  0.0755  0.2890  0.0307
27898W        W44372   3.144   0.777   0.329 -0.0014  0.1670 -0.0559
27899W        W44373   5.165  15.125   5.696 -0.0308 -0.0356  0.2406
27900W        W44374  16.416   1.402   1.669  0.1558 -0.0871  0.0642
27901W        W44375  11.720   3.819   0.716 -0.1035  0.0296 -0.0024
27902W        W44376  17.243   4.236  14.337  0.2146 -0.2845 -0.1157
27903W        W44377   3.783   3.924   5.425  0.0365 -0.0385 -0.0779
27904W        W44378   1.295   4.024   0.662 -0.1133 -0.2651  0.2823
27905W        W44379   9.711   7.281   3.785  0.2385 -0.0576  0.0130
27906W        W44380   4.266  14.524  14.105  0.2833 -0.1681  0.0499
27907W        W44381  16.351  16.950  13.697  0.3257 -0.2001 -0.0594
27908W        W44382  10.503   2.732  14.491 -0.0242  0.0470 -0.0753
27909W        W44383  10.650  15.452   4.813 -0.1132 -0.0054 -0.1628
27910W        W44384   1.487  11.575  11.715  0.3151 -0.2352  0.3831
27911W        W44385   7.301  13.861   0.406  0.1918 -0.0086  0.0344
27912W        W44386   8.000  14.494   4.955 -0.2552 -0.0889 -0.2222
27913W        W44387  13.416   2.665   5.421 -0.1187  0.0371 -0.0318
27914W        W44388  11.219   5.277   4.326 -0.1009 -0.3095 -0.0636
27915W        W44389   7.748   8.531  15.487 -0.0417 -0.1460  0.2341
27916W        W44390   8.528   0.878   1.524 -0.0308  0.3678 -0.2516
27917W        W44391  13.271  16.248  11.605  0.2674  0.0571 -0.2200
27918W        W44392  15.259  16.838  12.330  0.0607 -0.0341 -0.1565
27919W        W44393  14.456   1.844   3.148  0.1230 -0.3541  0.1247
27920W        W44394  16.606  11.014  13.707 -0.1958 -0.0334 -0.2700
27921W        W44395   2.608   7.872  14.885  0.0560  0.1485 -0.3956
27922W        W44396  14.794  14.911   5.979  0.0251  0.1437  0.0457
27923W        W44397  15.725  17.751  15.617  0.0772 -0.0731 -0.1648
27924W        W44398   4.054   0.528  13.688  0.2654 -0.2456  0.0083
27925W        W44399   3.976   2.564   4.186 -0.4383 -0.2803  0.0386
27926W        W44400   0.968   3.704   0.867 -0.0384 -0.2197  0.1062
27927W        W44401   3.087   7.659   0.440 -0.1898 -0.3047 -0.3282
27928W        W44402   8.655   3.805  12.941  0.2174  0.0633 -0.0300
27929W        W44403  11.478  11.095  15.821  0.2006 -0.0671 -0.1574
27930W        W44404   9.911   1.322  15.314 -0.4641 -0.2511  0.3081
27931W        W44405   4.116   1.274  12.350 -0.3697  0.1423 -0.0595
27932W        W44406  13.425  15.521  12.924 -0.0173  0.0804 -0.4448
27933W        W44407  11.902   2.059   4.571 -0.1488 -0.1325  0.3190
27934W        W44408   1.255   2.668   3.470 -0.1031 -0.2173 -0.3043
27935W        W44409   6.482   4.669   2.236 -0.1232  0.0366 -0.1113
27936W        W44410  15.261   9.698   1.503 -0.0759  0.1083  0.3443
27937W        W44411   9.756  12.028   5.232  0.0079 -0.0782  0.1786
27938W        W44412   6.454   9.573  12.335  0.4224  0.0692 -0.1061
27939W        W44413   3.413   2.609  14.275 -0.3011  0.0069  0.0906
27940W        W44414  10.734  10.673   3.192  0.1666  0.1573  0.3011
27941W        W44415   1.509   5.796   3.357 -0.1385 -0.3586  0.1065
27942W        W44416  11.308   1.760  16.756  0.0625  0.0631  0.3479
27943W        W44417  11.270  12.477  12.774 -0.2877  0.1934 -0.2482
27944W        W44418   2.603  13.678  16.898 -0.1096  0.2171 -0.1134
27945W        W44419  15.838   9.052   2.353  0.2898 -0.1383  0.1032
27946W        W44420   8.104   9.260   1.217  0.1035  0.0778 -0.0208
27947W        W44421   1.243   1.403  13.967  0.2295 -0.1307  0.2388
27948W        W44422  17.127   8.989   2.437  0.2904  0.0638 -0.5106
27949W        W44423   8.645   7.146  16.383 -0.1952  0.1541 -0.2980
27950W        W44424  14.917   8.105   4.771 -0.0061  0.0396  0.0514
27951W        W44425  11.788  10.530   1.657 -0.2301 -0.0854 -0.0695
27952W        W44426   6.373   3.316   0.445  0.0360  0.1645 -0.3442
27953W        W44427  11.302   9.036  11.838  0.2567  0.3364 -0.0013
27954W        W44428   6.967  15.241   3.600  0.1302  0.3363  0.2445
27955W        W44429  16.690   6.879  11.345 -0.1561  0.0292 -0.0802
27956W        W44430   2.625  12.499  15.595 -0.0427 -0.1028  0.2305
27957W        W44431   5.355   8.751   4.633 -0.1959 -0.0856  0.3881
27958W        W44432   5.349   9.901  15.528  0.1685  0.0890 -0.1544
27959W        W44433  15.244  10.474  15.808 -0.1629  0.0970  0.0881
27960W        W44434  13.228   3.437  15.576  0.0990  0.3285  0.0551
27961W        W44435  17.301   3.613  14.678  0.2406 -0.2856 -0.0710
27962W        W44436   2.554  12.732   5.100 -0.3952 -0.0260  0.0614
27963W        W44437  17.562  17.305  11.628  0.0259 -0.0615 -0.1622
27964W        W44438  10.223  10.768  13.702  0.0656 -0.2173 -0.1302
27965W        W44439  17.698   6.599  12.136 -0.2855 -0.0429  0.2074
27966W        W44440   9.424   2.937   0.990 -0.0030 -0.3822 -0.1134
27967W        W44441   3.393   1.983   2.674 -0.2222  0.0424 -0.1504
27968W        W44442  16.556   0.408  13.178 -0.2838 -0.0572 -0.4601
27969W        W44443   7.297   5.554  14.963  0.1571 -0.2371 -0.1890
27970W        W44444   9.832  16.601  12.909 -0.1166  0.1719 -0.1528
27971W        W44445   3.653   6.139   0.349  0.0168  0.3681 -0.0520
27972W        W44446  15.773  10.668  12.125 -0.1408  0.1346 -0.1265
27973W        W44447   3.178  14.839   2.222 -0.1131 -0.1674 -0.0318
27974W        W44448  16.931   7.041  16.912  0.3636  0.3325  0.0135
27975W        W44449  15.561  11.945   2.520 -0.0791 -0.1760 -0.2360
27976W        W44450  11.462  14.219  12.064  0.1909 -0.3120 -0.1502
27977W        W44451  17.289  13.712   3.491  0.0591 -0.1639  0.1149
27978W        W44452  16.283   9.517   2.431  0.2043  0.0940 -0.4205
27979W        W44453   4.428   2.481   5.319 -0.0132  0.3737  0.2842
27980W        W44454   0.175   7.858   2.793 -0.1862 -0.1774  0.1280
27981W        W44455   2.773  11.942  12.829 -0.2058 -0.1919  0.1990
27982W        W44456  13.312   4.356   0.272 -0.1497 -0.1351  0.2275
27983W        W44457   7.696  12.077  12.157  0.1614 -0.1347 -0.0353
27984W        W44458  11.611   8.820  12.989  0.2612 -0.3550  0.0580
27985W        W44459   7.567  14.688   1.058 -0.2235  0.1060  0.0812
27986W        W44460  12.849   9.700   0.158 -0.2985 -0.2076 -0.1952
27987W        W44461   6.344   2.061  16.822  0.0328  0.0376  0.2137
27988W        W44462   5.984  15.048   3.212  0.1713 -0.0940 -0.3261
27989W        W44463   7.254   5.597  14.059  0.0140 -0.0540  0.0248
27990W        W44464   9.289   2.990   3.834 -0.1026 -0.0810 -0.1569
27991W        W44465  10.023  11.976   2.309 -0.0261  0.1092  0.1389
27992W        W44466   4.609  14.191  15.515  0.3038  0.2749 -0.2363
27993W        W44467   0.810  14.546   2.345  0.1494  0.1029  0.0141
27994W        W44468   1.848   0.849   5.739 -0.1551 -0.0666 -0.1474
27995W        W44469   5.553  12.559  16.833 -0.2576  0.2171 -0.0438
27996W        W44470  16.015   3.477  15.490 -0.2968  0.1498  0.0719
27997W        W44471  17.681   8.879  13.441  0.1391  0.0077 -0.1535
27998W        W44472   3.246   2.252   3.713  0.2628  0.4437  0.2286
27999W        W44473   1.344   8.601   4.282  0.2125 -0.0363  0.1622
28000W        W44474  15.374  13.887  15.588 -0.0644  0.2144 -0.0271
28001W        W44475   4.564  15.074  13.252  0.2805  0.2782 -0.1675
28002W        W44476  13.921   7.494   3.305 -0.1036  0.2521 -0.0070
28003W        W44477  13.048  16.080  16.077 -0.3698 -0.0732 -0.4386
28004W        W44478   4.467   2.416  15.285 -0.3392 -0.1888 -0.0022
28005W        W44479   8.087  10.679  15.298  0.1753  0.0552 -0.0209
28006W        W44480  11.231   7.413   2.955  0.1304  0.0206 -0.2788
28007W        W44481   1.145  11.986  16.167  0.1386  0.2420 -0.1216
28008W        W44482  12.800  13.070   1.635 -0.0271  0.0150 -0.0700
28009W        W44483  15.793  14.921  11.954 -0.1060 -0.1316 -0.0788
28010W        W44484  10.036  11.222  15.325 -0.1409 -0.0599 -0.2484
28011W        W44485   3.524   8.138   2.489  0.1099  0.0490  0.1994
28012W        W44486  11.545  10.303  11.782  0.2502  0.0189 -0.0872
28013W        W44487   0.895   5.336  14.966  0.1119 -0.0501  0.1478
28014W        W44488   2.717   7.934  16.508 -0.0582 -0.0708 -0.0340
28015W        W44489   9.062  16.737   2.014 -0.2894  0.0389 -0.2072
28016W        W44490   1.752   1.559   4.367 -0.1805 -0.1984 -0.1427
28017W        W44491  16.386  17.029  16.723  0.1439 -0.1673 -0.1091
28018W        W44492   4.683  16.932   4.734 -0.1339 -0.3549 -0.3570
28019W        W44493  15.652   8.501  14.212 -0.1236 -0.1350 -0.2386
28020W        W44494   4.983  14.701   2.289 -0.0882 -0.4821  0.1756
28021W        W44495   5.373   0.916   3.243 -0.3047 -0.0040 -0.1900
28022W        W44496  15.155   9.330   5.261  0.0068  0.1021 -0.1426
28023W        W44497  14.706   7.690  13.674  0.5796 -0.0744 -0.3501
28024W        W44498  11.460   1.477  15.837  0.0912 -0.0490  0.1018
28025W        W44499   4.400   5.615   2.050  0.3104  0.1714 -0.1877
28026W        W44500   9.325  11.667   3.624 -0.0061 -0.0277 -0.0888
28027W        W44501  11.250   0.660  14.257 -0.0094 -0.2100 -0.2484
28028W        W44502   1.328  11.395  16.189 -0.0325  0.0458  0.3912
28029W        W44503  12.228  14.453  15.030 -0.0396  0.0143 -0.1478
28030W        W44504   7.792   2.567  12.330 -0.3027 -0.1365  0.0926
28031W        W44505   3.881   6.464  13.350  0.0421 -0.0762  0.1426
28032W        W44506   9.532  17.760   3.852  0.0267  0.1727 -0.1117
28033W        W44507   9.360   1.080   1.202  0.0213 -0.0187 -0.1362
28034W        W44508  13.992  17.681   4.627 -0.0911 -0.5254 -0.3011
28035W        W44509  13.570   2.342   2.525  0.0659  0.1014  0.0802
28036W        W44510   0.639   0.711  11.687  0.0760 -0.1480 -0.0109
28037W        W44511   0.520   6.517  16.865  0.3406  0.0303  0.0515
28038W        W44512   7.104  17.258   0.911 -0.1050 -0.1671 -0.1282
28039W        W44513  15.980   1.632  12.623 -0.0606 -0.1688  0.0146
28040W        W44514   4.365  10.188  16.042 -0.1995  0.1263  0.0741
28041W        W44515  12.047  10.922   3.069 -0.1679 -0.0562 -0.1292
28042W        W44516   9.961   8.933  13.577  0.0294 -0.0127  0.0181
28043W        W44517   0.276   0.663  12.026 -0.1895  0.3307 -0.0212
28044W        W44518   9.821   4.339   1.652  0.0097 -0.0874  0.1907
28045W        W44519  12.225  13.755  13.122 -0.1483 -0.1714  0.1003
28046W        W44520   0.426  12.897  16.511 -0.3186 -0.1636  0.4859
28047W        W44521   1.199   7.313  13.309 -0.2765  0.0627 -0.1978
28048W        W44522  10.503   0.103   4.790  0.1808  0.2162  0.0825
28049W        W44523   2.531  11.493  14.924 -0.2715  0.0472  0.2548
28050W        W44524  13.102   8.897  11.739  0.0821  0.1934  0.0266
28051W        W44525   5.598   8.301   5.695  0.0244  0.4195 -0.1889
28052W        W44526  13.001  17.796   0.243 -0.0012  0.0350  0.3029
28053W        W44527  14.682  13.045  14.276  0.0570 -0.1881 -0.3504
28054W        W44528  14.802   5.794   1.724 -0.1274  0.2560 -0.0460
28055W        W44529   9.729   1.792   3.973  0.1308 -0.2335  0.2547
28056W        W44530  16.310  13.247  16.745 -0.0870 -0.2105 -0.0962
28057W        W44531  16.761  13.397  11.805  0.1526 -0.1257  0.0815
28058W        W44532   5.069   8.597  15.939 -0.3258  0.2391  0.1051
28059W        W44533  16.888   4.871  13.504 -0.2177  0.0831 -0.3164
28060W        W44534   5.936  13.885  14.796  0.1052 -0.0213  0.0874
28061W        W44535   5.946   7.915   5.419 -0.1956 -0.1147 -0.0883
28062W        W44536  12.657   2.070   0.187 -0.4018  0.1128 -0.1679
28063W        W44537  15.157  13.826   3.325 -0.1643 -0.0523 -0.0169
28064W        W44538   5.040   2.491   0.025 -0.2740  0.1936 -0.1201
28065W        W44539  16.495   3.146   5.423  0.2478 -0.0426 -0.1373
28066W        W44540  11.293   7.785  11.865  0.0570 -0.4474  0.1177
28067W        W44541   7.737   4.539   2.316  0.0143  0.0009  0.0504
28068W        W44542   2.844  14.420   1.247  0.0999 -0.2254 -0.3620
28069W        W44543  12.962  11.237   5.108  0.0880 -0.0127  0.1615
28070W        W44544  15.258   8.105   2.068  0.0017 -0.0514 -0.2705
28071W        W44545   8.825   1.911   2.597  0.1658 -0.3256  0.0497
28072W        W44546   9.951   7.370  16.381 -0.0659  0.0252  0.0187
28073W        W44547   5.478  10.662  14.475 -0.0092  0.1178  0.1137
28074W        W44548   3.311  13.994   1.868 -0.1448 -0.0200  0.0860
28075W        W44549   7.324   0.565   6.105 -0.3048  0.1442 -0.1541
28076W        W44550  10.187  14.332   4.417 -0.0968 -0.0054 -0.0418
28077W        W44551   7.573  17.749   1.904  0.0887  0.0500 -0.2303
28078W        W44552   7.112  13.268  13.717  0.1041  0.1063 -0.0063
28079W        W44553  13.280   0.962   0.039  0.1220  0.3010  0.0127
28080W        W44554  12.255  14.886  15.222 -0.3345  0.0752 -0.2739
28081W        W44555   3.078   5.325   0.208  0.0307  0.0668 -0.0042
28082W        W44556   4.547  14.590   0.677  0.1675  0.0874 -0.0372
28083W        W44557  17.544  17.144   2.087  0.0254 -0.3119 -0.1318
28084W        W44558   5.322  10.893   1.337 -0.0294  0.0615  0.2520
28085W        W44559   3.220   5.330  14.408 -0.1212 -0.3870  0.2069
28086W        W44560  11.447  10.195  13.628 -0.1900 -0.1906 -0.0606
28087W        W44561   0.384  10.930  14.583 -0.2117  0.1043 -0.1447
28088W        W44562  11.008  15.474  12.170  0.0049  0.2123 -0.2213
28089W        W44563   0.874  10.810  14.597  0.0411  0.2609  0.1045
28090W        W44564   4.934   2.399  14.457 -0.1384 -0.2406  0.1181
28091W        W44565   5.302   8.314   2.991 -0.1351  0.2089  0.1426
28092W        W44566  14.075  15.286  13.664  0.1642 -0.0935 -0.3377
28093W        W44567  14.173  12.746  11.747  0.2564 -0.0283  0.0219
28094W        W44568  15.315  14.846  11.710  0.2039 -0.1426  0.1079
28095W        W44569  14.633  11.018   5.443 -0.0311  0.1587 -0.0401
28096W        W44570  16.230  12.113  11.377 -0.1929 -0.0249 -0.0452
28097W        W44571   6.616  14.492   4.395  0.1132 -0.1483  0.0723
28098W        W44572   9.219   4.204  15.173 -0.0217  0.1707  0.2820
28099W        W44573   3.330  16.142  15.521 -0.1839 -0.0608  0.0997
28100W        W44574   1.330  13.362   1.380 -0.2537 -0.2944  0.1586
28101W        W44575   0.411   5.477   1.060 -0.2984  0.3239 -0.0744
28102W        W44576  13.631   8.800   2.386 -0.0329 -0.0692  0.0590
28103W        W44577   8.530   6.310  14.318 -0.3088 -0.1052  0.2308
28104W        W44578  13.220  10.737   1.686  0.1056  0.2368  0.2315
28105W        W44579  14.800   1.296  12.954  0.1688  0.0295  0.2620
28106W        W44580   9.216  11.920  11.254 -0.1698 -0.2348 -0.1850
28107W        W44581  13.436   6.894   0.931 -0.1231  0.1021 -0.0316
28108W        W44582  16.501  13.477   0.979  0.0901 -0.0219 -0.0023
28109W        W44583   9.225  14.976   3.124 -0.2095 -0.1746  0.2598
28110W        W44584   9.418  14.987  15.227  0.0931 -0.2036  0.0405
28111W        W44585   5.285   8.792   2.510  0.0571 -0.0681 -0.3031
28112W        W44586   3.722   5.327   3.387 -0.0581 -0.0657 -0.1602
28113W        W44587  16.996   5.495   5.454 -0.0097  0.0431 -0.1321
28114W        W44588   7.216   1.389  14.350 -0.1375 -0.1592 -0.0854
28115W        W44589  15.398  10.397  14.813 -0.4030 -0.3000 -0.0946
28116W        W44590  16.535   0.591   1.730  0.0633 -0.2072  0.2003
28117W        W44591  11.395   6.442  14.543 -0.2505 -0.0190  0.1016
28118W        W44592   9.301   9.154   4.300 -0.1693 -0.1193 -0.2499
28119W        W44593  15.201   7.932  12.073  0.1860 -0.0624  0.3871
28120W        W44594   3.536  12.534   2.408  0.1367 -0.2008 -0.1791
28121W        W44595  17.793   9.003   5.286 -0.2066 -0.1018 -0.0124
28122W        W44596  14.909  10.515  16.218 -0.1595 -0.0486 -0.1564
28123W        W44597  12.440  13.770   4.587 -0.1891 -0.1473 -0.1018
28124W        W44598   8.660  16.301   4.953 -0.0641 -0.0280  0.1485
28125W        W44599   5.132  14.047  16.808 -0.1414  0.2386 -0.0790
28126W        W44600  17.738  17.312  12.152 -0.4659  0.0478  0.1511
28127W        W44601  17.684  17.476   2.651 -0.0099 -0.0992 -0.2847
28128W        W44602   1.915  14.065  16.759 -0.1443  0.1895 -0.0093
28129W        W44603  17.524   8.501   1.327  0.1271  0.3075  0.4679
28130W        W44604   5.241  15.376  11.732 -0.0342 -0.0992  0.0576
28131W        W44605  12.378  12.501   0.502  0.0188 -0.0368 -0.0768
28132W        W44606  14.180   4.091   5.622 -0.0243 -0.1231 -0.2099
28133W        W44607  11.779   1.766  12.360  0.3474 -0.1114  0.2810
28134W        W44608  16.365   0.294  14.092  0.1399  0.0776  0.2314
28135W        W44609   1.329   2.325   0.095  0.0886 -0.0974  0.0899
28136W        W44610  15.020  16.683   3.374  0.2262  0.2748 -0.3288
28137W        W44611   0.717  13.291   1.912  0.6413  0.2484  0.0562
28138W        W44612   5.941   9.444  12.610 -0.1912  0.0757  0.2831
28139W        W44613   0.149   7.132  13.818  0.0052  0.2598 -0.3581
28140W        W44614   6.789   7.673  13.506  0.2553  0.0534  0.1039
28141W        W44615   8.284  14.232  14.581 -0.5077 -0.1115  0.1713
28142W        W44616   7.763  15.259  13.183  0.1571  0.0065 -0.1959
28143W        W44617  11.317   1.352   2.021  0.1773  0.2227  0.2810
28144W        W44618   7.010   2.390   1.921  0.1512 -0.3529  0.0598
28145W        W44619  13.251  11.559   6.142 -0.1498 -0.0425  0.0269
28146W        W44620  12.028  10.420   2.690 -0.0759  0.1655 -0.1256
28147W        W44621   3.857   6.762  14.034  0.1303 -0.0132 -0.1201
28148W        W44622  14.486   6.577   0.731 -0.1717  0.1956  0.0048
28149W        W44623  17.058  12.895   2.549 -0.0265  0.0826 -0.2068
28150W        W44624  12.022  12.820   5.900 -0.0236 -0.2859  0.3521
28151W        W44625   4.562   9.460  14.939 -0.0346  0.2956 -0.1828
28152W        W44626  16.062  15.795  13.769  0.4390  0.1491 -0.0519
28153W        W44627  15.647   4.516  12.571 -0.2913 -0.0754 -0.0346
28154W        W44628   1.288   9.116  16.694 -0.0003  0.2661 -0.0090
28155W        W44629   7.267  16.465  13.185  0.0052  0.0475  0.0767
28156W        W44630   6.842  11.660  15.694  0.0700 -0.1681 -0.0644
28157W        W44631   9.866  13.901  11.745 -0.0092 -0.0823 -0.0385
28158W        W44632   0.489  16.333  13.687 -0.2957 -0.0804  0.2497
28159W        W44633   4.341  16.982   4.288 -0.1518 -0.0401  0.0000
28160W        W44634   0.902   3.457   2.562 -0.1922  0.2466  0.1678
28161W        W44635   0.305   2.051   3.679 -0.3491  0.1356 -0.0168
28162W        W44636   6.027  17.283   3.385 -0.1329 -0.1886  0.1350
28163W        W44637  16.759   9.994  14.614  0.0540 -0.1094  0.0244
28164W        W44638   9.693   9.363   4.691 -0.3418  0.0131 -0.2797
28165W        W44639   4.691   2.448   3.527 -0.0533  0.1308  0.2809
28166W        W44640  16.521  11.532   0.989 -0.0980 -0.0905  0.1069
28167W        W44641  13.830   4.516   5.598  0.0197  0.0200  0.2595
28168W        W44642  16.323   7.454  15.796  0.2912  0.0313  0.0068
28169W        W44643   0.873   3.994   1.830 -0.0392 -0.0797  0.1358
28170W        W44644  12.442  17.690   2.851 -0.4518  0.0918  0.0596
28171W        W44645   6.570   2.166  11.218 -0.3174 -0.0674 -0.0298
28172W        W44646   5.113  17.702  10.799 -0.0638 -0.1127 -0.1309
28173W        W44647   9.185  10.483  13.092  0.3546  0.1020  0.2972
28174W        W44648   3.038   9.515  14.517  0.0715  0.1782  0.0893
28175W        W44649  14.880   6.577  16.394  0.1336  0.1305 -0.0969
28176W        W44650  14.289  16.428   2.713 -0.0981 -0.2162 -0.0136
28177W        W44651   5.648   2.411  16.075  0.1715 -0.1508  0.1358
28178W        W44652  13.556   3.857   0.071 -0.1305  0.0696 -0.0760
28179W        W44653   1.401   1.604  14.994  0.3097 -0.0390  0.0094
28180W        W44654   6.411   2.997  13.330  0.1081 -0.0196 -0.1946
28181W        W44655  10.280  12.424   0.761 -0.0902  0.0608  0.5895
28182W        W44656   8.904   3.235   2.154 -0.1923 -0.2445  0.1206
28183W        W44657   3.872   3.270  12.177  0.0328 -0.4343  0.2666
28184W        W44658   8.207   2.138   3.905 -0.0975  0.0616 -0.0553
28185W        W44659  11.405   3.889   2.118  0.2047  0.2129  0.0999
28186W        W44660   0.006   5.437  13.137  0.1804  0.3249 -0.0058
28187W        W44661   5.413  13.626  14.859  0.1835  0.1066  0.0354
28188W        W44662   3.778   9.176   2.951 -0.0622 -0.0453  0.3191
28189W        W44663  16.650   5.140   0.243 -0.1765 -0.1684 -0.1611
28190W        W44664  16.552  10.716   0.904 -0.0172  0.0825  0.1673
28191W        W44665   2.983  14.766  10.696  0.0744  0.1206  0.3603
28192W        W44666   3.143  15.569  14.807 -0.0499  0.0368  0.1443
28193W        W44667  13.592  17.717  15.662 -0.0619  0.1223 -0.3859
28194W        W44668   1.955   8.181   3.096 -0.4961  0.1514 -0.0399
28195W        W44669  15.968   5.940  12.104 -0.0227  0.0594 -0.3385
28196W        W44670   5.880   9.497   2.185  0.0303 -0.1264  0.0350
28197W        W44671  11.295   9.409   0.320 -0.1193  0.4304  0.0978
28198W        W44672   4.415  12.711  14.708 -0.2423  0.2183  0.2206
28199W        W44673   4.748   7.088   2.775 -0.0196  0.1179  0.0929
28200W        W44674   7.248   6.905  12.417  0.0056  0.0412 -0.0629
28201W        W44675   6.835   0.121   5.063  0.1703 -0.1767 -0.0318
28202W        W44676  17.018  15.341  16.922 -0.2747  0.0501  0.0827
28203W        W44677   9.019  15.434   4.436  0.0067  0.0138  0.0854
28204W        W44678  15.549   5.803   3.803  0.2487 -0.2211  0.4626
28205W        W44679   3.261   2.596   5.732  0.1011  0.0130  0.1802
28206W        W44680   3.721   1.366   6.281  0.1215 -0.0208 -0.1702
28207W        W44681   0.011   5.092   0.395 -0.3017  0.1573 -0.1183
28208W        W44682  11.808  16.087   4.457  0.0697  0.0793  0.0725
28209W        W44683  16.710  14.893  14.089  0.3802  0.1472  0.1961
28210W        W44684  13.055   4.407   1.773 -0.0825  0.0326 -0.2449
28211W        W44685  11.558   3.251   4.742  0.3726  0.3194 -0.1430
28212W        W44686   5.621   1.203  12.218 -0.1654 -0.2114  0.2978
28213W        W44687   7.264  10.214  15.233  0.2106 -0.1682 -0.0634
28214W        W44688  13.730   6.090   4.961  0.0354 -0.0025 -0.2846
28215W        W44689   6.584   6.027   6.044  0.0562 -0.0808  0.0110
28216W        W44690   5.342  13.273  14.383 -0.1585 -0.2204 -0.0870
28217W        W44691   0.486   3.271  14.073  0.0701  0.2666 -0.0651
28218W        W44692   4.736  15.451   5.042 -0.0559  0.2906  0.0657
28219W        W44693   8.939  11.200   5.475  0.0341 -0.1721  0.0529
28220W        W44694   8.698   4.487  16.141 -0.0026 -0.2786  0.0465
28221W        W44695   3.078   3.203  15.632 -0.1015  0.1924 -0.3130
28222W        W44696   0.830   8.571   4.074  0.3788 -0.0229 -0.1240
28223W        W44697  13.979   7.817   0.550  0.3273  0.1437  0.1131
28224W        W44698   0.922  13.028   1.527 -0.2464  0.1188  0.0410
28225W        W44699  16.363  11.335   5.134  0.0282  0.1418 -0.0844
28226W        W44700   5.188   0.455  14.039 -0.3450  0.0867 -0.2534
28227W        W44701   9.807  17.592   3.463 -0.1185 -0.0185  0.0945
28228W        W44702   0.982   9.729  15.118 -0.0512 -0.0459 -0.0900
28229W        W44703   1.195   6.422   4.592  0.0064 -0.2451 -0.3249
28230W        W44704   4.113  12.745  13.354  0.0141  0.2316 -0.1328
28231W        W44705  11.656  13.089   5.216  0.0214 -0.1140  0.2435
28232W        W44706   8.815  11.107   1.543  0.0760  0.1996  0.0734
28233W        W44707  13.261  15.263  15.502 -0.1719  0.2875  0.0879
28234W        W44708   2.519   3.011   0.394 -0.0466  0.0170  0.0688
28235W        W44709   3.091  14.022   2.355 -0.0606  0.2236 -0.1358
28236W        W44710  11.976   4.169  15.062  0.0975 -0.2663 -0.2063
28237W        W44711   0.914   0.224   1.909  0.1213  0.2303  0.2145
28238W        W44712   6.818   1.946   0.918 -0.1271 -0.0937 -0.0385
28239W        W44713   8.809  11.053   4.440  0.0419 -0.1103 -0.0347
28240W        W44714   7.896   6.551  15.936  0.0348 -0.0401 -0.0704
28241W        W44715  13.909   3.210   5.639 -0.1454  0.3057 -0.1844
28242W        W44716  16.096   3.408  14.453  0.0276 -0.0347 -0.1283
28243W        W44717  10.948  17.714   2.145 -0.0204  0.1798 -0.1009
28244W        W44718   1.328  11.739  14.657  0.2296 -0.1396 -0.1070
28245W        W44719  17.681  17.117  15.108  0.1954 -0.0813  0.1125
28246W        W44720   3.638   5.707   3.752  0.5376 -0.2127  0.0199
28247W        W44721  11.831   2.148  13.605 -0.3135 -0.3097 -0.1024
28248W        W44722  13.523   0.186   1.770  0.0010  0.1784  0.3374
28249W        W44723  11.600  12.910  14.567  0.0012  0.0263 -0.1025
28250W        W44724   4.522  14.092   1.014  0.0907  0.0905 -0.0940
28251W        W44725   7.996  14.674   2.992 -0.1243 -0.2164  0.2140
28252W        W44726   7.761  11.003   4.346  0.0386  0.1481 -0.1530
28253W        W44727   0.100  10.844   0.805 -0.0749 -0.2426  0.2348
28254W        W44728  14.958   2.894  16.761 -0.2079 -0.2921 -0.2640
28255W        W44729  16.266  15.242   5.477  0.1053 -0.2975  0.1146
28256W        W44730   2.162   4.158   0.574 -0.0735  0.1368  0.0566
28257W        W44731  12.758  12.407  14.870  0.0781  0.1850 -0.1096
28258W        W44732  11.003   2.987  15.275  0.2284 -0.2425 -0.1714
28259W        W44733   8.435  13.321   1.413  0.2565 -0.1841 -0.0462
28260W        W44734   7.489   8.708  13.245 -0.2079  0.0666  0.2418
28261W        W44735   2.211   0.098   3.391 -0.1685  0.3664 -0.1622
28262W        W44736  11.749  17.355   2.167  0.0602 -0.3694  0.0670
28263W        W44737   6.525  13.795  10.289 -0.0017 -0.1341  0.0748
28264W        W44738  14.481  12.037   2.517 -0.2274 -0.1487 -0.0829
28265W        W44739   2.127   4.582   3.652 -0.0947  0.0923 -0.1356
28266W        W44740   0.329  12.993  15.228 -0.2087 -0.1462  0.4172
28267W        W44741   8.231   6.346   0.910  0.1229  0.2145  0.1531
28268W        W44742   7.306   0.579  14.510  0.1252 -0.0302 -0.0143
28269W        W44743   0.705   1.977   2.855 -0.4159  0.2718  0.1088
28270W        W44744  14.725   8.512   4.263 -0.1636 -0.2363  0.0073
28271W        W44745  16.206   6.407   1.179 -0.0302 -0.1752  0.0798
28272W        W44746   4.837   9.373   0.648  0.0830  0.0992 -0.1942
28273W        W44747   9.743   7.138   0.914  0.1099 -0.0429  0.2149
28274W        W44748  12.176  14.183  12.597 -0.0547  0.0368  0.4319
28275W        W44749  13.791   1.439  13.299 -0.1170 -0.0308 -0.2248
28276W        W44750  17.542   7.802  14.339  0.1808 -0.1460 -0.3119
28277W        W44751  16.563   7.879   4.220 -0.1310 -0.0774  0.0679
28278W        W44752   3.033   7.207   0.096 -0.3536  0.0634 -0.0396
28279W        W44753   4.009  16.427  15.254  0.0651 -0.1770  0.1976
28280W        W44754   5.174   4.326   4.727  0.1487 -0.0293  0.1003
28281W        W44755  16.095   2.558  12.402  0.1137  0.1208  0.0907
28282W        W44756   8.152  13.298   0.581 -0.1647 -0.0032 -0.0682
28283W        W44757   8.501   7.768   2.430 -0.0381  0.2484  0.0152
28284W        W44758   5.229   4.412   6.477  0.0810 -0.2134 -0.1365
28285W        W44759   2.547   2.529  16.652  0.2089  0.2419  0.0731
28286W        W44760   8.028   3.341   2.180 -0.3404  0.0943 -0.0214
28287W        W44761  16.005   8.400  13.111  0.3941 -0.0146 -0.1241
28288W        W44762   5.372   4.537   5.157 -0.3424 -0.1764 -0.3575
28289W        W44763   5.139   7.155  11.690 -0.0090  0.0974 -0.2213
28290W        W44764   4.427  12.223  14.559 -0.0543  0.1413  0.2215
28291W        W44765  16.856  10.247   6.144  0.2369 -0.0130 -0.0635
28292W        W44766   9.302  15.910  14.225 -0.1556  0.3799  0.1353
28293W        W44767  15.955  13.302   3.187 -0.1211 -0.0220 -0.1564
28294W        W44768  10.405   8.205   3.369  0.0306 -0.2336 -0.0506
28295W        W44769   5.111  11.356   1.951 -0.0063 -0.0597  0.2228
28296W        W44770   0.942   5.192  15.557  0.0894 -0.1828  0.1474
28297W        W44771   9.359  15.592  13.637  0.3864 -0.0937  0.0487
28298W        W44772  10.495   1.532   0.338 -0.0740 -0.3051  0.0410
28299W        W44773  13.513   4.180  12.678  0.0917 -0.2626  0.1435
28300W        W44774  12.678   2.615   0.674  0.1970 -0.0297 -0.1925
28301W        W44775  17.679   9.756   3.741 -0.0624 -0.0365  0.1466
28302W        W44776   2.854   4.080  16.533  0.0433 -0.0886 -0.0526
28303W        W44777   8.385   5.033   2.752 -0.2383 -0.1417  0.1020
28304W        W44778  14.623  17.061   0.544 -0.1298  0.1943 -0.0959
28305W        W44779   8.261  16.524  13.296  0.2224  0.1547 -0.0392
28306W        W44780   9.842   0.549  11.927 -0.1887 -0.0424 -0.1854
28307W        W44781   0.479  17.516   2.694  0.0672 -0.2394  0.0292
28308W        W44782   8.065  14.889   2.457  0.0258  0.1276 -0.3975
28309W        W44783   1.172  11.181   4.850  0.1265 -0.1308  0.1775
28310W        W44784   9.013   0.865   3.248  0.2994  0.0239 -0.0300
28311W        W44785  13.781  10.434  12.107 -0.0573  0.1663 -0.0312
28312W        W44786   8.842   8.045  13.737 -0.0481  0.2163  0.1258
28313W        W44787   1.574  17.074   2.740  0.1508  0.1696 -0.0124
28314W        W44788   6.891   1.756   1.904  0.0348 -0.2571  0.0418
28315W        W44789  11.824  11.081   4.043  0.0182 -0.0794 -0.1287
28316W        W44790  10.658  13.227  13.693 -0.0958  0.6270  0.4086
28317W        W44791   3.502  17.552   5.793 -0.0086 -0.2793 -0.2009
28318W        W44792   0.920  12.257  12.253  0.3760 -0.0547  0.0286
28319W        W44793  10.391  12.710  16.424  0.1462 -0.0202 -0.1441
28320W        W44794  11.540   6.786  12.140 -0.1255  0.0302  0.0346
28321W        W44795  10.515  12.634  13.769  0.0469 -0.0100 -0.1399
28322W        W44796   7.660  11.781  13.975  0.0892 -0.2517  0.4410
28323W        W44797  13.484   1.054   1.879 -0.1269  0.2285  0.0651
28324W        W44798  13.709  17.115  13.844  0.2526  0.3605  0.1286
28325W        W44799   8.505   9.818  16.326 -0.1133 -0.2314 -0.0533
28326W        W44800   7.736   3.780  16.719 -0.0151 -0.0139 -0.1854
28327W        W44801   3.674   1.313  15.172  0.0568 -0.4102 -0.1542
28328W        W44802   1.492  16.504  14.114 -0.0476 -0.1207  0.1663
28329W        W44803   2.380   8.305  11.312 -0.1808  0.2028  0.1071
28330W        W44804   7.185  12.364   2.628 -0.0634 -0.0830 -0.1324
28331W        W44805  16.867  13.805  16.742 -0.0317 -0.0765  0.0040
28332W        W44806   0.749   7.529  13.142 -0.2179 -0.1127  0.1980
28333W        W44807  11.758   6.378   3.426 -0.6340  0.0587 -0.0604
28334W        W44808  17.161  17.396  13.336  0.1938  0.0404 -0.1283
28335W        W44809  14.848  11.944   4.362 -0.1304 -0.0625  0.0316
28336W        W44810   8.005  14.044   2.757  0.1698 -0.1395 -0.0554
28337W        W44811   2.173   6.415   1.285  0.0629  0.0242  0.0575
28338W        W44812   8.435   6.901   0.218  0.0583  0.0172  0.1605
28339W        W44813   0.719  11.271  15.943 -0.1033  0.1337 -0.1102
28340W        W44814   9.685  16.308  11.642  0.1770 -0.2022 -0.2665
28341W        W44815  11.882   7.367  15.430  0.0324  0.1052  0.1350
28342W        W44816   7.138  17.216   6.105  0.0272 -0.1260  0.2259
28343W        W44817   4.505   0.506  12.464 -0.0738  0.4096 -0.3423
28344W        W44818   5.739  16.407   6.061  0.2639 -0.3361 -0.4369
28345W        W44819   8.687  10.186  13.753 -0.0039  0.0302  0.1025
28346W        W44820   5.412  12.454   0.467  0.0691 -0.2119 -0.0161
28347W        W44821  12.668   1.357   1.839  0.0343 -0.1039 -0.1171
28348W        W44822   6.880   7.573  16.687  0.0181  0.2850  0.2202
28349W        W44823  17.531   6.700  10.684 -0.3126  0.1744 -0.0761
28350W        W44824   3.849   1.925   2.533  0.0482  0.1391 -0.0610
28351W        W44825   2.059  11.696   0.848 -0.0219 -0.0053 -0.3803
28352W        W44826   0.276   0.974  12.899 -0.2869 -0.0573 -0.1245
28353W        W44827   1.326   1.358   5.136  0.0008 -0.3944 -0.0654
28354W        W44828   7.750  13.642   2.994  0.1801 -0.2886 -0.0059
28355W        W44829  15.049  10.958  12.914  0.2014 -0.1114 -0.0783
28356W        W44830  15.423  16.680   5.790 -0.2963  0.2014 -0.1070
28357W        W44831   4.822  15.825   4.765 -0.1735  0.2468  0.0807
28358W        W44832  15.524   8.172  13.333  0.0577 -0.0567  0.1063
28359W        W44833  16.996  11.721  14.109 -0.3518 -0.3767  0.1837
28360W        W44834  10.622  14.860   4.314 -0.0342 -0.2781  0.0612
28361W        W44835   0.354  16.784   5.406 -0.0843  0.0465 -0.1637
28362W        W44836   1.652  16.473  11.879  0.0092  0.1384  0.3236
28363W        W44837   4.921  12.618  11.262 -0.0974 -0.1132 -0.2193
28364W        W44838  14.758  15.678   4.116  0.1480  0.0302 -0.1386
28365W        W44839   8.574  14.078  14.129 -0.0281 -0.0151  0.5019
28366W        W44840   1.708   7.056  13.697 -0.1772 -0.1259  0.0295
28367W        W44841  17.325   8.548  13.600  0.1001 -0.0548  0.0713
28368W        W44842  11.769   8.784   1.662 -0.1636  0.1950 -0.1886
28369W        W44843  13.231   4.737   5.874 -0.0163  0.0416  0.0064
28370W        W44844   2.214  15.127  15.324  0.1057 -0.1727  0.0716
28371W        W44845   8.569  17.657   1.433 -0.1195 -0.0137  0.0998
28372W        W44846   3.400  16.055   1.446 -0.0863  0.2436  0.0020
28373W        W44847  15.471  16.531   5.305 -0.0992  0.3695  0.5617
28374W        W44848  15.648  13.186   2.067  0.0192  0.4007  0.1040
28375W        W44849   8.936   7.549   5.561 -0.0383  0.1227 -0.1893
28376W        W44850  11.425  14.087  13.239 -0.1709  0.1063  0.1695
28377W        W44851   4.051  14.210  11.758  0.0217  0.0738  0.2836
28378W        W44852   5.323  10.999   3.874 -0.0856 -0.1343 -0.1751
28379W        W44853  16.190  17.051  12.983 -0.0467  0.1220  0.1160
28380W        W44854  17.102   0.602   5.462  0.2171 -0.2293 -0.2000
28381W        W44855   6.061  15.129  12.370  0.1238  0.1780  0.2621
28382W        W44856   9.502  15.049  14.416  0.2383 -0.2188 -0.1342
28383W        W44857   3.417   3.759   1.019  0.1402  0.1516  0.3559
28384W        W44858   8.329  15.706  14.808  0.1244 -0.0996  0.1551
28385W        W44859  17.237  13.947   3.032 -0.1334  0.0036 -0.0531
28386W        W44860  14.100  17.400  11.518 -0.0137  0.0292  0.2310
28387W        W44861   8.648   3.150   4.522  0.1763 -0.1293  0.1208
28388W        W44862  14.155   3.065   2.879  0.2778 -0.0415  0.3947
28389W        W44863   6.780  16.673   2.473  0.0023  0.0641 -0.1271
28390W        W44864   0.986  16.029  14.440 -0.0961  0.0063  0.0898
28391W        W44865  14.117   2.419   3.840 -0.3271 -0.3100  0.1462
28392W        W44866   3.579   9.887   0.322  0.0542 -0.0960 -0.0288
28393W        W44867   0.674   7.707   5.814  0.0649 -0.0698  0.2947
28394W        W44868  14.848  10.192   3.889  0.1840 -0.3704 -0.2733
28395W        W44869   5.403   0.728   4.900  0.0108  0.0673 -0.0251
28396W        W44870  16.995  14.647   1.044  0.1296 -0.2250  0.4537
28397W        W44871   4.503  15.281  13.676  0.3529 -0.1809 -0.1340
28398W        W44872  14.305   4.010   0.164  0.0150  0.1572  0.0263
28399W        W44873  16.152  11.859  15.964 -0.0599 -0.3187 -0.3895
28400W        W44874  11.720  13.115  16.225 -0.0267  0.0416  0.1377
28401W        W44875  16.927   2.892  13.238  0.1419 -0.0334  0.2009
28402W        W44876  17.740   1.370   1.157 -0.0464 -0.0819  0.1209
28403W        W44877  11.357   6.173  16.565 -0.2326 -0.0378  0.0745
28404W        W44878   0.287  10.177  11.754 -0.1257  0.0115  0.0377
28405W        W44879   7.007   1.560   3.548  0.2868 -0.0186  0.1181
28406W        W44880  17.329  16.967   4.268 -0.1387  0.0121  0.1174
28407W        W44881   2.956   4.018   1.430  0.2328  0.2951  0.0922
28408W        W44882   4.586   1.847   0.180  0.2419  0.1796  0.1375
28409W        W44883   6.132   2.463  13.674 -0.0976 -0.1426 -0.0165
28410W        W44884  16.248   4.834   0.053  0.2543 -0.1345 -0.1881
28411W        W44885  13.475   7.385   3.575 -0.2247  0.0698 -0.0016
28412W        W44886   2.919   3.817  14.606 -0.0051  0.1928  0.0771
28413W        W44887  14.715  17.297  14.704 -0.1598  0.1550  0.0623
28414W        W44888  12.784   0.125   2.513  0.0619  0.1081 -0.0525
28415W        W44889   2.958   2.386   2.134 -0.0664 -0.2157 -0.0805
28416W        W44890   0.838   6.298  12.801  0.1841  0.3395  0.1201
28417W        W44891   0.424   9.314  14.407 -0.2180 -0.1421  0.0907
28418W        W44892   7.007   9.426  12.298 -0.1611 -0.4719  0.0380
28419W        W44893   0.617   6.174  16.541  0.2248 -0.1426  0.0561
28420W        W44894  17.014  10.481  12.430 -0.0248 -0.1281 -0.1778
28421W        W44895  14.809   3.109   5.468  0.0675  0.0788 -0.1568
28422W        W44896   1.627  12.832   4.443 -0.0872  0.0417 -0.1605
28423W        W44897  16.945   3.736   1.608 -0.0160  0.0060  0.0092
28424W        W44898  16.224  11.472   2.817 -0.0061 -0.0435 -0.1986
28425W        W44899   7.035  17.246  15.505 -0.0227 -0.1746  0.0817
28426W        W44900   3.194  11.323   5.670  0.2526 -0.1698 -0.0688
28427W        W44901  16.988  10.088  12.122 -0.0211  0.2908  0.0303
28428W        W44902  14.640   7.257   4.751  0.1857  0.0254 -0.0364
28429W        W44903   1.896   6.938   5.713  0.1050  0.0330 -0.3329
28430W        W44904   5.867  14.976   4.319 -0.2719 -0.0093 -0.0861
28431W        W44905   4.949  16.289  11.747  0.2858 -0.0938  0.1152
28432W        W44906   2.940  16.814   6.188 -0.0350 -0.1608 -0.0006
28433W        W44907  11.861   6.481   1.569  0.1228 -0.0914  0.0170
28434W        W44908   7.865  13.840   2.115  0.0301  0.1749  0.2063
28435W        W44909   7.415  14.035   3.270 -0.0768 -0.2387 -0.0424
28436W        W44910   8.310  12.047   5.089  0.1575 -0.3875 -0.1865
28437W        W44911  10.157   4.637   1.238 -0.3801 -0.1155 -0.1645
28438W        W44912   7.592  14.000   1.657  0.1041 -0.1809 -0.1396
28439W        W44913  16.214   5.023   1.692  0.3684  0.2162  0.0134
28440W        W44914  17.278   7.225   3.985  0.0309 -0.0407  0.1523
28441W        W44915   3.290  16.576   0.071  0.1015  0.0458  0.2323
28442W        W44916   0.578  15.916  16.732  0.2965  0.0540 -0.0028
28443W        W44917  16.169   0.828   2.312 -0.0808  0.3119 -0.1131
28444W        W44918   2.960   2.654   3.284 -0.2045  0.2433 -0.0441
28445W        W44919  11.289  10.055  13.173 -0.0430 -0.0040 -0.0901
28446W        W44920  11.573   6.293   2.925  0.1689  0.2534  0.1107
28447W        W44921   0.628   2.671   3.019 -0.4221  0.0967  0.0648
28448W        W44922  12.937   7.585   4.540  0.1284 -0.0970 -0.3875
28449W        W44923  14.544  13.211   4.324  0.2146 -0.1147 -0.2111
28450W        W44924  15.658   8.402   1.319  0.2392  0.0645  0.1714
28451W        W44925  11.549  12.742   6.181 -0.2316 -0.1207 -0.4298
28452W        W44926  10.107   7.579   0.339 -0.1482 -0.2335  0.3577
28453W        W44927  16.899   9.117   5.428  0.0444  0.1124 -0.0982
28454W        W44928   2.112  11.695  13.176 -0.0708 -0.0580  0.0005
28455W        W44929   5.880   5.101   3.678 -0.0514  0.1700 -0.1373
28456W        W44930   9.481  14.593   0.562  0.0138  0.0750  0.1942
28457W        W44931   5.237   7.578  12.925 -0.0317 -0.2815  0.1301
28458W        W44932  16.440  16.459  14.106  0.0529  0.2294 -0.1256
28459W        W44933  17.504  10.248   0.216 -0.2269 -0.1474  0.2427
28460W        W44934   8.618   4.870   4.234  0.3541 -0.0204 -0.2823
28461W        W44935  17.156  10.213  16.769 -0.1865  0.1404 -0.0025
28462W        W44936  14.098  15.458   1.863 -0.1537  0.0104 -0.0809
28463W        W44937   3.254   9.335   4.577 -0.1721 -0.0515 -0.0776
28464W        W44938   6.837   4.754   6.318  0.2979  0.1413 -0.0820
28465W        W44939   9.729   4.174  15.357 -0.0893 -0.0186  0.0752
28466W        W44940  13.681   6.255  15.669 -0.0476  0.1379 -0.1218
28467W        W44941  15.304  12.643  12.179 -0.0748  0.1486 -0.2437
28468W        W44942   4.906   9.889  14.346 -0.1081 -0.3211 -0.3149
28469W        W44943  13.704   0.371  13.943  0.0580 -0.0995  0.0163
28470W        W44944  16.057   4.230  12.445  0.0943  0.0692 -0.2781
28471W        W44945   9.364  12.977  15.880  0.1118  0.0672 -0.0730
28472W        W44946   8.312   7.714  15.452  0.2495 -0.0007 -0.1137
28473W        W44947   0.256  11.405  14.722 -0.0571 -0.1146 -0.0506
28474W        W44948  13.128  13.539   3.130  0.2267  0.0847 -0.2426
28475W        W44949  13.023  14.369   5.486  0.0005  0.3307 -0.1247
28476W        W44950   6.609  17.470   4.172  0.1916  0.1541  0.1489
28477W        W44951   4.049   5.351   0.020  0.4399  0.1316 -0.0974
28478W        W44952  17.315  13.060   3.452 -0.2755  0.0089 -0.0472
28479W        W44953   8.434   5.668   3.605 -0.0283 -0.0540  0.2055
28480W        W44954   6.135  12.792  16.183 -0.2856  0.1623  0.0623
28481W        W44955   4.614  14.008  11.798 -0.1062 -0.0705 -0.4923
28482W        W44956   8.914  15.720   2.577  0.1313 -0.0371  0.2560
28483W        W44957   9.818  16.329   1.940 -0.1612 -0.2012 -0.3248
28484W        W44958  13.042   6.774  14.442  0.0381 -0.0388  0.0688
28485W        W44959  13.336  11.771   3.053 -0.3873  0.1503  0.0772
28486W        W44960   4.202   6.334  14.356  0.0866  0.0258 -0.0071
28487W        W44961   7.159   5.973   3.216 -0.1823  0.0545 -0.1352
28488W        W44962  12.955   6.161   1.786  0.0642 -0.0896  0.0505
28489W        W44963   2.996   3.426   1.953  0.2650 -0.0984  0.3389
28490W        W44964  14.184   1.283  14.040 -0.1517 -0.1385 -0.1851
28491W        W44965   1.119   4.712   4.174 -0.1871  0.0404  0.0363
28492W        W44966   4.781   2.208   2.541  0.1686 -0.0605  0.1580
28493W        W44967   4.271  10.054   2.860 -0.0834  0.0310  0.1359
28494W        W44968  15.249   3.393   6.333  0.0217  0.0977  0.0817
28495W        W44969   3.937   5.212  16.402  0.0364 -0.0811 -0.2607
28496W        W44970   3.721   1.947  14.997  0.1882 -0.1492  0.0330
28497W        W44971   9.732  10.379   4.797 -0.3840 -0.0850  0.1111
28498W        W44972  14.471  10.952   4.277 -0.0408 -0.0508 -0.0916
28499W        W44973   6.940   5.727   2.446  0.4163 -0.3188  0.0897
28500W        W44974   4.339   4.992  15.222  0.0374  0.0680 -0.1031
28501W        W44975  13.029  13.353   0.703 -0.1378 -0.1416 -0.1476
28502W        W44976  12.704   4.003   3.402  0.0237  0.0094 -0.1191
28503W        W44977  15.624   4.463  15.214  0.0019  0.0174  0.1025
28504W        W44978  14.232  16.924   5.625 -0.2764 -0.2847  0.0349
28505W        W44979  16.047   9.665   5.246 -0.0307 -0.1255  0.1207
28506W        W44980   7.616   2.479   6.068 -0.0263  0.1109 -0.1523
28507W        W44981  15.381  11.558  13.762  0.3270 -0.1605 -0.1812
28508W        W44982   9.284   3.634  15.967 -0.0943 -0.2197  0.0339
28509W        W44983  14.742   4.947  13.165 -0.1650  0.2813  0.1641
28510W        W44984   1.875  10.714  10.907  0.3200 -0.2625 -0.1743
28511W        W44985  11.750   7.425   2.217  0.1219  0.2730  0.0345
28512W        W44986   1.516   6.060   4.925  0.2757  0.0833  0.1174
28513W        W44987   9.542   0.801  15.826 -0.0730  0.2095  0.1524
28514W        W44988   9.659   2.988  14.863  0.3106 -0.0177  0.0730
28515W        W44989  11.075   7.674   4.524  0.0714  0.2390  0.1749
28516W        W44990  10.905   9.402  11.597 -0.2028  0.0306  0.2289
28517W        W44991   4.819   2.689  14.017 -0.0008  0.1723  0.0868
28518W        W44992  14.454  11.400   5.710  0.1964 -0.2253  0.2421
28519W        W44993   5.247  12.070  14.790 -0.2637  0.1290 -0.0235
28520W        W44994  16.907   5.645  16.067  0.2015  0.1114 -0.0595
28521W        W44995   4.447   6.523  16.920 -0.1849  0.1198  0.1337
28522W        W44996  17.432  15.178  14.903 -0.1799 -0.1099 -0.0619
28523W        W44997  11.273  15.661  14.735  0.0323  0.0979  0.0696
28524W        W44998   6.164  13.725   2.889 -0.0097 -0.2316  0.0691
28525W        W44999  16.104   9.127  14.732  0.2387 -0.1602 -0.0866
28526W        W45000   1.708   5.689   4.569 -0.1360 -0.0484  0.1687
28527W        W45001   4.148   9.559  11.575  0.0528  0.1003  0.1690
28528W        W45002  12.379  12.300   4.615  0.1746  0.1342  0.1389
28529W        W45003   4.835   1.694   2.396 -0.1518 -0.0857 -0.0185
28530W        W45004   0.408  14.538  12.095  0.0642  0.2113 -0.1645
28531W        W45005   1.722   6.410  14.638  0.2516 -0.1174  0.5507
28532W        W45006   6.278  16.411  11.961 -0.1013  0.2019  0.1991
28533W        W45007   6.818   4.054  15.646  0.1239  0.0159  0.0019
28534W        W45008  12.250   3.820  12.443 -0.3612 -0.0164  0.0576
28535W        W45009  11.192  12.860  12.501  0.1192 -0.2044  0.2766
28536W        W45010  12.129  14.694  11.927  0.1920  0.0845 -0.0971
28537W        W45011  12.814  17.698  14.772  0.0975 -0.2857 -0.2591
28538W        W45012  13.332  17.538  13.552  0.1313  0.0844 -0.0357
28539W        W45013  16.794   1.016   5.097  0.1403 -0.1212 -0.0454
28540W        W45014   9.466  11.481   3.000 -0.1631  0.2170 -0.0823
28541W        W45015   4.874   2.579  14.915 -0.1980  0.0237 -0.0564
28542W        W45016   3.823   8.990   2.026  0.0084  0.2092  0.0493
28543W        W45017   8.857   0.141   3.329 -0.1376  0.0590  0.3096
28544W        W45018   1.343   5.776   2.052  0.2532  0.1519 -0.1674
28545W        W45019   9.656   1.486   2.008  0.2633  0.0394 -0.2284
28546W        W45020   1.926   1.856   5.693 -0.2478  0.2336 -0.2275
28547W        W45021  12.379   5.893   4.182  0.0417  0.2405  0.1673
28548W        W45022  16.116   1.310   3.094 -0.0642 -0.2671 -0.0477
28549W        W45023  17.518   4.749   6.423 -0.0150  0.1183 -0.0290
28550W        W45024  15.691   0.300  13.026 -0.2157 -0.1460  0.0039
28551W        W45025  11.287  17.672  11.386  0.2520 -0.0506 -0.2696
28552W        W45026   9.048   8.529   3.959  0.0656 -0.1112 -0.0868
28553W        W45027  10.456  17.594  16.701  0.0734  0.1899 -0.5344
28554W        W45028  16.386  11.166  12.683 -0.0786  0.4158 -0.2124
28555W        W45029   9.008   8.846   5.854 -0.1088  0.3675 -0.1666
28556W        W45030   1.666   9.411  11.224  0.0460 -0.0016 -0.2255
28557W        W45031  17.145   7.398   2.681 -0.0878 -0.0268  0.0614
28558W        W45032   8.581  16.824   5.231 -0.1107  0.2175 -0.1218
28559W        W45033   0.463   0.633   1.064 -0.0975  0.0538  0.2254
28560W        W45034   0.350  15.286  16.121 -0.1075  0.0207 -0.4121
28561W        W45035   0.616   3.962   5.992  0.1809 -0.1803  0.1466
28562W        W45036  10.180  16.182  13.271 -0.0827  0.1115  0.2890
28563W        W45037   2.569  17.022   3.643 -0.2386  0.0627 -0.2202
28564W        W45038  14.253   7.359  16.692  0.1216 -0.1653  0.1075
28565W        W45039  10.672   8.988  11.893 -0.1240  0.4165  0.0049
28566W        W45040  16.538   5.641  14.358 -0.0205  0.0745 -0.0061
28567W        W45041   4.708   8.957   1.280  0.2975 -0.0175  0.0820
28568W        W45042  13.897  16.055   2.651 -0.0786  0.0229 -0.3240
28569W        W45043   3.278   4.531   3.405 -0.0151  0.0091  0.0005
28570W        W45044  14.920  10.527  14.948  0.0367  0.1687  0.0027
28571W        W45045  14.961   4.110  12.296  0.3303  0.0247  0.1045
28572W        W45046  11.231  11.296  12.970  0.0914 -0.0001 -0.0587
28573W        W45047  12.092  12.971   0.487  0.0547  0.0313 -0.2663
28574W        W45048  14.408   1.640   0.592 -0.0141 -0.1055 -0.0883
28575W        W45049  16.041  15.496   6.297 -0.1449 -0.1367 -0.1590
28576W        W45050   8.057   1.618  12.441 -0.0595 -0.1489 -0.2535
28577W        W45051  10.363  16.271   0.692  0.1911 -0.1236 -0.0842
28578W        W45052  13.612   8.588  12.488  0.2552  0.0188  0.0651
28579W        W45053   6.807   2.871  13.039  0.2395 -0.0709  0.1279
28580W        W45054  10.288   5.797   4.577  0.0877 -0.0976  0.0452
28581W        W45055   3.983  15.288   4.728 -0.0480 -0.1683  0.0899
28582W        W45056  15.704  15.086  16.444 -0.0522 -0.0256 -0.4291
28583W        W45057   6.624   3.212  12.711 -0.0832 -0.3428  0.2312
28584W        W45058   9.558   3.730   5.946  0.1829  0.0072 -0.3596
28585W        W45059  15.789  15.441  12.185  0.3348  0.2676 -0.0541
28586W        W45060   4.749  12.473  14.264  0.1731 -0.0138  0.1288
28587W        W45061   5.303   3.845   5.678 -0.0309  0.0926  0.3411
28588W        W45062   9.052  16.818   1.457 -0.1676 -0.0633 -0.0426
28589W        W45063  16.301  15.909   1.707 -0.0915 -0.1804  0.3150
28590W        W45064   4.968   4.724   3.116 -0.0093 -0.1702  0.2679
28591W        W45065   3.638  14.137   4.233  0.0537 -0.2114  0.0426
28592W        W45066   8.574  16.435  15.554  0.1926 -0.2467 -0.0249
28593W        W45067  16.603   5.676   5.815  0.1471 -0.1114  0.2233
28594W        W45068  15.165  14.849  15.727 -0.4618 -0.2248 -0.0274
28595W        W45069  10.714  15.073   1.522  0.2258  0.0889 -0.2389
28596W        W45070   1.777  15.952  14.872  0.2127 -0.2910  0.5002
28597W        W45071  14.771  16.079  16.736 -0.1161 -0.0646 -0.0478
28598W        W45072   2.672   8.525   4.262  0.2477 -0.1063  0.1599
28599W        W45073   9.237   4.130   6.075 -0.1717 -0.1265 -0.0661
28600W        W45074  16.836   7.780   3.496  0.1710 -0.1513  0.1386
28601W        W45075  15.869  16.204   4.096 -0.1725 -0.0473  0.0807
28602W        W45076   0.274  14.058  15.422  0.0119  0.0063 -0.0264
28603W        W45077  17.256  10.643  14.559 -0.1329 -0.0178  0.0754
28604W        W45078  15.938   1.241   4.341  0.1760  0.0567 -0.2096
28605W        W45079   0.245  17.233  11.747  0.1792 -0.2389  0.1111
28606W        W45080  11.743   6.062  14.559  0.0985  0.0460 -0.0071
28607W        W45081  13.795  10.123   1.465  0.0334 -0.3148  0.1264
28608W        W45082  12.769   0.490  11.616 -0.1373  0.1520 -0.0884
28609W        W45083   8.379  12.384  13.932  0.2644  0.2270 -0.1322
28610W        W45084  12.193   0.069   4.256 -0.1967  0.0635  0.3524
28611W        W45085   5.945  16.286   1.745  0.0530 -0.1385  0.0733
28612W        W45086  10.716  11.784  16.278  0.0768  0.0933 -0.0713
28613W        W45087  11.510   2.924   0.583 -0.0380  0.1824  0.0499
28614W        W45088  11.056  15.593  10.800 -0.1183  0.1650  0.0306
28615W        W45089   3.299   4.099  15.213 -0.1147  0.0285 -0.1491
28616W        W45090   9.822   1.899  12.659 -0.1122  0.4490  0.0655
28617W        W45091   0.846  12.632   3.631 -0.1397 -0.0772  0.0855
28618W        W45092   0.485   1.585   1.544 -0.2335 -0.0385  0.1301
28619W        W45093  17.452  11.121   0.783  0.0327  0.1419 -0.2491
28620W        W45094  12.257   0.885   4.033  0.1634 -0.0620 -0.0708
28621W        W45095   2.611   8.561  11.941 -0.0161  0.1900 -0.2117
28622W        W45096   2.541   6.770   5.064  0.3009  0.0081  0.0038
28623W        W45097   7.102  12.364  13.321  0.0535 -0.0597 -0.3084
28624W        W45098   8.999  15.167  14.420  0.3867  0.1360 -0.1430
28625W        W45099  11.141  15.796   4.052  0.0341 -0.0345  0.3467
28626W        W45100  11.389   6.811  13.737  0.0509  0.2866  0.0967
28627W        W45101  14.808   3.547  14.252 -0.0826  0.0583  0.3382
28628W        W45102   9.410   7.602  16.339 -0.1972  0.1335  0.1524
28629W        W45103   0.040   4.752  13.596 -0.1343 -0.2132  0.0594
28630W        W45104   2.158  10.664  14.170  0.0837 -0.3421 -0.2025
28631W        W45105  14.515  11.182   0.698 -0.0559  0.0721  0.0081
28632W        W45106  17.191   9.894  15.690 -0.3294  0.1716 -0.1172
28633W        W45107  11.331  10.295   3.980 -0.1244 -0.1370 -0.0897
28634W        W45108   3.091  14.756  11.602 -0.1145  0.1077  0.3150
28635W        W45109   4.011  16.437  11.944  0.2478  0.1948  0.0525
28636W        W45110  14.948   5.553   0.090  0.0401 -0.0314  0.1353
28637W        W45111   0.452  17.510   3.451  0.1608  0.3889  0.0187
28638W        W45112   7.941  13.918   4.107 -0.0546 -0.1383  0.1897
28639W        W45113  12.311   9.982  15.920  0.1246  0.1177  0.0831
28640W        W45114  17.190  16.597  13.229  0.0010 -0.4391 -0.2037
28641W        W45115  17.670  16.623  14.438 -0.2513  0.1907 -0.0738
28642W        W45116   5.419   6.046  14.870  0.0404  0.1563  0.0750
28643W        W45117   3.293   7.514   3.340  0.2037  0.0300  0.2161
28644W        W45118   6.528   3.354   1.048 -0.0981  0.0658  0.0579
28645W        W45119   1.605  17.346  15.953  0.1763  0.2964  0.4291
28646W        W45120   6.669   3.823   2.477 -0.1110  0.1192 -0.0239
28647W        W45121  12.344  10.712   3.453  0.0385 -0.0198  0.3443
28648W        W45122   9.232   5.515  11.860  0.1305 -0.0819  0.1265
28649W        W45123  14.824   1.820  12.822  0.0263 -0.0768  0.2013
28650W        W45124   2.114  13.001   4.188  0.1222  0.2503 -0.0585
28651W        W45125   1.938   6.952   4.567 -0.0380 -0.0059  0.1832
28652W        W45126  14.208  10.342   1.661 -0.0170  0.0839 -0.1338
28653W        W45127  12.312  14.768  14.688 -0.0936  0.3170 -0.1138
28654W        W45128  14.632  11.289   6.419  0.1743 -0.0894 -0.1608
28655W        W45129  10.487  16.404   6.151  0.0440  0.0271 -0.2893
28656W        W45130   4.462   0.568  12.928 -0.0661 -0.0244 -0.2998
28657W        W45131   3.727   7.181   1.433  0.0949  0.1200  0.1588
28658W        W45132   8.700  13.898   1.356  0.1434 -0.1561  0.2395
28659W        W45133  10.357   6.177  14.444  0.2740 -0.2093 -0.0835
28660W        W45134  16.631   3.394   4.238  0.0902 -0.1393  0.2129
28661W        W45135   7.137   2.356   0.590  0.1193  0.0808 -0.1372
28662W        W45136   9.386   1.974   2.752  0.2736  0.0990  0.1572
28663W        W45137   3.777   2.439   0.205 -0.0507  0.0100  0.0782
28664W        W45138   2.766  11.527  13.139  0.0077 -0.0259 -0.0088
28665W        W45139   7.423  11.335  13.646  0.1294 -0.1705 -0.0726
28666W        W45140   9.066   0.444  13.111 -0.2913 -0.0082  0.1688
28667W        W45141   2.506   2.700   2.148  0.0903 -0.2756 -0.1718
28668W        W45142   8.676  14.167  13.239 -0.1165 -0.0163  0.2129
28669W        W45143  11.556  16.414  16.615  0.2623 -0.0619  0.0809
28670W        W45144   8.129  10.379   1.928  0.4674 -0.0964 -0.1420
28671W        W45145  13.614   2.436   3.884 -0.1740 -0.1098 -0.0055
28672W        W45146   3.956  13.981  12.580  0.1716 -0.1240  0.2955
28673W        W45147  16.122   9.453  12.067  0.1604  0.2096 -0.4294
28674W        W45148   2.603  10.726  14.406  0.0719 -0.0029 -0.0537
28675W        W45149  11.702   6.824  13.280  0.0509 -0.1039  0.0074
28676W        W45150   9.287   0.693   4.319 -0.2103 -0.1726  0.2632
28677W        W45151   1.811  11.948   4.428 -0.1843 -0.1760 -0.0206
28678W        W45152   5.465   3.888   0.636 -0.0224  0.0218 -0.0492
28679W        W45153   4.212  13.651  11.820  0.0840  0.0423  0.0944
28680W        W45154   4.350   7.641  15.140 -0.0081 -0.1082 -0.2463
28681W        W45155   3.295   1.811  15.315 -0.0550  0.1101 -0.2115
28682W        W45156   6.627   0.448   5.439 -0.3757  0.1314 -0.1926
28683W        W45157   6.323  14.414   4.752  0.1429 -0.0256  0.0009
28684W        W45158   2.085   4.325   0.006  0.0067  0.0718  0.0991
28685W        W45159   2.697   1.279  16.613 -0.0373  0.2394  0.0441
28686W        W45160   7.739  11.650  13.499 -0.2167 -0.2223 -0.2285
28687W        W45161  10.935  14.772   1.816 -0.2285 -0.0084  0.0005
28688W        W45162  13.642   4.396   3.652  0.0728  0.3954 -0.0147
28689W        W45163  17.824   3.980   1.388 -0.2918  0.0833  0.1269
28690W        W45164  13.150  14.370   0.873 -0.1643  0.2200  0.0081
28691W        W45165   4.115  15.185  11.975  0.0039  0.1239 -0.4406
28692W        W45166  17.826   1.995  12.191  0.0707 -0.1978  0.1182
28693W        W45167  14.248   7.505  11.520 -0.1449 -0.0794 -0.3849
28694W        W45168   9.640   4.938   3.514 -0.1275 -0.1341 -0.1348
28695W        W45169   4.356   2.062   4.877 -0.2190  0.3803  0.0432
28696W        W45170   2.213   1.870  12.393  0.1160 -0.1525 -0.1068
28697W        W45171   8.786   4.804  13.310 -0.3432 -0.1644 -0.2429
28698W        W45172   7.630   5.776  14.572  0.0551 -0.1976  0.0439
28699W        W45173   4.270  10.491  11.646 -0.2314 -0.0597 -0.1817
28700W        W45174  10.132   8.012   0.022 -0.1440  0.0524 -0.0772
28701W        W45175  10.036   7.311   2.649 -0.2104 -0.0234 -0.2736
28702W        W45176   8.337  15.995  11.977 -0.0711 -0.0528 -0.0227
28703W        W45177  17.230  16.626   5.593 -0.3775  0.0362  0.2047
28704W        W45178   6.100  17.704  12.810 -0.0358  0.1172 -0.0957
28705W        W45179   7.846   0.104  11.742  0.3214 -0.0006 -0.1130
28706W        W45180   1.859   7.795   3.369  0.3120  0.0440 -0.0863
28707W        W45181  13.368  15.770  14.632 -0.0883 -0.1943 -0.0970
28708W        W45182   0.400   2.875  12.344  0.1027 -0.1525 -0.1474
28709W        W45183   8.395   1.351  14.115 -0.1059 -0.3797 -0.0017
28710W        W45184   1.100   3.571  16.849 -0.0075 -0.2530 -0.0571
28711W        W45185  17.665   0.604  15.022  0.0477 -0.0888 -0.2240
28712W        W45186  12.760   4.636  12.451  0.2243 -0.0234 -0.0898
28713W        W45187   0.200   1.534  15.161  0.2546 -0.1319  0.0234
28714W        W45188   1.018   7.587  14.113 -0.1217 -0.3142  0.0752
28715W        W45189   5.766  13.393  16.421 -0.0750  0.0060 -0.0487
28716W        W45190   6.329   4.658   0.684  0.0124  0.1892 -0.2273
28717W        W45191  16.747  16.498   2.842 -0.2518  0.1400 -0.1493
28718W        W45192  14.138   2.291  16.833  0.1124  0.2361  0.0520
28719W        W45193  17.432   4.703   0.484  0.1749  0.0303  0.2439
28720W        W45194   6.159   1.469   1.259  0.0678 -0.0086  0.5831
28721W        W45195  11.060   2.348  15.855  0.2258 -0.0710 -0.1734
28722W        W45196  16.130   8.491  12.250 -0.0949  0.1096 -0.1267
28723W        W45197  11.144   7.507   5.547  0.1071  0.2279 -0.0979
28724W        W45198  17.613  10.077  14.898  0.0681 -0.0391  0.1341
28725W        W45199  16.681  16.290  12.010  0.0630 -0.0454  0.2466
28726W        W45200   7.939  13.741   0.781 -0.2351  0.0597  0.1399
28727W        W45201  16.164  11.327  16.217 -0.2230  0.1965  0.0028
28728W        W45202  10.520  16.504   3.671  0.2333 -0.0575  0.0811
28729W        W45203  12.008  14.622  16.519 -0.2530  0.0740  0.0148
28730W        W45204  11.067   1.548  13.696 -0.0326  0.0405  0.1298
28731W        W45205  17.151  12.176   3.662  0.0311 -0.0414 -0.0268
28732W        W45206   4.799  15.686  16.727  0.2810 -0.0233 -0.0074
28733W        W45207  16.256   7.224  12.001 -0.0550  0.2264  0.1619
28734W        W45208   4.276   4.006  12.619 -0.0979  0.0750 -0.4265
28735W        W45209   3.926  15.573   0.371 -0.0167  0.0158  0.1590
28736W        W45210   3.345  14.533   4.532 -0.0928 -0.0585 -0.0387
28737W        W45211  14.019   4.794  15.661 -0.1526 -0.1032  0.2208
28738W        W45212  14.075   7.000   3.525  0.0293  0.1455  0.0683
28739W        W45213   2.108  12.695   3.666 -0.0151 -0.2803  0.1499
28740W        W45214   5.049  12.058   3.329  0.3681  0.1965 -0.2471
28741W        W45215   2.212  14.682  14.407 -0.1309  0.1187  0.0202
28742W        W45216   3.468  13.176  16.774  0.0283 -0.0275  0.3443
28743W        W45217  13.545   4.079   4.128 -0.0254  0.2784 -0.0817
28744W        W45218   5.866   8.105  15.397 -0.0893 -0.1714 -0.2078
28745W        W45219   6.599  15.054  16.282 -0.0483 -0.0550  0.4783
28746W        W45220  16.110  12.505   1.692 -0.1599  0.1802 -0.0983
28747W        W45221  14.810  16.328   0.306 -0.0619  0.2080 -0.0400
28748W        W45222  11.699   3.077  12.873  0.1964 -0.1903  0.1158
28749W        W45223  13.543  15.826   2.373 -0.1747  0.3728 -0.1659
28750W        W45224  10.738   8.431   4.190 -0.0053  0.4798 -0.2706
28751W        W45225  12.490  14.856  13.935 -0.2035 -0.1967  0.1005
28752W        W45226  16.747  11.264   0.140  0.1371 -0.4910  0.1771
28753W        W45227   6.556   7.210  13.292  0.1042  0.1414  0.0596
28754W        W45228   0.884  14.093   2.492  0.0242 -0.0664 -0.0782
28755W        W45229  12.477   2.975   3.830 -0.0274  0.0625  0.1785
28756W        W45230  14.084   8.601  15.501  0.0601  0.4219 -0.1481
28757W        W45231   5.020  13.581  12.175 -0.1574 -0.1157 -0.0479
28758W        W45232  10.848   3.482   6.372  0.1142 -0.0278 -0.1156
28759W        W45233  11.104   8.821   1.827 -0.0890  0.0317  0.0084
28760W        W45234  12.747   5.139  12.954 -0.3475 -0.4237  0.1634
28761W        W45235  12.677  14.053  12.428 -0.0087  0.2516 -0.2081
28762W        W45236  13.012   2.365  13.630 -0.0723 -0.2695 -0.3034
28763W        W45237  17.686   6.640  13.798 -0.1737  0.1033  0.1474
28764W        W45238  10.881  13.247  15.611  0.2739 -0.0806  0.2547
28765W        W45239   5.475   0.740  12.053 -0.0357 -0.2153 -0.0151
28766W        W45240   1.413   6.055  16.897  0.2361 -0.0399 -0.0525
28767W        W45241  15.184   9.178  12.989  0.2305  0.1789  0.1635
28768W        W45242   9.970  11.649  16.285  0.2497  0.1108 -0.1805
28769W        W45243   4.881   8.666   0.857 -0.1781  0.0297  0.1151
28770W        W45244  11.419   5.960   3.432  0.0035 -0.1950  0.2456
28771W        W45245  15.341   5.207  15.568  0.4628  0.1820  0.1840
28772W        W45246  17.772  15.622   4.698 -0.0315 -0.1215  0.2674
28773W        W45247  16.652  16.209   0.839 -0.2176 -0.1752 -0.2976
28774W        W45248   0.945  10.618  15.651  0.1163 -0.3107  0.3235
28775W        W45249   4.320   6.357  15.600 -0.1619 -0.1079  0.2877
28776W        W45250  15.529   6.402   1.693 -0.0891  0.2300  0.0034
28777W        W45251  17.822  13.339   4.151 -0.0058  0.0122 -0.5685
28778W        W45252  12.313   9.345  11.727 -0.1742  0.1156  0.1539
28779W        W45253  12.385  16.520   2.249  0.0984 -0.1191 -0.1515
28780W        W45254  17.786   9.453   0.095  0.0769  0.0630 -0.1202
28781W        W45255   3.366   0.783  12.527 -0.1754  0.1681 -0.0568
28782W        W45256   5.685   7.210   4.858  0.1659 -0.1966  0.0359
28783W        W45257   5.150  10.024   1.922  0.2078  0.3285  0.1968
28784W        W45258  16.737  13.458  12.323 -0.3358 -0.0227  0.2865
28785W        W45259   6.519   5.348   4.194  0.2114  0.1337 -0.4947
28786W        W45260   6.038  12.515  13.815  0.2431 -0.0598 -0.0941
28787W        W45261  16.353   7.857  12.780 -0.0198 -0.1254 -0.2139
28788W        W45262  14.786   6.730  11.840 -0.1591  0.0362  0.2510
28789W        W45263   9.700   2.907   5.565 -0.2344 -0.0438  0.2099
28790W        W45264   4.425   3.895   2.725  0.1231 -0.0473 -0.0507
28791W        W45265  13.357   6.949  12.400 -0.3816  0.0906  0.0579
28792W        W45266  17.453   4.585   4.223 -0.1395  0.1470 -0.1811
28793W        W45267   8.609   3.653   0.303  0.0904  0.1393  0.3533
28794W        W45268   6.398   7.358  15.466 -0.1588 -0.1677 -0.3309
28795W        W45269  15.706  13.788  13.797 -0.0533  0.0976  0.3066
28796W        W45270  16.271  13.229  12.088 -0.0623  0.3457 -0.2055
28797W        W45271  15.309  16.807   2.972 -0.0732  0.1252 -0.0983
28798W        W45272   4.754  15.134   3.399  0.1112  0.0720  0.2005
28799W        W45273   7.899  10.743   1.386  0.0053  0.1365  0.2351
28800W        W45274   9.902  13.585  16.327 -0.2902 -0.0045 -0.0444
28801W        W45275  17.077  16.514  16.846  0.1403  0.0947  0.1874
28802W        W45276   6.781  13.780  15.226  0.0744  0.1903 -0.2529
28803W        W45277  10.626  11.691  14.694  0.1881 -0.2562 -0.2964
28804W        W45278   1.212  11.632  15.206 -0.2066 -0.0416 -0.2234
28805W        W45279  13.679   9.329   2.082 -0.0981 -0.1032 -0.2962
28806W        W45280  12.330  10.780  14.837 -0.1682  0.3460  0.1822
28807W        W45281   0.613   4.193   2.611  0.3606 -0.0254 -0.2135
28808W        W45282  12.664  15.084   2.772 -0.0692  0.1869 -0.3437
28809W        W45283  11.450   3.948  15.886  0.2254 -0.1978 -0.1446
28810W        W45284   3.067  13.250   2.849  0.0233 -0.0400  0.0601
28811W        W45285  13.781  16.108   5.894  0.2789  0.0087  0.2003
28812W        W45286   1.174   0.450   1.246 -0.0663  0.0715  0.0433
28813W        W45287  10.665  12.833  14.565  0.0267  0.0105 -0.0491
28814W        W45288   6.383  13.262   1.676 -0.0368  0.0887  0.0823
28815W        W45289   6.999   3.447   2.229  0.1544  0.0640  0.0440
28816W        W45290   9.908   0.519   2.852 -0.1739  0.1950  0.1197
28817W        W45291  14.895  16.685   1.959 -0.2120 -0.1097 -0.0067
28818W        W45292   3.426  16.398  14.706  0.0478 -0.0864  0.0826
28819W        W45293  16.214   6.085  13.050  0.0810  0.2305 -0.1859
28820W        W45294   1.724   5.458   3.689  0.3826 -0.0557  0.3668
28821W        W45295  10.568  14.252  14.822 -0.2188 -0.2931 -0.0548
28822W        W45296   7.154   7.677   0.338  0.0806 -0.0031 -0.0291
28823W        W45297  12.945  16.837  12.263  0.0726  0.2643  0.0548
28824W        W45298  16.162  10.655   3.939 -0.1689 -0.0096  0.0505
28825W        W45299  12.591   9.658  12.283 -0.0662 -0.0842  0.1934
28826W        W45300   2.482   9.155  16.072 -0.0376 -0.1385  0.0703
28827W        W45301  16.184   2.327  16.187  0.0662  0.1748  0.2596
28828W        W45302  16.984   5.539   4.915  0.0280 -0.2316 -0.2660
28829W        W45303  12.190  15.664   3.870  0.3741  0.1624 -0.0152
28830W        W45304   0.511   3.644   2.820 -0.0260 -0.0973  0.4764
28831W        W45305   7.395   4.211  13.217 -0.0459 -0.4020  0.2462
28832W        W45306  14.557  13.413   5.454  0.0394  0.0569 -0.1290
28833W        W45307  17.770   3.411  15.413  0.2041  0.0241 -0.0088
28834W        W45308   8.580  16.734   2.270  0.1111  0.0307  0.4424
28835W        W45309  11.161  10.459  16.771 -0.0438  0.1227  0.2128
28836W        W45310  15.730  10.195   2.644 -0.1038 -0.1378  0.1864
28837W        W45311   2.837  14.941   1.424  0.2793  0.3143  0.1236
28838W        W45312   0.962   0.771   0.717  0.3143  0.2597  0.0972
28839W        W45313   1.980   3.429   3.206 -0.1752 -0.1476 -0.2863
28840W        W45314   5.697   8.707   1.535  0.3395  0.1673  0.1221
28841W        W45315  13.036  15.351  16.323 -0.0466  0.3418 -0.3805
28842W        W45316   7.973   2.989  15.403  0.0239  0.1496  0.1753
28843W        W45317   3.316   7.217  15.317  0.1892  0.2538 -0.1110
28844W        W45318   5.698   1.298   2.393  0.0984  0.0649 -0.2641
28845W        W45319   7.733  17.438  11.956 -0.0868  0.1310 -0.0970
28846W        W45320  15.395   7.356  15.936  0.0593  0.2604 -0.0598
28847W        W45321  15.822   5.874   0.716  0.1865  0.0776  0.2787
28848W        W45322   5.874   7.905   1.089  0.0798 -0.2171 -0.1744
28849W        W45323  17.540  10.861   0.394 -0.2527  0.0611  0.0126
28850W        W45324  12.480  12.738   6.124 -0.1298  0.0817  0.1740
28851W        W45325   5.558  17.160   3.302  0.2503 -0.0309  0.0254
28852W        W45326  10.004  14.569  11.348  0.0256  0.0781 -0.0028
28853W        W45327  12.851   2.232   4.539  0.0631 -0.1353  0.2462
28854W        W45328  11.625  10.583  13.933 -0.1634  0.1389  0.2478
28855W        W45329  14.351   7.177  11.901 -0.0574 -0.1129 -0.0406
28856W        W45330   6.016   1.326  14.696 -0.0472 -0.2892 -0.0113
28857W        W45331   1.993  17.339  15.615  0.3786  0.0099 -0.0283
28858W        W45332   9.441  11.834   0.734 -0.2473  0.2307 -0.0015
28859W        W45333  10.668  16.694   0.386 -0.1285 -0.0125  0.1121
28860W        W45334   9.574  12.616   1.383 -0.0215  0.0036  0.0439
28861W        W45335  10.552  17.414  14.931 -0.3209  0.1601  0.1446
28862W        W45336   4.955  13.798   4.799 -0.1323 -0.1756 -0.0485
28863W        W45337  15.286  10.981  13.425  0.0583 -0.0436 -0.0015
28864W        W45338   3.807   8.907  14.933 -0.3732  0.1109  0.1414
28865W        W45339  15.558   0.120  15.164  0.0950  0.0403 -0.0024
28866W        W45340   7.013   6.674  16.452  0.2869 -0.0556  0.1575
28867W        W45341  15.076  10.922   1.473  0.3266  0.1306  0.0609
28868W        W45342   4.599   5.050  12.494 -0.1482 -0.0390 -0.2345
28869W        W45343   7.396   4.859   4.802  0.1276  0.0993 -0.0738
28870W        W45344   9.817  17.564   2.932  0.3058  0.1735  0.0064
28871W        W45345   7.813  17.667   2.982 -0.0070  0.3161  0.1813
28872W        W45346  13.213  17.459   2.550  0.1346 -0.2124 -0.0468
28873W        W45347  16.509  14.291  16.593  0.0230 -0.2179  0.2427
28874W        W45348  17.114  10.961  12.297 -0.1169 -0.2128  0.0125
28875W        W45349  13.130  16.305   4.108  0.1603  0.1944  0.1983
28876W        W45350  10.402  10.708  12.262  0.0790 -0.1654  0.0169
28877W        W45351   4.608   1.303   5.423 -0.2704  0.0588 -0.2359
28878W        W45352   0.249   0.824   3.558  0.1100  0.0671 -0.0565
28879W        W45353   1.654  12.966   0.049  0.0703  0.0673  0.1114
28880W        W45354  17.782  17.335  16.852 -0.0364 -0.1368 -0.0838
28881W        W45355  11.279   2.512   0.333 -0.2389 -0.3410  0.0591
28882W        W45356   9.395  13.259  14.899  0.0485 -0.2243  0.0391
28883W        W45357   2.100  14.321   3.325 -0.1109 -0.0650  0.0273
28884W        W45358  17.562  14.950   3.721  0.0251  0.4286  0.2131
28885W        W45359  14.436   0.034  11.944  0.2470  0.1253 -0.2387
28886W        W45360  11.470   5.429   1.045  0.2191 -0.2609  0.0917
28887W        W45361  17.778   2.312   2.479  0.0378  0.1512  0.0822
28888W        W45362   5.076  11.148   4.444 -0.0493 -0.1911  0.0061
28889W        W45363   2.780  17.725   3.156 -0.1488  0.1079  0.0747
28890W        W45364   3.318  10.934  15.760  0.3950  0.1758 -0.1287
28891W        W45365   8.227   0.010   4.318  0.3800  0.0060 -0.0117
28892W        W45366  10.423   1.990   0.572  0.0788  0.2043  0.0194
28893W        W45367  11.042   2.688  10.804 -0.4576  0.1356  0.4794
28894W        W45368   0.061   0.873  15.938  0.1884  0.1123  0.0441
28895W        W45369   3.239  14.291   4.944  0.1497  0.0395 -0.3727
28896W        W45370   7.682   6.235   0.933 -0.0466 -0.2095  0.1634
28897W        W45371   1.732  16.540  12.373  0.2684  0.1676 -0.1971
28898W        W45372   2.793   6.243   4.677 -0.0314  0.1843 -0.1810
28899W        W45373  12.133   5.929  11.877 -0.0436  0.0348  0.3269
28900W        W45374  17.430   2.504   3.749 -0.1339 -0.3010 -0.0684
28901W        W45375  15.145   7.377  13.636  0.2920 -0.0635 -0.4079
28902W        W45376   5.618   6.060  13.966  0.0241 -0.2502 -0.0254
28903W        W45377   3.766  17.119  13.124  0.0162 -0.2028  0.1453
28904W        W45378   2.958  12.605   2.340  0.0899 -0.3016 -0.0071
28905W        W45379   8.174   2.489  13.334 -0.3357  0.0846  0.1659
28906W        W45380   1.718   0.424  16.754  0.0907  0.1229 -0.2208
28907W        W45381   0.288  10.845   2.580 -0.1761  0.2481 -0.1541
28908W        W45382   8.120   7.777  16.132  0.0436 -0.0850  0.1571
28909W        W45383  11.542  10.649   1.212  0.2229  0.1586  0.1285
28910W        W45384  15.718   3.588  14.996 -0.1299  0.0686 -0.2465
28911W        W45385  11.654   6.651   3.917 -0.0006  0.2862 -0.1245
28912W        W45386  14.669   9.784  14.503  0.0074  0.2381  0.0431
28913W        W45387  13.638   0.430  13.011 -0.0501 -0.0901  0.1913
28914W        W45388  12.158  10.070   4.909  0.0819 -0.2950 -0.2169
28915W        W45389   9.967   1.757   5.573  0.1114  0.3037 -0.1846
28916W        W45390  13.771  13.014   5.084 -0.0233 -0.2102  0.0749
28917W        W45391   0.903   8.061  11.935 -0.0036 -0.1258 -0.0108
28918W        W45392  16.934  16.356   1.731 -0.0850 -0.1716  0.1082
28919W        W45393   1.260  14.750   5.398 -0.2426 -0.1556  0.2045
28920W        W45394   0.759  14.916   4.110 -0.2188 -0.0181 -0.2204
28921W        W45395   9.127   6.980   2.137 -0.0772  0.0968  0.2080
28922W        W45396   1.319   4.053   5.428 -0.3142 -0.2235 -0.0068
28923W        W45397   8.803  13.980   5.522  0.0812  0.4255 -0.2942
28924W        W45398  17.597   2.263  13.304 -0.0135  0.3608 -0.3177
28925W        W45399   9.738  14.135   3.070  0.4155 -0.1304  0.0971
28926W        W45400   8.966   7.921   2.527  0.0264  0.0422 -0.0673
28927W        W45401  17.441  15.706  13.846 -0.1319  0.2106 -0.0910
28928W        W45402   5.901   1.780  12.846  0.0309  0.2443  0.0157
28929W        W45403   5.983   2.099   2.875  0.2046  0.1231 -0.2371
28930W        W45404  14.290  16.906   1.319  0.2754 -0.0456 -0.1527
28931W        W45405   8.407  11.663   2.200  0.0322 -0.0270  0.1492
28932W        W45406  13.782   6.421  15.155  0.0429 -0.3875  0.0995
28933W        W45407  12.511  12.454   3.802 -0.2047 -0.1395 -0.3824
28934W        W45408  16.018   0.711   1.427  0.3438 -0.0258  0.4527
28935W        W45409  14.537  16.692   4.853  0.0216 -0.0367  0.0841
28936W        W45410   3.092  12.093  12.458 -0.0785 -0.3031 -0.1014
28937W        W45411   3.538  10.814   0.736  0.2089 -0.1672 -0.2347
28938W        W45412  13.875   8.217  13.712  0.0501 -0.0178  0.0612
28939W        W45413   0.944   3.588   5.292  0.0365 -0.1043  0.0286
28940W        W45414  17.335  16.755   5.053 -0.0097 -0.0573 -0.1017
28941W        W45415   5.907  16.675  14.017  0.2394 -0.1882  0.1378
28942W        W45416   3.573  13.797  13.556 -0.1280 -0.2061  0.0921
28943W        W45417  10.231   1.431  14.025  0.2947  0.2717 -0.0057
28944W        W45418   6.065  10.686  16.475 -0.0032  0.1344 -0.1068
28945W        W45419  14.913  10.266   5.534  0.2323  0.1993  0.0325
28946W        W45420   3.727   1.204  12.609  0.4519  0.0750  0.0387
28947W        W45421  16.816   5.882  11.647 -0.2318 -0.0603  0.0869
28948W        W45422   2.095  14.131  11.021  0.2343  0.0097  0.0043
28949W        W45423  17.201  11.172  13.521  0.1495  0.1033 -0.1663
28950W        W45424  16.035  11.922   5.676 -0.1565  0.0242 -0.1256
28951W        W45425   6.834  11.629   0.153 -0.1092 -0.1246  0.2466
28952W        W45426   0.396   2.767   4.245 -0.3719  0.2545  0.0723
28953W        W45427   7.545  11.173   6.093  0.0950  0.1251 -0.2561
28954W        W45428   1.047  16.635   0.055 -0.3754 -0.1587 -0.0643
28955W        W45429   1.358  11.465   0.913  0.2116 -0.4198 -0.1302
28956W        W45430   9.570  16.079  12.463  0.4206  0.0844 -0.0211
28957W        W45431   0.523   9.624  14.888  0.1083  0.0428  0.1087
28958W        W45432   6.022   5.154  11.813 -0.1060 -0.1617  0.3131
28959W        W45433  14.591   3.257  16.009  0.4144 -0.3931  0.1117
28960W        W45434   6.863   7.709   1.405  0.3566  0.1256  0.1549
28961W        W45435   0.579   2.221   4.478  0.1403 -0.0150  0.1492
28962W        W45436   7.665   5.172  15.393  0.2398 -0.0328  0.3711
28963W        W45437   8.421  17.184   1.221 -0.0477 -0.0118 -0.2122
28964W        W45438  13.051  17.670  16.363 -0.1354 -0.3318  0.1792
28965W        W45439   2.296   5.999   0.382  0.1416  0.0685  0.3625
28966W        W45440  11.200   7.119   1.620 -0.2410  0.1289  0.0823
28967W        W45441   0.700  14.827   0.729  0.1967  0.0110  0.2034
28968W        W45442   9.689  14.781   3.082  0.2642  0.0082 -0.0933
28969W        W45443   0.986  12.130  15.671  0.0774  0.0242 -0.1539
28970W        W45444  13.351  14.659   5.101 -0.1844  0.1371 -0.1550
28971W        W45445  13.009   8.781  15.760 -0.0170  0.0850 -0.0136
28972W        W45446   6.330  11.785   3.765 -0.0085 -0.2934  0.0133
28973W        W45447  11.743   8.662  14.402 -0.2503  0.1644 -0.3253
28974W        W45448   3.748   5.771  15.083 -0.1942  0.0579  0.0235
28975W        W45449  16.588   6.372   0.374  0.0609 -0.0416 -0.2468
28976W        W45450   1.214  16.102   5.110  0.2319  0.3575 -0.1323
28977W        W45451  13.253   8.847  12.693  0.2021  0.0856  0.1361
28978W        W45452   0.537   8.824   5.278  0.3234 -0.0523 -0.1220
28979W        W45453  14.943  12.308  16.157  0.1117  0.2101  0.1837
28980W        W45454   4.571  14.337   3.670  0.0103  0.0172  0.2065
28981W        W45455   1.680  17.662   0.201 -0.3950 -0.0007 -0.1066
28982W        W45456   9.858  15.440  12.920  0.2133  0.0518  0.3430
28983W        W45457  12.047  15.392   5.103  0.0691  0.0613  0.0677
28984W        W45458  13.082   9.407   2.848  0.2326  0.2752 -0.0316
28985W        W45459  11.534   3.028  15.194  0.2644  0.3734 -0.1851
28986W        W45460  10.644   6.786  16.880 -0.1649  0.0351  0.1042
28987W        W45461   2.216  12.351  13.354  0.0556 -0.1241 -0.1927
28988W        W45462   2.154  11.130  13.192  0.0707  0.2436 -0.1894
28989W        W45463  13.852   5.965  11.078 -0.0684 -0.3792  0.0484
28990W        W45464   3.066   6.954  14.393  0.3079 -0.0669 -0.0646
28991W        W45465   7.705   3.161   5.537 -0.1531  0.1188  0.0398
28992W        W45466   9.071  15.297   0.951 -0.2212  0.3770  0.0403
28993W        W45467   5.464  13.543  15.383 -0.0384 -0.1332  0.1777
28994W        W45468  17.028  13.631  11.432 -0.0789  0.2048  0.4202
28995W        W45469   7.412   8.751   0.571 -0.1331  0.1925 -0.0140
28996W        W45470  13.407   6.825   0.122  0.0957  0.0977  0.1330
28997W        W45471   3.740  11.307  13.725  0.1686  0.0284  0.0016
28998W        W45472   1.600   1.746   3.474 -0.0374 -0.0299 -0.0205
28999W        W45473   0.734   5.627   0.306 -0.1773  0.3244 -0.3614
29000W        W45474   2.283   8.857  15.693 -0.0243 -0.1849  0.2392
29001W        W45475   7.117  13.775  13.750 -0.3183 -0.4171  0.0241
29002W        W45476   8.348   4.072   2.363 -0.2129 -0.3468 -0.2251
29003W        W45477  12.311   8.936   4.562  0.0963  0.0266 -0.0748
29004W        W45478  16.535  14.401  12.444  0.0579  0.0838  0.2114
29005W        W45479  16.552  10.551  13.970  0.0873 -0.0449 -0.1257
29006W        W45480  14.328   5.575   0.887 -0.0983  0.1756  0.3223
29007W        W45481   2.088   9.840   6.016 -0.0128 -0.0086  0.0483
29008W        W45482   8.607  14.103  16.531 -0.2497  0.2833 -0.0261
29009W        W45483   4.210   9.195   0.482  0.0265  0.2596 -0.1531
29010W        W45484  16.986  12.691   1.752  0.0349  0.0410  0.0662
29011W        W45485  16.890   8.247   4.263 -0.1233  0.0040 -0.1593
29012W        W45486   9.229   0.534   0.480 -0.2589 -0.1164 -0.1707
29013W        W45487   7.775   1.728  11.887 -0.0007  0.1106  0.3329
29014W        W45488   6.922  11.602   5.227  0.1791 -0.2312 -0.0085
29015W        W45489   6.207  12.188  14.182  0.0456  0.4367 -0.0582
29016W        W45490  15.456  14.060   1.418 -0.0696 -0.0093 -0.0149
29017W        W45491  10.957  12.500  11.735  0.0581  0.1375 -0.0121
29018W        W45492   0.330   5.978   0.918 -0.2148 -0.1013 -0.1972
29019W        W45493  11.348   7.957   0.987 -0.0141 -0.1173  0.2246
29020W        W45494   0.935  10.384   0.238  0.2283 -0.1798 -0.2129
29021W        W45495   7.629   9.898  16.424 -0.0674  0.0287 -0.1028
29022W        W45496   7.261   6.762   4.966  0.1774  0.1997 -0.0490
29023W        W45497   1.323   4.706  14.193 -0.0604  0.1015 -0.2642
29024W        W45498   4.116   6.201  12.949  0.0234 -0.0923  0.0788
29025W        W45499  10.025   8.232  16.283  0.4063 -0.0488 -0.3779
29026W        W45500   5.409  17.035  15.228  0.0503 -0.1161  0.1110
29027W        W45501  14.718   6.768  15.134 -0.3230 -0.1149 -0.0535
29028W        W45502   9.740   6.375   1.276 -0.0239  0.3024  0.4223
29029W        W45503   9.127  12.457   4.249  0.2946  0.2181  0.1640
29030W        W45504   9.029  15.223  13.724 -0.1888  0.2258  0.4007
29031W        W45505   6.984  10.473  12.214  0.0055  0.1019 -0.0252
29032W        W45506  12.656   9.487   3.985 -0.0490 -0.0530  0.3836
29033W        W45507  14.878   6.137   1.283 -0.0334  0.0984  0.0761
29034W        W45508  10.524   3.860   0.976  0.4286 -0.0086 -0.0340
29035W        W45509   1.264  12.903   1.150  0.1004 -0.1929 -0.2244
29036W        W45510  10.771   5.169  12.532  0.0972 -0.1504  0.1504
29037W        W45511   3.337   7.308  12.991  0.1215 -0.0989  0.0739
29038W        W45512  13.641  17.497   5.643  0.1341 -0.0563 -0.1461
29039W        W45513   4.081  11.362   4.805 -0.1292  0.0460 -0.1972
29040W        W45514   6.143  10.390   3.885 -0.0414  0.0733  0.1794
29041W        W45515   5.312  17.242  14.291 -0.1837 -0.0082  0.0125
29042W        W45516   0.025  15.415   3.434  0.1534  0.0290  0.0219
29043W        W45517  13.669   7.955   4.172 -0.0994  0.1077  0.2531
29044W        W45518   6.281   8.010   2.720 -0.1795  0.0536 -0.0641
29045W        W45519  15.320   5.286  14.759 -0.0617  0.1394  0.1246
29046W        W45520   9.938   8.976   4.895  0.0890 -0.0260 -0.0320
29047W        W45521  14.761  12.797   4.494  0.3194 -0.1373  0.1038
29048W        W45522   1.655  10.479   5.237 -0.1391 -0.3534 -0.2527
29049W        W45523   6.736   6.211  12.426  0.1631 -0.2245  0.1220
29050W        W45524  13.100  14.035  14.880 -0.0481  0.0661  0.0478
29051W        W45525   3.350   9.321  10.427 -0.1396  0.0291 -0.1608
29052W        W45526   3.563  12.498   3.278 -0.5001  0.1531 -0.1773
29053W        W45527  15.483   8.797  15.958 -0.1621  0.0807 -0.1675
29054W        W45528  15.523   1.972  15.688 -0.2441  0.1062 -0.0713
29055W        W45529   5.691  14.556   0.938 -0.1640 -0.1732  0.3262
29056W        W45530   2.256   9.863  15.405  0.2008  0.0331 -0.0313
29057W        W45531  17.494   7.947   1.324 -0.2291 -0.1971 -0.2978
29058W        W45532   6.306   0.449  13.826  0.1373  0.0133 -0.0684
29059W        W45533  14.065   8.954   2.052  0.1513  0.0197 -0.0180
29060W        W45534  10.692  15.174   0.669 -0.2190 -0.0064  0.0446
29061W        W45535   5.949   9.479  12.087  0.0225 -0.2034 -0.0569
29062W        W45536   6.731   8.083   2.901  0.1637  0.1573 -0.0178
29063W        W45537  11.358   2.235   3.261  0.1989  0.1326 -0.0968
29064W        W45538   7.342   3.963   5.519  0.0801  0.1393  0.2687
29065W        W45539  17.458   1.454  15.075  0.0587 -0.1996 -0.0618
29066W        W45540  10.877  14.043  14.043 -0.2336 -0.0530  0.0036
29067W        W45541   9.204   1.287  12.067  0.0246 -0.0522 -0.2536
29068W        W45542  13.629   1.593   2.699  0.2416 -0.3814 -0.2934
29069W        W45543  14.676   4.499   5.872  0.5963 -0.0440 -0.2251
29070W        W45544   3.394   6.985   0.444  0.1411  0.3411  0.1098
29071W        W45545   4.641   7.669  13.026 -0.0869 -0.1880  0.0379
29072W        W45546   2.319  12.063   4.365 -0.0255  0.2060 -0.0313
29073W        W45547  10.571   1.746   5.396 -0.1127  0.0118  0.1774
29074W        W45548   0.101   8.496  14.417  0.1734  0.0400 -0.3915
29075W        W45549  14.631   5.159   0.544 -0.1978 -0.0993 -0.1912
29076W        W45550  15.592   2.599   0.027  0.1759 -0.1612 -0.1439
29077W        W45551  17.103  14.943  15.499  0.1431 -0.3820  0.1110
29078W        W45552  11.008  11.494  16.598 -0.0028  0.3857 -0.2855
29079W        W45553   1.115  12.502  16.233  0.0661 -0.0433 -0.1065
29080W        W45554   6.549  15.657   1.970  0.2417  0.0901  0.0674
29081W        W45555   8.900  13.013  14.550  0.1461  0.2747  0.3910
29082W        W45556  13.365  17.175   2.180 -0.1037 -0.0707  0.2190
29083W        W45557   2.058   9.748  14.590 -0.1278 -0.2567  0.0811
29084W        W45558   1.243  17.073   3.364  0.2383  0.2197 -0.1150
29085W        W45559   3.449   1.133  12.164  0.2035  0.1451  0.1421
29086W        W45560   6.785   4.668   0.914 -0.0915 -0.3047  0.0433
29087W        W45561  13.344  13.920   3.314 -0.1557  0.0334  0.1288
29088W        W45562   7.336  15.216   4.717  0.1121 -0.1213 -0.1994
29089W        W45563  17.350  11.248   4.169 -0.0811  0.2004 -0.0765
29090W        W45564  16.385   8.557   5.046 -0.2590 -0.0536 -0.5344
29091W        W45565   7.929   7.101  15.856  0.1896  0.1176 -0.0974
29092W        W45566  15.902  12.613  16.496 -0.1471 -0.0392 -0.0618
29093W        W45567   2.523   6.053   3.409 -0.1046  0.1795  0.0947
29094W        W45568   3.712   4.869  12.848 -0.1006  0.0866  0.0357
29095W        W45569  15.009   2.042  15.538 -0.4776 -0.2433  0.0481
29096W        W45570  15.963  15.403   2.974  0.1412 -0.0199  0.1536
29097W        W45571  13.468   2.224  16.889  0.1549 -0.0583 -0.1885
29098W        W45572  13.646   9.669   0.731  0.4375  0.0233  0.4397
29099W        W45573  14.969  15.233  11.555  0.2352 -0.0690  0.2164
29100W        W45574   8.087  11.181   4.757  0.2137 -0.0842  0.0633
29101W        W45575  13.566   4.913  13.786  0.2784 -0.1084 -0.4483
29102W        W45576  13.389  13.079   2.914 -0.0577 -0.0332  0.1875
29103W        W45577   1.850   1.711   1.411  0.1325 -0.3380 -0.1967
29104W        W45578   1.259  17.219  14.360 -0.0770  0.3446 -0.0770
29105W        W45579   9.132  17.790  12.438  0.1416 -0.0859  0.3310
29106W        W45580   1.555   6.554  15.951  0.0285 -0.0438  0.0823
29107W        W45581   8.676  11.400  13.255 -0.0490  0.0553 -0.1076
29108W        W45582   7.921  12.617  15.645 -0.2684  0.3446 -0.1081
29109W        W45583   5.158   6.498   5.731 -0.0137  0.0344  0.1820
29110W        W45584  16.345   2.588   5.975  0.0756 -0.1496  0.0527
29111W        W45585   8.359  14.650   0.663 -0.1620 -0.0888  0.3942
29112W        W45586   2.905  11.353  14.124  0.1517  0.0460 -0.0549
29113W        W45587  14.714  11.499  14.275  0.0788 -0.0533  0.2726
29114W        W45588   7.508  13.526   3.817 -0.1703  0.0055 -0.0138
29115W        W45589  17.259  12.151   5.364 -0.1417 -0.1576  0.1225
29116W        W45590   8.717   5.814   2.573 -0.0173 -0.0553 -0.0199
29117W        W45591  16.847   6.383   4.272  0.0497  0.0592  0.1902
29118W        W45592  10.124  10.449   5.076  0.0857 -0.0816 -0.1560
29119W        W45593  14.980   0.242  11.866 -0.4651  0.0087  0.3640
29120W        W45594  14.539  17.293  16.491 -0.3104  0.0356  0.0299
29121W        W45595  12.067   1.392  14.356 -0.0805 -0.2773  0.0438
29122W        W45596   7.318   9.282   1.162  0.1548  0.0445 -0.0552
29123W        W45597   3.458   0.422   1.577  0.1441 -0.1625 -0.0910
29124W        W45598  11.924  14.072   4.635  0.0905 -0.0333 -0.2286
29125W        W45599  15.713   8.667   5.934  0.0236  0.1775 -0.1536
29126W        W45600   5.689   9.086  16.295 -0.4397  0.3667 -0.1816
29127W        W45601  11.400   2.476   5.508  0.0129  0.3010  0.3135
29128W        W45602   1.520   0.461  11.949 -0.1740  0.2500  0.4335
29129W        W45603  13.198   7.707   4.079 -0.2528 -0.0253 -0.1380
29130W        W45604   5.818   8.587   0.961 -0.3377  0.2289  0.0553
29131W        W45605   2.352   4.181   5.469  0.3811 -0.2985  0.1009
29132W        W45606   1.555  13.247   5.271  0.0579  0.1318  0.3405
29133W        W45607   9.470   1.755  12.180 -0.3124 -0.0711 -0.1391
29134W        W45608  13.655   2.128   1.580  0.2187 -0.0031  0.0169
29135W        W45609  15.261   7.859   3.851 -0.0615  0.0519 -0.0172
29136W        W45610   1.159   3.323   5.793  0.2407 -0.1898  0.2992
29137W        W45611   7.407  13.767  14.546 -0.0747 -0.0779  0.0482
29138W        W45612  11.661   5.237  13.127  0.1157 -0.0235  0.3048
29139W        W45613   1.364  13.193  13.837  0.1642 -0.1760  0.1282
29140W        W45614   9.571   0.625  11.509  0.3048  0.0168 -0.1240
29141W        W45615   6.502  12.760   0.783 -0.3128 -0.2181 -0.0263
29142W        W45616  14.624   1.521   3.533  0.1015  0.0602 -0.1140
29143W        W45617   7.131   5.617  10.704 -0.3790  0.1930 -0.0158
29144W        W45618  16.784   3.940   0.709  0.0296 -0.0190  0.1146
29145W        W45619   6.140  17.824  14.467  0.1312  0.1483  0.0709
29146W        W45620  13.957   2.821  15.543 -0.0429  0.2798  0.3446
29147W        W45621  13.856  16.638  14.056 -0.1514 -0.0462 -0.2857
29148W        W45622   2.459  17.618   2.372 -0.2461 -0.1990 -0.0663
29149W        W45623   9.388  14.430   0.075  0.1342  0.1681 -0.2464
29150W        W45624  13.948   5.105   0.914 -0.1140  0.3675  0.0507
29151W        W45625   5.988   2.740  14.723 -0.1320 -0.0307  0.1245
29152W        W45626   6.624   3.406  16.549 -0.2023  0.0579 -0.0569
29153W        W45627  16.209   0.965   1.815 -0.0872  0.2794 -0.0043
29154W        W45628   1.168   8.010   2.009  0.3185 -0.0948  0.1144
29155W        W45629   9.051  14.986   5.810  0.2552 -0.0594  0.0859
29156W        W45630   9.202  11.610   5.232 -0.0463 -0.1687  0.1368
29157W        W45631   4.836  14.969   4.799 -0.2484  0.0186  0.0313
29158W        W45632  15.827  14.930  13.702 -0.1814 -0.3037 -0.0644
29159W        W45633  13.198   3.622   5.783  0.1725 -0.0250  0.0378
29160W        W45634   8.126  14.367   4.329  0.1799  0.1953  0.4924
29161W        W45635  17.501  14.855  16.409 -0.0958 -0.0455 -0.0246
29162W        W45636  13.384   1.378  16.310 -0.1324  0.2878  0.1670
29163W        W45637   5.234   0.311  16.332  0.1847 -0.0334  0.0820
29164W        W45638   2.020  15.859   3.183 -0.2825 -0.4879 -0.3014
29165W        W45639   7.538  11.421  12.579  0.0256 -0.2783 -0.2603
29166W        W45640  15.292   8.778  13.903 -0.0931 -0.1809  0.1725
29167W        W45641   1.855   6.342  11.994 -0.1326  0.0219 -0.0290
29168W        W45642  13.334   1.423  13.303  0.4102 -0.0858  0.3239
29169W        W45643  13.308   6.680   1.418 -0.0998 -0.0205  0.0145
29170W        W45644  17.068   3.316  12.893  0.0364  0.1971  0.2073
29171W        W45645   8.152  17.100  13.635 -0.1062 -0.0851 -0.2869
29172W        W45646   3.504   4.040   1.419  0.0395  0.1615  0.1389
29173W        W45647   3.844   3.538  15.694 -0.2320  0.0565  0.1311
29174W        W45648   4.944   2.378   5.471  0.0507  0.3684  0.2184
29175W        W45649   9.792  12.084  16.341 -0.0659 -0.1318 -0.0169
29176W        W45650   5.135  13.301   0.364  0.1638  0.0862  0.0166
29177W        W45651   4.385   0.834  13.981 -0.0440 -0.2698  0.0855
29178W        W45652   3.003  10.755  15.348  0.1275 -0.0895  0.1466
29179W        W45653  10.765  16.076   1.537  0.1667 -0.0149  0.1324
29180W        W45654  14.131  13.352   1.365 -0.1709 -0.0509 -0.0303
29181W        W45655  10.282  17.011   4.709  0.0728 -0.0139 -0.0459
29182W        W45656  11.503   4.393   5.669  0.0974  0.0579 -0.0858
29183W        W45657  14.990   5.047   1.439 -0.1503 -0.1668 -0.0276
29184W        W45658   8.805   3.793   3.809  0.1974 -0.1357 -0.3364
29185W        W45659   3.313   3.118   1.538 -0.0480  0.0936 -0.1737
29186W        W45660  11.298  11.316   6.475 -0.0144 -0.3974 -0.2956
29187W        W45661   2.654   0.583  14.334 -0.0656 -0.0598 -0.1879
29188W        W45662  11.523  13.710   3.934 -0.0035 -0.0765 -0.0597
29189W        W45663   8.400   5.577  13.539 -0.0240 -0.1477  0.2490
29190W        W45664   6.146  12.328   2.140  0.0142 -0.0211 -0.4049
29191W        W45665  11.332  15.557  16.669  0.4160  0.1711  0.4036
29192W        W45666   4.241  16.720  12.428  0.0013 -0.2395  0.0876
29193W        W45667   4.263  11.852  12.766 -0.0602  0.0556  0.0221
29194W        W45668  12.330  10.040   1.048  0.0648  0.2168  0.2519
29195W        W45669   3.432   2.947   4.577 -0.3069  0.3787  0.0878
29196W        W45670  17.408  15.446   1.655  0.0221  0.0335 -0.1939
29197W        W45671   7.114   2.291   6.256 -0.0653  0.0553  0.1278
29198W        W45672   8.565   1.733  10.790  0.2347  0.1552 -0.2120
29199W        W45673   1.427   3.142  13.223 -0.0308  0.1203  0.2580
29200W        W45674   4.210  17.517   2.717 -0.0621  0.0432  0.1242
29201W        W45675   7.638  12.566  15.200  0.0763  0.2846 -0.0560
29202W        W45676  12.087   2.993   5.764 -0.1319 -0.0504  0.3664
29203W        W45677   1.270   9.804  14.713  0.1251 -0.0626  0.3007
29204W        W45678  11.494  15.558   2.895  0.1672  0.1630  0.0921
29205W        W45679  13.727   5.962  11.934  0.1186 -0.1558  0.0058
29206W        W45680   9.302   0.048   0.669  0.1005  0.3971 -0.0505
29207W        W45681   2.493   0.134   2.726  0.0624  0.0771  0.2909
29208W        W45682   9.941   2.713   4.437 -0.0488  0.1579 -0.3024
29209W        W45683   3.169  16.562  15.974 -0.0122 -0.0991 -0.2782
29210W        W45684  12.516  14.527  12.565 -0.1771  0.0824 -0.1072
29211W        W45685  11.016  10.725   1.612 -0.1426  0.1651  0.0695
29212W        W45686  11.696   7.692  15.032  0.0594  0.0722  0.0232
29213W        W45687   3.081   8.332  13.260 -0.0699 -0.0297  0.2606
29214W        W45688  14.062   0.855  12.542  0.2117  0.0539  0.2630
29215W        W45689   2.174   3.646  13.234 -0.3075 -0.3148  0.0052
29216W        W45690  13.529   8.270   2.761 -0.1104  0.1722 -0.0999
29217W        W45691   7.563   7.268   5.656  0.0304  0.0077  0.1499
29218W        W45692  12.694  10.048  13.670  0.2948  0.2323  0.0672
29219W        W45693   5.338   7.023   1.338  0.1001  0.1544 -0.0277
29220W        W45694  16.303  15.079  14.328 -0.0269  0.0983 -0.3459
29221W        W45695   3.607  15.989   0.316 -0.0951  0.0812  0.2218
29222W        W45696  11.644  10.117   4.652 -0.0355 -0.2848 -0.3565
29223W        W45697  15.910   2.020   5.947  0.2211 -0.0661 -0.2674
29224W        W45698   3.580  15.296  16.619 -0.1191  0.2849  0.1054
29225W        W45699   3.414  11.362  14.862  0.1743  0.1426  0.4208
29226W        W45700  10.559   4.895   2.018  0.0393 -0.3659  0.0055
29227W        W45701   6.824  11.814   3.952  0.3181  0.3933 -0.1143
29228W        W45702   8.285   1.875   6.075  0.0174 -0.3293  0.0625
29229W        W45703   3.933  14.969  12.970 -0.1397  0.1173 -0.1582
29230W        W45704   0.894  13.724   4.572 -0.4673  0.1352  0.1361
29231W        W45705  12.045  15.122   3.301 -0.2333 -0.2133 -0.0289
29232W        W45706  11.659  12.534   5.111  0.1356 -0.0168  0.2438
29233W        W45707  17.402   1.874  14.169 -0.0525 -0.0676  0.0522
29234W        W45708  12.331  13.703  12.143 -0.5844 -0.1313  0.0867
29235W        W45709   1.161   3.032  16.383 -0.0683 -0.2924 -0.0389
29236W        W45710  10.399  12.132   6.266  0.4335 -0.0382 -0.0528
29237W        W45711  16.990  12.550  11.603  0.1292  0.1522 -0.0487
29238W        W45712  16.248   1.120   1.187 -0.0414 -0.1746  0.0376
29239W        W45713  17.305   5.202   5.029  0.0312  0.1716 -0.2207
29240W        W45714  12.706   8.665   5.902 -0.3144  0.0330  0.1088
29241W        W45715   6.581   7.749   3.584 -0.0149 -0.2289  0.1720
29242W        W45716  10.789   8.590  15.309 -0.2404 -0.4162  0.3617
29243W        W45717   5.852  14.595  13.761  0.0604 -0.3279  0.0898
29244W        W45718  10.816  16.227   3.316 -0.0937  0.2070 -0.1744
29245W        W45719  12.077  10.127   2.305 -0.0129 -0.1886  0.1834
29246W        W45720   1.408   1.771   0.019 -0.0818  0.0406 -0.1807
29247W        W45721   1.014  12.181   3.457 -0.0054  0.2472 -0.0610
29248W        W45722  15.340   8.885  15.481  0.0823 -0.2946  0.0954
29249W        W45723  17.053   4.829  13.017  0.0181  0.0960 -0.0082
29250W        W45724  16.503  15.514   3.649  0.2676 -0.0017  0.0119
29251W        W45725   9.919  11.183  12.898 -0.0611 -0.0343 -0.1171
29252W        W45726  17.443  10.781  15.454 -0.0142  0.0292  0.0800
29253W        W45727   3.797   1.815   3.058 -0.3786 -0.1394  0.2743
29254W        W45728   8.509   7.742  13.459  0.1268  0.0168 -0.1709
29255W        W45729   2.200   2.090   5.335  0.1285 -0.4484  0.0479
29256W        W45730  14.928   6.358   4.613 -0.1243  0.2863  0.0071
29257W        W45731  17.083   0.735  13.765  0.2568  0.0949 -0.4727
29258W        W45732  16.853  11.357  12.560 -0.0196 -0.0465 -0.0094
29259W        W45733   0.290   7.882   3.811  0.2062 -0.1784 -0.0415
29260W        W45734   5.592   9.096   3.039 -0.1354  0.0325 -0.1287
29261W        W45735   1.843   4.158   2.935  0.2206  0.1464 -0.0568
29262W        W45736   1.576  17.169  13.706  0.0385  0.0028 -0.0744
29263W        W45737  17.413   9.631   0.913  0.1941 -0.0688 -0.1202
29264W        W45738  13.285  10.411  13.276  0.1190 -0.1554 -0.1211
29265W        W45739  15.881   2.345   4.588  0.0039 -0.1375 -0.2092
29266W        W45740  15.071  17.793   4.241  0.0785 -0.0976 -0.0494
29267W        W45741   8.154   2.466   0.505 -0.0207 -0.1980 -0.1978
29268W        W45742   5.587   0.718  14.218  0.0908 -0.1645 -0.1871
29269W        W45743   1.415  12.192  14.934 -0.2538  0.2812  0.2443
29270W        W45744   4.546   3.131  16.341 -0.1884  0.1089  0.1484
29271W        W45745   3.134   5.099   4.224  0.2303  0.0829  0.0410
29272W        W45746  15.073  16.764   0.273  0.0312 -0.0017  0.1197
29273W        W45747   4.020   3.695   2.421 -0.2952 -0.0230  0.4736
29274W        W45748  16.573  10.022  14.024 -0.1223 -0.0232 -0.1559
29275W        W45749  15.192   6.688  14.448 -0.2842 -0.0580  0.2027
29276W        W45750  12.767  17.317  15.635 -0.2232  0.0974  0.0769
29277W        W45751   7.109   4.435  13.540  0.1832  0.1919  0.3962
29278W        W45752   1.611   3.032   1.048  0.4856  0.3857 -0.1078
29279W        W45753   6.334  16.089   2.135 -0.0964  0.1810  0.1226
29280W        W45754  16.109   9.312  13.737  0.0126 -0.2447  0.0932
29281W        W45755   0.287   6.721   1.358 -0.0591  0.1128  0.1945
29282W        W45756   6.741  15.690   3.496 -0.1651  0.1769  0.0055
29283W        W45757   6.154  14.235   2.166  0.3934 -0.0771  0.3078
29284W        W45758  11.521   6.151   1.656  0.1158  0.0209 -0.2559
29285W        W45759   3.124   8.951  16.351  0.0318 -0.0516 -0.1227
29286W        W45760  17.809  11.366  14.274  0.1078  0.2387  0.0858
29287W        W45761   9.614  15.049   0.093  0.0118 -0.1493 -0.3240
29288W        W45762   6.972   5.063   1.824 -0.3281  0.2167 -0.0880
29289W        W45763   5.873  16.535  12.201 -0.1311  0.1916  0.0363
29290W        W45764   6.960   0.441  15.788  0.0464  0.0864  0.0370
29291W        W45765   7.062   9.683  15.217 -0.1804  0.0509 -0.3461
29292W        W45766   0.566  12.347   5.151 -0.1880 -0.1450  0.2134
29293W        W45767   0.048  13.263   1.363  0.1977 -0.3860 -0.0590
29294W        W45768  15.021   5.358   5.219  0.0755  0.1229  0.0544
29295W        W45769  16.972   0.350  16.191  0.0928  0.2043 -0.1185
29296W        W45770  15.732  15.705   2.050 -0.0657  0.0655 -0.1122
29297W        W45771  10.053  13.165  12.589 -0.1205 -0.1219  0.0873
29298W        W45772  13.947   6.098   0.073 -0.0568  0.0701 -0.2043
29299W        W45773   5.050  16.330  14.232  0.1070 -0.0600 -0.1182
29300W        W45774   4.260  15.317  14.631 -0.1779  0.0098  0.1382
29301W        W45775  11.637  14.905   3.984 -0.2059 -0.0695  0.0865
29302W        W45776  10.506   1.851   3.493 -0.3262  0.2690 -0.2019
29303W        W45777  11.619  17.419   0.526 -0.0373 -0.0374 -0.3099
29304W        W45778  16.071   7.936   5.619 -0.1530  0.1164 -0.1254
29305W        W45779  17.417   6.736  13.031 -0.0919  0.1491 -0.0954
29306W        W45780  11.975  13.783  14.597 -0.1644  0.0650 -0.1999
29307W        W45781   9.534   8.295  16.477 -0.3497 -0.1846  0.0866
29308W        W45782   5.115  14.964  13.908  0.0139  0.1809 -0.3295
29309W        W45783  13.409  10.015  16.095  0.0042 -0.2232  0.2947
29310W        W45784   8.142   4.804   0.766  0.0212 -0.0755 -0.0671
29311W        W45785   9.952   8.579  13.199 -0.1910  0.1685  0.0013
29312W        W45786   3.186  11.603  12.466  0.1752  0.2457  0.0394
29313W        W45787   6.528   0.047   4.649 -0.0389 -0.2679  0.3624
29314W        W45788  13.100   6.309   3.551 -0.1248  0.2260  0.0080
29315W        W45789  11.246   1.268   3.816 -0.1742 -0.2027 -0.1703
29316W        W45790   0.500  12.409   5.626 -0.4183  0.0239  0.1121
29317W        W45791   5.240  14.506  13.696  0.0351 -0.0454 -0.1963
29318W        W45792  17.118   6.687   1.600 -0.3463 -0.0525  0.1155
29319W        W45793  12.481  12.563  13.548 -0.0598 -0.0717  0.1012
29320W        W45794   1.980   6.771  15.695  0.2416 -0.1539  0.1878
29321W        W45795   9.969   6.348   6.145  0.1774 -0.0609  0.0042
29322W        W45796  16.860  17.615   6.413  0.1147 -0.0990 -0.3704
29323W        W45797   8.805   4.021   5.647  0.0806  0.1683  0.3332
29324W        W45798  14.152  10.872   5.504  0.2532  0.1540 -0.1927
29325W        W45799   8.921  10.135  12.849 -0.0151  0.0519 -0.2496
29326W        W45800  10.186   5.629   4.019 -0.1198  0.0581 -0.1641
29327W        W45801   8.155   6.769   1.823  0.1643 -0.1270  0.3450
29328W        W45802   9.795  15.087   2.171 -0.0574  0.2058 -0.2909
29329W        W45803   2.313   0.743  11.777  0.1382  0.0124  0.1574
29330W        W45804  16.825  15.615   4.977  0.0814 -0.1525 -0.4136
29331W        W45805   1.039  16.128   4.210 -0.0808 -0.2027  0.1637
29332W        W45806   9.050  14.289  13.906 -0.3172 -0.3940  0.0615
29333W        W45807  14.634  16.515   2.374 -0.2079  0.3092 -0.0583
29334W        W45808   0.950   5.118   4.491 -0.0431  0.2316 -0.0185
29335W        W45809  15.731  13.056   5.707  0.0560  0.2116 -0.1155
29336W        W45810   7.317   4.022   0.569 -0.2732 -0.2026  0.0367
29337W        W45811  17.658   1.320   4.487  0.0284  0.0398 -0.2643
29338W        W45812   3.594   1.575  16.326  0.2471  0.0953 -0.1930
29339W        W45813  12.034   6.978  14.052  0.0584  0.1376  0.0045
29340W        W45814  15.280   4.083  13.073 -0.1935 -0.1715  0.0328
29341W        W45815   1.997   5.742  14.842  0.1229  0.0453 -0.1279
29342W        W45816  13.904  15.392   2.360 -0.0857 -0.2326 -0.0011
29343W        W45817   7.722   3.828   3.768 -0.0519 -0.0964 -0.0997
29344W        W45818   8.449   5.387  14.115 -0.0808  0.2017 -0.0645
29345W        W45819   2.492  16.441   0.264 -0.1300  0.0160 -0.1666
29346W        W45820   1.755  12.914  16.077  0.0513  0.0593  0.0017
29347W        W45821   9.012   2.733  14.030  0.1665 -0.1022 -0.0668
29348W        W45822  13.781  16.112  15.599  0.0797 -0.2014  0.1639
29349W        W45823  12.894  13.734  15.222  0.2769 -0.1453 -0.0062
29350W        W45824  15.879   0.573   1.954 -0.0623 -0.1317 -0.0879
29351W        W45825   8.511   6.502  12.090  0.0387 -0.1536  0.0513
29352W        W45826   9.276   9.252   1.691 -0.3602 -0.0927 -0.1469
29353W        W45827   0.939  13.155   5.315  0.0451 -0.1540  0.2318
29354W        W45828  17.562  15.246   2.126 -0.2032 -0.0048  0.1440
29355W        W45829   0.855   4.934   0.457  0.0879  0.0827  0.1011
29356W        W45830  13.544   9.286   3.081 -0.0905  0.2627 -0.2567
29357W        W45831  13.139   0.757  11.777 -0.2456  0.1215  0.2082
29358W        W45832  17.151  17.807  15.294 -0.1509  0.1461  0.4198
29359W        W45833   8.977   0.940   1.722 -0.2093  0.1758  0.1406
29360W        W45834  11.700   5.508   2.309  0.2984  0.0873 -0.1526
29361W        W45835  12.036   1.601  16.780  0.2435  0.3385 -0.0663
29362W        W45836   6.489  10.163   2.951 -0.1308 -0.2085 -0.0239
29363W        W45837  13.285   3.617   3.707  0.1179 -0.1670 -0.1669
29364W        W45838   7.969   3.008   3.330 -0.1079 -0.2214 -0.3888
29365W        W45839   5.574  10.899  13.689 -0.2620 -0.1479  0.1277
29366W        W45840   8.090  14.464  14.113  0.3970  0.0420  0.0048
29367W        W45841   3.660   8.539   2.125 -0.0789  0.0758  0.3715
29368W        W45842   2.149   2.231   2.100 -0.3051 -0.1836  0.1301
29369W        W45843   5.402   3.462   1.631 -0.2101  0.0608  0.0920
29370W        W45844  15.784   2.691  12.769  0.0962  0.1292 -0.0161
29371W        W45845  14.967  11.824  13.527 -0.0244  0.0509 -0.3086
29372W        W45846  13.817   0.341   3.975  0.3003  0.0557 -0.2436
29373W        W45847   2.349   7.038  12.006 -0.1750  0.0066  0.1948
29374W        W45848   0.763   3.154   5.378 -0.1544  0.2514 -0.0646
29375W        W45849   3.626  13.337   2.532  0.5178  0.1726 -0.0167
29376W        W45850   5.396  13.730   0.215 -0.0922  0.0481 -0.1586
29377W        W45851  13.003   7.133  14.060 -0.2289  0.1641  0.1335
29378W        W45852   1.802   6.062  12.522  0.2002  0.6145 -0.2218
29379W        W45853  11.138   4.702  11.961 -0.0365  0.2224 -0.0009
29380W        W45854  16.374   2.464   2.380  0.0785  0.1620  0.3584
29381W        W45855  10.487   0.807  16.778  0.0980  0.2491  0.0683
29382W        W45856  17.205   2.561  13.487 -0.0592 -0.1133 -0.1000
29383W        W45857   9.161  10.041  13.429  0.1021  0.0601  0.2037
29384W        W45858  10.561  14.911   4.823 -0.0203 -0.0411  0.2171
29385W        W45859   0.544   9.404   2.257 -0.1191  0.0283  0.0642
29386W        W45860   4.640   6.787   2.359 -0.0822  0.0380  0.0364
29387W        W45861   1.219  16.634   0.565 -0.2389  0.0377 -0.0893
29388W        W45862  15.605  13.955  16.498  0.1195  0.2279 -0.1409
29389W        W45863  14.871   2.846   0.808 -0.1941  0.0453 -0.0065
29390W        W45864   6.748   5.411  14.134  0.0495  0.0731 -0.1860
29391W        W45865   4.375  16.181   4.758 -0.2048 -0.1289  0.2179
29392W        W45866   2.757  14.844  12.478  0.0223  0.0446  0.1501
29393W        W45867   4.775   2.806  15.473  0.0759  0.1243 -0.1814
29394W        W45868   0.254  12.749  15.932 -0.0299  0.1741 -0.0605
29395W        W45869   0.490   8.213  14.761 -0.1555 -0.0105 -0.0312
29396W        W45870   2.808   5.682   3.121 -0.0665 -0.0977  0.0540
29397W        W45871   8.084   2.097  12.660  0.0847 -0.1901  0.0624
29398W        W45872   9.278   2.765   2.437 -0.1059  0.1374 -0.0484
29399W        W45873   9.945  10.530  12.073 -0.1135 -0.0614  0.0815
29400W        W45874   6.188  10.611   3.080  0.1268 -0.2413  0.0836
29401W        W45875   6.322  13.723  11.237  0.1159  0.0543 -0.1806
29402W        W45876  12.528  14.723   3.929 -0.1487 -0.1281  0.1353
29403W        W45877   8.278   8.035   5.447  0.2637  0.0321 -0.2663
29404W        W45878   4.849   3.485   1.095  0.2111 -0.0855  0.0186
29405W        W45879  13.160  10.282  14.858 -0.0813 -0.1053 -0.1259
29406W        W45880   7.656   9.932  10.617 -0.1258 -0.1016 -0.1525
29407W        W45881  10.299   7.230   4.002 -0.0144  0.5129  0.2209
29408W        W45882  16.456  14.158   0.219  0.0958 -0.0710  0.2000
29409W        W45883   9.887  12.361  12.662  0.0328 -0.1609 -0.1211
29410W        W45884   2.648   6.427   1.550 -0.0302 -0.1000 -0.0419
29411W        W45885   0.577  13.816   1.786 -0.3018 -0.0156  0.0081
29412W        W45886   9.910  15.715   4.883 -0.1350 -0.2249 -0.0454
29413W        W45887   5.013   0.440   5.422  0.1933  0.1475  0.2299
29414W        W45888  11.534   9.238   5.107  0.4748  0.2258  0.0476
29415W        W45889   1.826  13.615   1.657 -0.1041  0.0868 -0.0958
29416W        W45890   2.244   1.149  16.855 -0.2716  0.0183  0.2319
29417W        W45891   6.944  16.794   3.574  0.0047  0.0043 -0.1066
29418W        W45892   3.037  13.173   4.438  0.1447 -0.2323  0.1226
29419W        W45893  15.946   6.333   6.695  0.0081 -0.2082  0.0443
29420W        W45894   2.573  12.488  11.650 -0.0839  0.0911 -0.2465
29421W        W45895   7.271  11.665  15.365  0.2086  0.0060 -0.1842
29422W        W45896   3.466  17.163   1.113 -0.0131 -0.0937  0.0726
29423W        W45897  17.294   9.731  12.814  0.2182 -0.3508 -0.0050
29424W        W45898   2.583  17.395  15.159  0.1493  0.1703  0.2090
29425W        W45899   4.039   5.371  14.908  0.0380 -0.1517 -0.2776
29426W        W45900  12.535  15.538  15.776  0.0666 -0.0638 -0.0059
29427W        W45901  13.935   9.213  14.337 -0.2541  0.0497  0.0507
29428W        W45902   7.040  11.089  13.803 -0.0394 -0.2493 -0.1361
29429W        W45903   0.767  17.263   2.164  0.1026 -0.3607 -0.1064
29430W        W45904   1.808  17.370   3.448 -0.0527  0.1315  0.0898
29431W        W45905   5.459   8.877   5.569  0.1502 -0.0402  0.0621
29432W        W45906  17.199   4.402   5.204 -0.0302  0.3465  0.1427
29433W        W45907   0.638   6.498  14.917  0.3757  0.1617 -0.2742
29434W        W45908   9.007   5.069   3.962  0.2943 -0.2690 -0.1311
29435W        W45909   6.732   4.634   5.516  0.0193  0.4065  0.1934
29436W        W45910  16.508  10.374   1.943  0.2293 -0.0313  0.1114
29437W        W45911   9.669   3.066  15.358 -0.0661  0.1440  0.0626
29438W        W45912   8.211  15.549   4.990  0.0474 -0.0992 -0.2538
29439W        W45913  11.360   1.674   3.415  0.1370 -0.2515  0.1196
29440W        W45914   0.416  10.353   3.365  0.2213  0.0281 -0.0477
29441W        W45915   4.612  12.258   4.966 -0.1785  0.2709  0.0756
29442W        W45916   6.389   4.382   3.954  0.0159 -0.0313  0.1314
29443W        W45917   1.858  12.402  16.268  0.2081 -0.2058  0.3083
29444W        W45918   6.459  10.806  11.562  0.2728 -0.2420 -0.0247
29445W        W45919   1.682   7.218   5.284 -0.0802  0.0226  0.0345
29446W        W45920   5.371  16.253   0.887  0.0332 -0.2545  0.2439
29447W        W45921   8.801   5.287   0.190  0.1525  0.1350 -0.1568
29448W        W45922   8.622  16.827   1.745 -0.0973 -0.3873  0.0897
29449W        W45923   5.290   8.066   6.035 -0.0236 -0.2827 -0.1236
29450W        W45924  14.098  14.635  13.575 -0.1072  0.0451 -0.1305
29451W        W45925  14.989   0.395   6.147  0.2280  0.4286  0.1505
29452W        W45926  17.259  13.545   0.715  0.1041 -0.3177  0.0170
29453W        W45927  15.413   9.692  13.045  0.0879  0.0946 -0.0986
29454W        W45928   0.538  13.413  14.962  0.0839 -0.1745 -0.1736
29455W        W45929  15.860   2.531   5.040  0.0929  0.1764 -0.0705
29456W        W45930   8.594   3.543  11.587  0.2240  0.0153  0.0743
29457W        W45931   3.398   9.199  14.720 -0.2700 -0.3346 -0.1130
29458W        W45932   6.488  17.515   5.812 -0.2166 -0.1116  0.1407
29459W        W45933   5.922   1.168  16.632 -0.1983 -0.0499  0.1043
29460W        W45934   6.326  17.152   0.000 -0.2035  0.3940 -0.0163
29461W        W45935   3.944   3.812   0.303  0.4501  0.1674  0.2033
29462W        W45936   3.961  10.755  11.995  0.0987 -0.1493  0.2139
29463W        W45937   2.746   5.149   3.329 -0.1688  0.0474  0.2256
29464W        W45938   4.154  16.005   0.301  0.3175  0.0260  0.0456
29465W        W45939  11.723  15.190  16.620 -0.0004 -0.0969  0.0730
29466W        W45940  10.933   2.687   5.460 -0.2931  0.3115  0.0714
29467W        W45941   9.920   8.614  15.512  0.0970 -0.4491 -0.2074
29468W        W45942   2.344   8.669  13.677 -0.1930 -0.1020 -0.1864
29469W        W45943  12.555  16.318   3.223  0.0849 -0.0598 -0.1162
29470W        W45944  15.053  10.166   3.448  0.2369 -0.2202 -0.1037
29471W        W45945  12.427   6.349   0.926 -0.0675  0.1034  0.1474
29472W        W45946  17.645   3.380  12.803 -0.0484  0.1179  0.1146
29473W        W45947  12.502   1.112  14.112  0.0439  0.2261  0.0991
29474W        W45948   5.825  11.749  14.666  0.3565 -0.2859 -0.1881
29475W        W45949  15.295   7.097   0.213  0.1265 -0.0596 -0.0038
29476W        W45950   2.879  10.582   2.168 -0.0389  0.4885 -0.0845
29477W        W45951  16.130  13.020   2.786  0.0702 -0.2372 -0.0478
29478W        W45952  17.062   5.657   3.419 -0.0167  0.1985 -0.0573
29479W        W45953  17.326   1.093   3.814 -0.0171 -0.0880 -0.0017
29480W        W45954   1.716  14.992  16.682  0.0522  0.1982  0.1356
29481W        W45955  12.056  15.066  16.216 -0.0032 -0.0433 -0.1399
29482W        W45956   4.937   6.308   3.511 -0.0948 -0.2227  0.2923
29483W        W45957   5.042   5.088  15.689 -0.0554  0.0230  0.1532
29484W        W45958   6.063   5.858   1.475 -0.0308 -0.1132 -0.1224
29485W        W45959  16.923   3.099  12.189  0.2857  0.1292  0.0334
29486W        W45960   0.031   2.201   1.513  0.3839  0.1333  0.1894
29487W        W45961  17.745  10.954  15.943  0.0772  0.0177 -0.0725
29488W        W45962  11.011   2.847  14.627 -0.1686 -0.1120  0.1513
29489W        W45963  11.581   0.267  15.075  0.1920  0.1749 -0.2193
29490W        W45964   2.272  15.892  14.175 -0.1081  0.0421 -0.0306
29491W        W45965  12.108  11.711   4.859 -0.0235 -0.0131  0.1217
29492W        W45966  15.462  15.488   4.814 -0.2075  0.1268 -0.1896
29493W        W45967   3.171   4.829   0.288  0.2287  0.1826  0.2252
29494W        W45968  11.347   0.807  14.728  0.0267  0.2314 -0.2904
29495W        W45969   5.741  14.379   1.766 -0.2165  0.3878 -0.2338
29496W        W45970  12.180   5.994   5.965  0.1057 -0.0313  0.0268
29497W        W45971   5.106   8.698   1.624  0.0740 -0.0306 -0.1064
29498W        W45972   3.858  16.175  15.698  0.0306 -0.2136  0.0139
29499W        W45973  12.447  14.389   5.847  0.0697 -0.0408  0.2160
29500W        W45974   1.922   3.292  14.351 -0.3760  0.3128 -0.4759
29501W        W45975  14.573  13.013   1.980 -0.0814  0.2953 -0.1237
29502W        W45976  12.276   8.185   3.410 -0.1746  0.1531 -0.0398
29503W        W45977  17.505  15.077  11.849  0.0169  0.1527 -0.0181
29504W        W45978   6.237   6.555   3.202  0.1472  0.0046 -0.2657
29505W        W45979  15.194   3.688   5.868 -0.0739 -0.0203  0.1127
29506W        W45980   0.491  13.580   0.497  0.0367 -0.1230 -0.3815
29507W        W45981  14.090   3.252   3.339  0.0139 -0.0661 -0.1619
29508W        W45982  15.494  10.301  11.996  0.0902  0.2340  0.0584
29509W        W45983  17.607  13.295  16.774 -0.0020 -0.0330  0.1554
29510W        W45984  13.584   4.327   1.396 -0.1451 -0.1412  0.0634
29511W        W45985  16.106  16.118   4.634 -0.1425 -0.0102  0.0389
29512W        W45986   8.259  13.327  16.495  0.0553 -0.0197 -0.0194
29513W        W45987   1.386  14.290   3.803  0.1226  0.1820 -0.1342
29514W        W45988   2.508  11.031  11.886 -0.0546  0.3244  0.3459
29515W        W45989   4.526  17.384  16.218 -0.2820  0.0903  0.1016
29516W        W45990  17.792   9.113   0.985  0.1374 -0.3294  0.0763
29517W        W45991  15.682   1.922  13.131  0.2957  0.0724  0.0936
29518W        W45992   1.532  12.520   2.390  0.1774  0.1597  0.2633
29519W        W45993  16.981   1.679   1.632 -0.0867 -0.5683 -0.0616
29520W        W45994   5.387   3.048   5.240  0.0444 -0.2301  0.1382
29521W        W45995   9.041   0.854  14.587 -0.0482 -0.0393 -0.0689
29522W        W45996  17.177  13.842  14.541 -0.1635  0.0279  0.3580
29523W        W45997  17.429   4.045   3.285 -0.0071  0.0682  0.1823
29524W        W45998   5.680   8.022  15.956  0.0672  0.0935  0.1383
29525W        W45999   7.263   1.098   3.590 -0.1818  0.3644  0.1672
29526W        W46000  12.838   4.281   5.615 -0.1220  0.0313 -0.2690
29527W        W46001   2.371   9.738   2.433 -0.0475 -0.1499  0.0462
29528W        W46002   7.329  16.558   3.256 -0.1016 -0.0288 -0.3150
29529W        W46003   7.668   1.500   6.206 -0.3248  0.6074 -0.1872
29530W        W46004  11.271  15.872  11.697  0.1148  0.0701 -0.2815
29531W        W46005  12.921  15.497   6.240  0.2202 -0.1462 -0.0510
29532W        W46006   8.989   6.466   2.422 -0.2074 -0.1915  0.0014
29533W        W46007   5.720   4.422   4.758 -0.3658  0.0403  0.1960
29534W        W46008  11.597   4.908   0.164 -0.2318 -0.0199  0.0551
29535W        W46009  12.617   8.551  13.951 -0.0851  0.2450  0.1759
29536W        W46010  10.823   9.778   3.130  0.0539  0.0827 -0.0281
29537W        W46011  17.323   9.214   5.226 -0.1397  0.2723 -0.2948
29538W        W46012  10.247  13.427  13.765  0.4455  0.2076 -0.2402
29539W        W46013  11.381   9.606  11.636 -0.0588  0.0001  0.0776
29540W        W46014   0.011   1.922  12.832 -0.2449 -0.0139  0.1712
29541W        W46015  13.491  12.623   3.232  0.0620  0.4119  0.0768
29542W        W46016  13.502  16.253  14.173 -0.0716 -0.1586 -0.0196
29543W        W46017  16.168   2.818  16.371  0.1675 -0.0988 -0.0532
29544W        W46018   0.377   8.921  12.708 -0.1976  0.0943 -0.0370
29545W        W46019   6.222   6.190   2.834 -0.0865  0.0978 -0.1849
29546W        W46020   2.852   1.358   5.181 -0.0185 -0.1492  0.0061
29547W        W46021   4.414   0.690   2.523 -0.2841  0.0072 -0.3979
29548W        W46022  14.750  11.168   2.375  0.0305  0.1315  0.1646
29549W        W46023  12.730   8.174  16.640 -0.2138 -0.3054 -0.1521
29550W        W46024  12.538   4.275  12.800  0.3380  0.0480  0.1772
29551W        W46025   6.395  11.891   4.279 -0.1085 -0.0474  0.1639
29552W        W46026  13.337   3.654  14.125  0.1554  0.0456 -0.1227
29553W        W46027   0.203  10.484  15.027  0.0571  0.0621  0.0026
29554W        W46028   5.500  15.496   1.416 -0.0576  0.2216 -0.1720
29555W        W46029   1.252   4.229   1.502 -0.0062 -0.2299  0.0044
29556W        W46030  15.788   3.129  15.201 -0.0947 -0.0298 -0.0361
29557W        W46031   0.681  11.045   5.109 -0.0194  0.0570 -0.2178
29558W        W46032  16.749   1.958  12.941  0.1056 -0.1939 -0.0700
29559W        W46033   5.787  10.811   3.945  0.0560 -0.3671  0.0217
29560W        W46034  14.674   7.268  13.329 -0.1455  0.1129  0.0958
29561W        W46035  15.456   8.447   3.122 -0.0875 -0.4875  0.0318
29562W        W46036  11.363  11.163  12.317 -0.2772  0.0669 -0.0414
29563W        W46037   5.982   0.927  13.949  0.2998  0.1120 -0.0112
29564W        W46038  10.108   6.734   0.938 -0.1389  0.0978 -0.2001
29565W        W46039   3.781  16.017   2.972  0.2739 -0.1649 -0.4015
29566W        W46040  16.604  13.460   6.013 -0.2022 -0.0678  0.0829
29567W        W46041   1.996  15.029   1.097  0.0771 -0.2179  0.0496
29568W        W46042  10.692   6.866  15.522  0.2834  0.0672 -0.0213
29569W        W46043  16.183   5.656  12.747  0.2327  0.0088 -0.0258
29570W        W46044  16.380   7.381   0.514 -0.2124 -0.1015  0.1119
29571W        W46045  12.322  10.707  12.146  0.0358 -0.1339 -0.2411
29572W        W46046  17.471  14.364   1.192  0.1368 -0.0260  0.0404
29573W        W46047   8.610   3.485   5.432  0.1823 -0.3934  0.1342
29574W        W46048   0.936  17.608   5.080 -0.1038 -0.0935 -0.0083
29575W        W46049   4.971   4.600  16.879  0.2945  0.1917 -0.3911
29576W        W46050   6.497  12.009   2.951 -0.0644  0.1687  0.0507
29577W        W46051   3.125  15.583  15.735 -0.0496 -0.0547 -0.4019
29578W        W46052  17.329   0.918   1.685 -0.0826  0.1173 -0.0452
29579W        W46053   1.163   9.834   3.513 -0.0004 -0.1329 -0.0353
29580W        W46054   9.113   8.909   0.228  0.0063 -0.3006  0.0804
29581W        W46055   1.931  16.834  16.625  0.0001  0.0334  0.1937
29582W        W46056   7.708   2.817   4.150 -0.1616 -0.1401  0.1166
29583W        W46057  13.495  15.272  14.303 -0.0323 -0.3450 -0.1968
29584W        W46058   6.134   4.594  16.549 -0.0626 -0.1958 -0.0283
29585W        W46059   7.350   5.007  15.822  0.2100  0.1721 -0.1730
29586W        W46060  17.713   0.864   1.389  0.0693  0.1823 -0.0249
29587W        W46061   6.221   4.563   5.380  0.4744  0.1602  0.1190
29588W        W46062  14.104   9.653  15.548  0.1641  0.0251  0.1513
29589W        W46063   4.077  10.525  16.883  0.2132 -0.1912 -0.3531
29590W        W46064   7.870   7.810   4.512 -0.1091  0.1198  0.0615
29591W        W46065   0.518   7.766  16.773 -0.0808 -0.3305 -0.1545
29592W        W46066  15.033  10.789   5.749  0.3595  0.0464  0.1141
29593W        W46067  11.924   9.064   4.288 -0.1588 -0.3775  0.0059
29594W        W46068   5.776   4.420  13.119  0.0121  0.0783 -0.3656
29595W        W46069   9.458  16.725   0.239 -0.0811  0.1197 -0.0944
29596W        W46070  15.367   2.177   3.438  0.1898  0.0290  0.2717
29597W        W46071  15.859  16.605  13.014 -0.1035 -0.0191  0.0926
29598W        W46072   9.020   8.643  15.614  0.0388 -0.1117 -0.1848
29599W        W46073   6.012  16.244   4.306  0.2730 -0.2333  0.0328
29600W        W46074   9.218   0.493   1.728 -0.0710 -0.0548 -0.0687
29601W        W46075  12.812   8.695  10.801  0.0026  0.1922  0.0976
29602W        W46076  12.064  15.795   1.865  0.0518 -0.0464 -0.0161
29603W        W46077  17.215  12.691   4.319  0.0560 -0.1508  0.0841
29604W        W46078  12.738   7.537  13.715  0.2747  0.3671 -0.1484
29605W        W46079  16.007  16.679   1.699 -0.2079  0.1010  0.2368
29606W        W46080   1.248   1.653  13.357 -0.0174  0.0916 -0.0112
29607W        W46081  14.207  16.368  12.344  0.0608  0.0772 -0.4517
29608W        W46082  10.421  12.731   1.250  0.2218  0.0971  0.0095
29609W        W46083   7.194   8.168  13.326  0.1799  0.0634  0.2441
29610W        W46084   5.092   1.955  11.610  0.2926  0.0218 -0.0198
29611W        W46085  12.667   2.871   5.174  0.1090  0.3636 -0.0158
29612W        W46086   6.477  14.053   1.254 -0.1055  0.2470  0.1185
29613W        W46087   2.326   6.516  12.104  0.0877 -0.1690 -0.1222
29614W        W46088   7.121  11.906  16.212 -0.0585 -0.0006  0.1231
29615W        W46089  11.565  16.994   5.360 -0.0658  0.0062 -0.0797
29616W        W46090  16.966   7.309   4.370 -0.1272  0.0645 -0.0242
29617W        W46091  13.492   2.132  11.211  0.0944 -0.2922 -0.1605
29618W        W46092   0.228   2.028   0.849 -0.1805 -0.1414 -0.1342
29619W        W46093   3.443   7.837  13.429 -0.5267  0.0327 -0.1049
29620W        W46094   4.815  10.003   3.703  0.1497 -0.1277 -0.0679
29621W        W46095   6.452  15.958  11.921 -0.1770 -0.0908  0.1212
29622W        W46096  10.420   7.863  15.552 -0.2507  0.0573  0.1052
29623W        W46097   6.452  12.763   1.455 -0.0257  0.0058 -0.2187
29624W        W46098   8.890   2.477   3.141 -0.1121  0.0177  0.1757
29625W        W46099   7.995   8.995  16.375 -0.0662  0.1663 -0.0505
29626W        W46100   6.079  15.728  13.855  0.0249 -0.0161 -0.2849
29627W        W46101   0.293   7.758  15.629 -0.0786  0.0687  0.1362
29628W        W46102   7.452  14.440   0.293  0.1881 -0.4230  0.0820
29629W        W46103   5.109   3.960  12.881  0.1705 -0.1031 -0.0292
29630W        W46104  13.936  15.804   0.770  0.1293 -0.2935 -0.3962
29631W        W46105  17.649  12.615   2.800  0.1987 -0.0402 -0.0714
29632W        W46106   1.256  15.902   4.614 -0.0220  0.2241  0.0028
29633W        W46107  13.367   2.492  12.844  0.1967 -0.0780  0.1835
29634W        W46108   4.901   4.810   5.461  0.0174 -0.1586 -0.0069
29635W        W46109  14.650  14.390   2.911  0.0049  0.0579  0.0307
29636W        W46110  16.930  15.347   1.733  0.3985 -0.0828 -0.2334
29637W        W46111   1.812   5.358  16.260  0.0910 -0.1697  0.0900
29638W        W46112  12.229  10.223  16.873 -0.0893  0.0102 -0.1105
29639W        W46113   3.758  15.386  12.709 -0.0176 -0.0906  0.1260
29640W        W46114   6.371  12.790  11.460  0.2129 -0.1592 -0.0829
29641W        W46115   6.724   3.557   4.501 -0.0641  0.2373 -0.0663
29642W        W46116  16.686  14.514   3.632  0.0799  0.1989  0.1259
29643W        W46117   2.307  17.723   0.611 -0.0756 -0.2850 -0.1579
29644W        W46118  10.775  17.755  14.681  0.0095  0.3581 -0.3036
29645W        W46119  12.201  17.414  15.823  0.1036 -0.1798 -0.1338
29646W        W46120  16.140   8.131  14.526 -0.1703  0.0687 -0.4099
29647W        W46121  17.451   0.917  14.607 -0.0812  0.0911  0.0716
29648W        W46122   7.606   5.077   3.441  0.0660 -0.2882  0.0303
29649W        W46123   0.596  15.506   1.824  0.1830  0.3109 -0.1646
29650W        W46124   7.653  15.080  16.129  0.1063 -0.1741 -0.1099
29651W        W46125  10.805   8.011  11.865 -0.0085 -0.0138  0.3140
29652W        W46126  10.388  12.529   2.920  0.2098 -0.0296  0.1354
29653W        W46127   4.746  10.276  11.489 -0.1837 -0.4936 -0.1636
29654W        W46128   8.222  17.620  11.678 -0.2372 -0.0113  0.1135
29655W        W46129  10.041   2.327   1.126  0.0400  0.0001 -0.1273
29656W        W46130   1.998   9.118  14.762 -0.1550  0.2088 -0.0506
29657W        W46131   8.408  12.817  13.166  0.3487 -0.0324 -0.5263
29658W        W46132   8.728  14.752  14.651 -0.2254  0.0242 -0.1785
29659W        W46133   8.504   2.753  13.698 -0.0269 -0.3916  0.1442
29660W        W46134   8.262  16.777   3.816 -0.0356  0.0308 -0.0988
29661W        W46135   6.998   1.277  10.880  0.1146  0.0409  0.4438
29662W        W46136  13.085   0.159   4.530  0.1474 -0.1954  0.1816
29663W        W46137   2.938  16.379   4.425  0.3210  0.0106 -0.2149
29664W        W46138  13.023   7.600  14.939  0.0378 -0.1322 -0.3330
29665W        W46139   7.478   2.985   3.111 -0.3009 -0.2218 -0.0758
29666W        W46140   5.767   6.302   3.083 -0.0011 -0.2252  0.0215
29667W        W46141  15.074   9.263   1.290  0.1556  0.1515  0.0833
29668W        W46142   2.041   6.266   3.966  0.1077  0.0948  0.0441
29669W        W46143  16.251   1.211  14.107 -0.1438 -0.1365  0.0832
29670W        W46144  12.999  11.328  15.681  0.2573 -0.2371  0.0011
29671W        W46145   7.071   8.509   0.856  0.0622 -0.0241 -0.2515
29672W        W46146   3.722  13.893   1.527  0.1539 -0.1854 -0.2624
29673W        W46147   3.977   9.684   1.481 -0.0694  0.1167 -0.1412
29674W        W46148   1.617   9.599  12.986  0.1215  0.3408 -0.0885
29675W        W46149   3.083   1.472  16.346 -0.0173 -0.1211 -0.2851
29676W        W46150   1.628  16.640   4.411  0.0979 -0.0853 -0.0775
29677W        W46151   4.017   6.079   3.779  0.0252  0.1897 -0.1396
29678W        W46152   6.965   6.712   0.525 -0.1828  0.0952  0.3876
29679W        W46153   9.778  13.918  16.737  0.2468  0.3117 -0.2185
29680W        W46154   1.995   4.505  16.001 -0.0643 -0.0737  0.3184
29681W        W46155  16.022   0.355   0.561  0.0338  0.0897 -0.1661
29682W        W46156   9.858   6.023   5.379  0.0220 -0.1205 -0.1243
29683W        W46157  10.009   7.577  15.133 -0.3476 -0.1483  0.0089
29684W        W46158   5.450   4.169   1.300  0.2333  0.0258  0.0330
29685W        W46159  15.912   0.632   4.184 -0.1777 -0.2023  0.0755
29686W        W46160   8.995  13.914  16.267 -0.1734 -0.1808 -0.0603
29687W        W46161   7.207   1.177  15.144 -0.0879  0.1380 -0.2107
29688W        W46162  17.271   7.645  15.812  0.0960  0.0471  0.0274
29689W        W46163  12.862   7.885   5.046 -0.2893 -0.2139 -0.0437
29690W        W46164  12.811   9.860   5.440  0.0213 -0.3624 -0.1481
29691W        W46165   1.743   7.604  15.254 -0.0178  0.0237  0.0815
29692W        W46166   4.989   1.810   6.234 -0.2576 -0.1482  0.0979
29693W        W46167   9.404   9.549  13.498  0.0572  0.0888  0.0517
29694W        W46168  14.103  10.731  16.164  0.1937 -0.1627 -0.2281
29695W        W46169  16.484  15.420  15.120 -0.1592 -0.3436  0.2264
29696W        W46170   8.350  11.140  14.079  0.2536 -0.2239 -0.4015
29697W        W46171   2.376  10.286   0.185  0.0434 -0.0925  0.0987
29698W        W46172  17.827  12.023   3.835  0.1103  0.3020 -0.1834
29699W        W46173  14.626  10.753   2.994 -0.0874 -0.2741 -0.0599
29700W        W46174   9.771  11.083  13.739  0.0611 -0.1134 -0.1386
29701W        W46175   6.921   0.365  13.009  0.3284 -0.2708  0.1431
29702W        W46176  10.626  17.466  13.643 -0.0150  0.1233 -0.0514
29703W        W46177   5.717  13.264   2.197 -0.1868  0.2079 -0.1395
29704W        W46178   2.852   2.397  12.157  0.2903 -0.1343 -0.0794
29705W        W46179   4.404  14.926  12.826 -0.0189  0.0226  0.2510
29706W        W46180   9.862  11.118   4.312 -0.1552 -0.0601 -0.3059
29707W        W46181   0.704   4.713   3.322  0.1416 -0.1585 -0.0018
29708W        W46182   1.825   4.741  12.766 -0.2221  0.1664 -0.4564
29709W        W46183   8.159   1.017   0.378  0.1119 -0.1005  0.0009
29710W        W46184   5.265  14.135   4.851 -0.1556  0.2582  0.0894
29711W        W46185  16.499  14.740   0.964  0.1091 -0.3071  0.0626
29712W        W46186  12.860   3.264   5.909 -0.0034  0.1967 -0.0153
29713W        W46187   5.440   1.544  12.541  0.1233 -0.2554  0.1154
29714W        W46188   4.877   9.877   3.227 -0.0160  0.1015  0.0679
29715W        W46189   9.835   0.230   1.463 -0.0681 -0.0508 -0.0014
29716W        W46190  16.400  16.850  11.770 -0.1009 -0.0934 -0.0487
29717W        W46191   7.990  17.455   2.537 -0.2068 -0.3099  0.1518
29718W        W46192   9.974  10.504   0.538 -0.1541 -0.0058 -0.1814
29719W        W46193  11.362   3.626  12.105  0.1146 -0.0827 -0.1275
29720W        W46194  15.652   2.529   1.772 -0.0050  0.1365  0.2976
29721W        W46195  17.064   6.481   3.729 -0.1308 -0.0975 -0.0118
29722W        W46196   5.104  16.820   0.627 -0.1685 -0.0162 -0.3329
29723W        W46197   6.583   6.828   4.927  0.1861  0.0802 -0.1550
29724W        W46198   7.642   3.473  11.965 -0.1917 -0.1194 -0.1812
29725W        W46199   5.470  16.786   2.490  0.1362 -0.2968  0.1915
29726W        W46200  15.789   3.535  13.025  0.0115 -0.1501  0.0947
29727W        W46201  12.608  14.344  14.657  0.0320  0.1299 -0.1246
29728W        W46202   2.438   9.197   0.035  0.0823 -0.1674 -0.2685
29729W        W46203   5.890   7.910   0.129  0.0599 -0.1098 -0.1384
29730W        W46204  12.059   8.007   5.644  0.1620  0.3501  0.2611
29731W        W46205  12.099  17.623   0.743 -0.0742  0.3911  0.0539
29732W        W46206   9.496  12.673   4.516 -0.2037  0.1863 -0.1672
29733W        W46207  15.626  17.161   3.923 -0.3298 -0.1193 -0.1081
29734W        W46208   3.943   8.957   6.097 -0.0161 -0.2640 -0.1172
29735W        W46209  15.395   4.734  16.138  0.1418 -0.1213  0.0886
29736W        W46210   8.738  13.848   0.280  0.1952  0.1371 -0.1776
29737W        W46211   8.855  11.680   1.945  0.1704  0.4084 -0.2867
29738W        W46212  11.625   1.518  16.293  0.2047 -0.1729 -0.0397
29739W        W46213  10.824   7.125   5.399  0.2449 -0.0339 -0.1637
29740W        W46214  15.956  12.301   0.613 -0.1272  0.0278 -0.3950
29741W        W46215   2.602   4.016   5.013 -0.3182 -0.2739  0.2498
29742W        W46216  15.142  17.751   1.504 -0.0429 -0.2503  0.1183
29743W        W46217  11.827  10.169  13.260  0.0095 -0.0209 -0.2062
29744W        W46218   3.946   2.042   5.923  0.0510  0.0685 -0.1693
29745W        W46219  11.704  14.557  16.154  0.0700 -0.1223  0.1602
29746W        W46220   6.440   7.640   2.995  0.0230 -0.1963  0.2221
29747W        W46221  14.243   0.711   1.943 -0.0663 -0.1000  0.1239
29748W        W46222   1.770   8.011   5.598 -0.0286 -0.1229 -0.1738
29749W        W46223   2.512   7.733  11.632  0.0645  0.0116 -0.3912
29750W        W46224   1.625   6.545  13.685 -0.2531 -0.0507  0.4991
29751W        W46225  15.039  13.703   2.728 -0.1673  0.2885  0.0715
29752W        W46226   7.820   4.570   1.518  0.1911  0.2092 -0.2480
29753W        W46227  15.840   7.638  12.679 -0.0034 -0.2576 -0.2726
29754W        W46228   7.931   3.990  15.282 -0.0163 -0.0720 -0.1204
29755W        W46229  10.810  17.099  15.233  0.3018 -0.2638  0.1490
29756W        W46230  17.135  16.738   3.233 -0.2303  0.1636  0.5417
29757W        W46231   3.957   6.815  12.309  0.0015 -0.2885 -0.2821
29758W        W46232   8.833   3.105  11.729  0.1421  0.2694 -0.1096
29759W        W46233  14.494   7.740  13.242  0.0540  0.1391 -0.0295
29760W        W46234  15.566  10.065  16.011 -0.0096 -0.0261  0.4086
29761W        W46235   3.119   8.692  16.748 -0.2543  0.1099  0.3236
29762W        W46236   3.304   2.952   2.991  0.1598 -0.1184  0.1743
29763W        W46237  17.096  16.584  16.362  0.0011 -0.1084 -0.0967
29764W        W46238  16.830  11.562   1.504 -0.0440 -0.1155 -0.0905
29765W        W46239  13.464  13.889  15.230  0.1713  0.1026  0.1945
29766W        W46240   7.395  11.021   1.399 -0.2357 -0.1434 -0.3067
29767W        W46241   3.959  12.048  12.327 -0.1866  0.0908 -0.0711
29768W        W46242  15.190  11.871   1.961  0.0138 -0.1657 -0.0482
29769W        W46243  16.375   2.268  12.764 -0.0605 -0.0901 -0.0692
29770W        W46244   3.111   4.523  15.443  0.2072  0.1903  0.0120
29771W        W46245  11.420   0.834  12.603  0.0410 -0.1352  0.1295
29772W        W46246   9.227   3.911   4.060 -0.2038  0.1659  0.0332
29773W        W46247  16.882   3.447   5.595  0.0129  0.2431  0.0679
29774W        W46248   3.760   1.806   0.822  0.1465 -0.0825 -0.1389
29775W        W46249  10.620  17.672   3.988  0.0492 -0.1870  0.3925
29776W        W46250   1.421   6.260   2.315  0.1713  0.3312 -0.1385
29777W        W46251   5.066   7.555  16.773  0.1048  0.2882 -0.0053
29778W        W46252   0.297  13.079  13.817 -0.1723 -0.0985  0.2934
29779W        W46253   3.250  13.850  14.792  0.0788  0.0184 -0.1719
29780W        W46254  14.218   5.237   4.374 -0.2998 -0.0087 -0.2569
29781W        W46255   6.795  13.616   0.515 -0.3135 -0.1221 -0.1834
29782W        W46256   8.486   8.836  13.357 -0.1334  0.0986  0.0913
29783W        W46257   5.856  17.564   2.033  0.2633 -0.1234 -0.0032
29784W        W46258  15.000   6.814   1.989  0.1674 -0.1861 -0.3335
29785W        W46259  10.123   7.841   4.522  0.0958  0.0480 -0.1799
29786W        W46260   0.071   9.990  14.310 -0.0847 -0.2082 -0.0983
29787W        W46261   9.447   0.061   5.477  0.2508 -0.1416  0.0301
29788W        W46262   7.408   6.714  15.742 -0.0102 -0.1450 -0.1157
29789W        W46263  13.601  15.031   1.002  0.0362  0.1483  0.1874
29790W        W46264   4.924   7.842   5.818 -0.1556  0.0114  0.3982
29791W        W46265  10.976   2.311   4.602 -0.0709  0.1542  0.0654
29792W        W46266   7.765   5.516   4.358  0.2052  0.1734  0.2507
29793W        W46267  17.125  16.044  11.830 -0.2993  0.1383 -0.1343
29794W        W46268   5.060   7.666   0.619  0.0297 -0.0159  0.2728
29795W        W46269   7.238  12.929  12.278 -0.2400 -0.1238  0.2582
29796W        W46270   2.921   0.888   5.169 -0.1656 -0.2010  0.3404
29797W        W46271   1.732  15.032   4.266 -0.1690 -0.0351  0.1332
29798W        W46272   9.556   3.531   0.074 -0.0656 -0.0401 -0.0789
29799W        W46273   1.703   2.830   0.078  0.1564  0.1977  0.0630
29800W        W46274   6.660  14.576  16.203  0.0144 -0.1769  0.0966
29801W        W46275  16.726  14.917   0.060 -0.0926  0.0751  0.2219
29802W        W46276  13.897  17.216   5.329 -0.1038  0.2456 -0.0881
29803W        W46277   7.025   6.757   1.514 -0.0635  0.0825 -0.0884
29804W        W46278   4.149  16.175   5.773  0.0808 -0.1743 -0.1054
29805W        W46279   4.487   0.744   1.433  0.0677 -0.2259  0.3133
29806W        W46280   9.235   7.639  13.026  0.0086 -0.0459 -0.3113
29807W        W46281   3.166  12.691   2.830 -0.0709  0.0935 -0.3066
29808W        W46282   7.958   2.711  14.265 -0.0803  0.1623 -0.0968
29809W        W46283  12.008  11.011   2.188 -0.3267 -0.0391 -0.0694
29810W        W46284   8.958  15.612  13.347  0.1540 -0.2146 -0.1920
29811W        W46285   6.148  12.306   5.170 -0.0030 -0.0467 -0.0789
29812W        W46286  15.983   2.393  14.032  0.1719 -0.1889 -0.2334
29813W        W46287   4.836  13.137  12.161 -0.0687  0.0104 -0.1288
29814W        W46288  12.843  10.775  16.611  0.3402 -0.1282 -0.1060
29815W        W46289  11.478  11.897   2.429  0.0351 -0.1854 -0.1043
29816W        W46290   5.556   6.657  12.536  0.2010  0.1705 -0.0476
29817W        W46291  16.447   3.105   1.723  0.2707 -0.2271 -0.0730
29818W        W46292  14.194   6.785   2.038  0.0161 -0.0738  0.1398
29819W        W46293   2.149   8.601   4.038  0.3702  0.1649  0.1429
29820W        W46294  11.374   7.611  15.467 -0.1711  0.0062  0.1525
29821W        W46295   7.544  15.097  16.621  0.2849  0.2149 -0.1603
29822W        W46296  14.894  11.327  13.756  0.1776 -0.0920  0.2357
29823W        W46297   3.094  15.354   2.315  0.0044 -0.1415  0.0962
29824W        W46298  15.075  10.565  11.189  0.0927  0.0164 -0.2823
29825W        W46299   4.844  15.686   2.509  0.1073  0.0308 -0.0558
29826W        W46300   0.618   8.283   1.439 -0.3439  0.1012 -0.1379
29827W        W46301   5.707  17.108  12.314 -0.1158 -0.0681  0.0038
29828W        W46302  15.137   0.546   0.714 -0.3801  0.0022 -0.0141
29829W        W46303   0.332   2.490   0.601 -0.0719 -0.0144 -0.0515
29830W        W46304   8.455  13.632   2.713 -0.0681  0.1109  0.3003
29831W        W46305   9.478   1.627   4.425  0.0601 -0.0077 -0.1130
29832W        W46306   7.960  10.821  13.860 -0.0713 -0.2690  0.1312
29833W        W46307  12.045  17.045   0.657  0.0423 -0.0141 -0.1439
29834W        W46308  11.119   1.118  13.998  0.0702 -0.0977  0.1120
29835W        W46309   5.801   2.601  14.061  0.0968 -0.0303 -0.0710
29836W        W46310   9.171  13.912  12.022 -0.0998 -0.0885  0.1136
29837W        W46311  16.375   4.193   4.507 -0.0622  0.0596  0.0672
29838W        W46312  15.496  10.611   2.297  0.3116  0.2694  0.0623
29839W        W46313  17.076  13.310  14.594 -0.0701  0.0240  0.1426
29840W        W46314   9.700   1.250   5.611  0.2255  0.1177  0.0125
29841W        W46315  11.630  11.697   4.732 -0.0342  0.3091  0.0156
29842W        W46316   3.169  13.566   4.780 -0.0188 -0.0620  0.1432
29843W        W46317   8.387  16.674  14.556 -0.0158 -0.2958 -0.1849
29844W        W46318  15.645  14.424   3.897 -0.1291  0.1354  0.3219
29845W        W46319   4.075  12.007  13.181 -0.0424 -0.2245  0.2829
29846W        W46320   8.286  12.879  12.222 -0.0684  0.2621 -0.1968
29847W        W46321   4.065  10.734   0.647 -0.1509  0.0404  0.1708
29848W        W46322  12.852   2.306  12.000  0.2207  0.0961 -0.0262
29849W        W46323  17.470   4.077  12.526 -0.1160 -0.3288  0.1560
29850W        W46324   5.557   7.490  15.932 -0.0276  0.0906  0.1429
29851W        W46325  17.299   4.567  12.207 -0.0771  0.1379  0.1774
29852W        W46326  16.455   4.827  14.107 -0.1850 -0.0641  0.2447
29853W        W46327  13.435   5.572   4.226 -0.2651 -0.0303  0.0509
29854W        W46328  16.416   8.121  13.197 -0.0816  0.1187 -0.1455
29855W        W46329  16.567  16.882  14.874 -0.3861  0.0348  0.0815
29856W        W46330   0.699   1.900  16.395  0.0111 -0.0090  0.0020
29857W        W46331   7.753  17.195   5.254  0.1131  0.0597 -0.1957
29858W        W46332  15.121   0.454  16.810 -0.4046  0.3182  0.0770
29859W        W46333  12.186  11.365   1.795  0.2555  0.2072  0.1012
29860W        W46334  13.622   0.653   4.294 -0.0349 -0.1603  0.0637
29861W        W46335  11.429   7.790   2.030 -0.0001  0.2292  0.2477
29862W        W46336   8.917   1.263  14.224  0.1812  0.1096 -0.1347
29863W        W46337   3.333   9.562  12.037  0.0537 -0.0554  0.0785
29864W        W46338   8.889   3.370   4.068  0.2577 -0.0913  0.1038
29865W        W46339  15.284   1.779   2.173  0.1200  0.1179 -0.0759
29866W        W46340   4.158  10.906  13.926  0.3240  0.2312  0.1708
29867W        W46341   3.013   2.956   2.182 -0.2836  0.0674 -0.1114
29868W        W46342   0.312   5.476   5.115  0.1128 -0.0588  0.2202
29869W        W46343  12.477   7.643   1.925 -0.1475 -0.3973  0.1139
29870W        W46344  14.351  14.961   1.049  0.3962  0.2512 -0.2844
29871W        W46345   5.255  10.267   0.667 -0.0893  0.0306  0.0710
29872W        W46346   8.292   0.323   0.688 -0.0010 -0.0874 -0.1066
29873W        W46347   7.767   9.763  14.111  0.0201 -0.2515  0.0234
29874W        W46348   3.121   6.970  12.322  0.1353  0.1000 -0.0082
29875W        W46349  15.759  15.831   4.949  0.1221 -0.1872 -0.1726
29876W        W46350   8.567  11.538   0.558 -0.2408  0.0923 -0.1191
29877W        W46351   2.779  10.171  13.451  0.0229  0.1942 -0.1540
29878W        W46352   6.835  17.484   0.121 -0.1077  0.1807  0.2710
29879W        W46353   5.233   8.811  13.473  0.1063  0.1683  0.0938
29880W        W46354  16.952   6.868   0.711 -0.2188 -0.0174  0.3063
29881W        W46355  11.790   5.734  13.965  0.1810  0.0232  0.0753
29882W        W46356   9.181  13.155  14.069  0.0923 -0.0633 -0.2473
29883W        W46357  16.956  11.788   5.625 -0.2623  0.0953 -0.2238
29884W        W46358  16.455   2.219   1.130 -0.0879 -0.0057 -0.0156
29885W        W46359   5.522   8.493  13.728  0.1731  0.1496  0.0697
29886W        W46360  15.220  10.467   4.775  0.3190  0.0160 -0.1386
29887W        W46361  13.114   0.317  14.866 -0.0670 -0.3476 -0.1625
29888W        W46362   2.713   6.693   5.583 -0.2729  0.0267  0.0572
29889W        W46363   6.955  11.621  13.800  0.0981  0.1175 -0.0813
29890W        W46364   8.576  11.580  16.257 -0.2335 -0.1897 -0.1553
29891W        W46365   4.451  16.118  14.056  0.0416  0.1360 -0.0694
29892W        W46366  10.846   2.999   1.269 -0.0150 -0.3445 -0.4656
29893W        W46367   2.711   8.630  14.117 -0.1729 -0.2822 -0.1192
29894W        W46368   3.202  11.295   1.773 -0.2655 -0.0576 -0.0083
29895W        W46369   1.703   7.112  15.468  0.0683  0.0228  0.2299
29896W        W46370   1.079   4.467  14.792 -0.2379  0.0396 -0.6332
29897W        W46371   7.758   1.199  15.091  0.3356  0.2742  0.0351
29898W        W46372  16.231   9.869  15.457 -0.2613 -0.1222 -0.1029
29899W        W46373  11.347  16.073   5.047 -0.0376 -0.1066 -0.1787
29900W        W46374  16.550  13.842  13.725  0.1454  0.0482 -0.1806
29901W        W46375  11.588   9.314  16.265  0.2078 -0.1770 -0.2375
29902W        W46376   2.529  17.639  11.834  0.1670  0.1612  0.0056
29903W        W46377  12.613  13.487   1.777  0.1642 -0.2478 -0.1976
29904W        W46378   5.423   7.697   3.023  0.0017  0.2714 -0.1527
29905W        W46379   4.110  16.060   1.352  0.2559 -0.0481 -0.1745
29906W        W46380  13.675   5.192   1.368 -0.0814  0.0026  0.0038
29907W        W46381  10.337   3.571  13.506  0.3126  0.2397 -0.1538
29908W        W46382  17.528   6.202   0.945  0.1056  0.1552 -0.0423
29909W        W46383   1.635   3.778  11.895  0.0037 -0.0926  0.0148
29910W        W46384   6.507   7.373   1.537 -0.0118  0.1350 -0.1260
29911W        W46385  16.006   1.447  16.447  0.3597 -0.0866 -0.2054
29912W        W46386   9.972   8.889  15.123  0.1825 -0.2950 -0.1243
29913W        W46387  10.972   6.921   3.249  0.0893 -0.0621 -0.0563
29914W        W46388   5.701  16.343   4.952  0.1184 -0.1664 -0.0371
29915W        W46389   6.278   9.537  14.355 -0.0341 -0.4413  0.1248
29916W        W46390   6.305   4.839  15.627  0.0215  0.0222 -0.1922
29917W        W46391   4.731   3.137  12.372 -0.0590  0.0802 -0.2051
29918W        W46392  11.334  12.410   1.617 -0.2333 -0.3365  0.1141
29919W        W46393  16.678   8.974   4.933 -0.5388 -0.0334  0.1589
29920W        W46394   8.779   8.788   1.133 -0.0262 -0.2041  0.0655
29921W        W46395  16.631  14.848  16.509 -0.0634  0.0125 -0.2976
29922W        W46396  17.095   7.216   1.877  0.0094 -0.0723 -0.0695
29923W        W46397  11.961   6.787  12.869 -0.1466 -0.1877 -0.1459
29924W        W46398   7.774   0.646  12.732  0.1594 -0.1185  0.0591
29925W        W46399   1.997   5.042   3.340  0.0201  0.0707  0.1361
29926W        W46400   7.013  12.617   1.642  0.0131  0.1608  0.4244
29927W        W46401   3.496   2.674  12.047  0.3431 -0.0972 -0.2878
29928W        W46402   3.863   4.429   6.028  0.1812 -0.0244  0.0514
29929W        W46403  13.848   4.342  15.644 -0.1968 -0.2640  0.0202
29930W        W46404  11.954  13.757   5.522  0.2083  0.1128 -0.0951
29931W        W46405  15.449   5.745   2.892  0.3659 -0.1554  0.2113
29932W        W46406  16.964   3.974  14.680  0.0857 -0.0181  0.1123
29933W        W46407  16.975  11.225  13.965 -0.0492  0.3886  0.1068
29934W        W46408   2.429   1.686  16.066  0.2876  0.0337 -0.0921
29935W        W46409   3.973   3.879   1.390  0.0379  0.3960 -0.1257
29936W        W46410  14.340   7.067   5.087 -0.0046 -0.2427 -0.1924
29937W        W46411  15.028  10.001  13.126 -0.1987  0.4695 -0.0706
29938W        W46412   6.196   2.963   1.982  0.0416 -0.0411 -0.1035
29939W        W46413   1.327  16.661  12.736  0.2074 -0.2649 -0.1825
29940W        W46414  11.500   8.079  14.818  0.1193 -0.2003 -0.1284
29941W        W46415   9.412  11.804  14.772  0.2097  0.0886  0.1548
29942W        W46416   0.885   2.432  15.728  0.0521 -0.0175 -0.0096
29943W        W46417  11.265   3.461  11.331 -0.1476 -0.2060 -0.0888
29944W        W46418   8.798  13.861   4.530 -0.0591  0.2118 -0.0811
29945W        W46419   3.187  11.978   3.022  0.3213 -0.2726 -0.1689
29946W        W46420  15.695   0.994   3.432  0.1027 -0.0512 -0.0160
29947W        W46421   2.806  11.952   4.411 -0.1019  0.0362  0.0144
29948W        W46422  12.264  15.625  10.986 -0.0087 -0.3175  0.3362
29949W        W46423   5.653  17.531  16.821  0.0051  0.2565  0.1215
29950W        W46424   4.792   4.643   1.688  0.1686 -0.1577 -0.0604
29951W        W46425  15.118   0.816   4.807 -0.0589 -0.0789 -0.1698
29952W        W46426  15.109  16.942  14.856 -0.1952  0.0592 -0.0329
29953W        W46427  14.121  13.026   0.448  0.2079  0.0824 -0.0132
29954W        W46428   0.444  11.379  14.236 -0.2218  0.2212 -0.1398
29955W        W46429   5.525  15.664  13.352  0.1296  0.1115 -0.1041
29956W        W46430   8.685   5.743   4.358 -0.1701  0.0902  0.0151
29957W        W46431   6.847   5.259  15.114  0.2370 -0.1403 -0.0826
29958W        W46432   7.064   1.723   5.196 -0.1040  0.3553  0.1851
29959W        W46433   3.619   6.209  12.238 -0.0471 -0.1297  0.0549
29960W        W46434  12.744   1.737   3.598 -0.0143  0.1623 -0.0356
29961W        W46435  13.904   0.939   5.970 -0.0095 -0.1352  0.0452
29962W        W46436  12.877   4.249  16.066  0.1918  0.0149  0.0054
29963W        W46437  11.540   7.139  14.090  0.2576 -0.1779  0.3548
29964W        W46438   7.929   2.089  13.136 -0.0124  0.0996  0.0059
29965W        W46439  14.833  10.910  13.332  0.1722 -0.0420  0.1194
29966W        W46440   2.573   5.800   1.652  0.4018 -0.1858  0.1380
29967W        W46441   3.647   3.650   1.756  0.0464 -0.2536 -0.4605
29968W        W46442  16.655   1.109   6.488 -0.0970 -0.0304 -0.3083
29969W        W46443   8.288   8.010   4.261 -0.0778 -0.1551 -0.0251
29970W        W46444   1.137   8.657   3.293 -0.0407 -0.2715 -0.1666
29971W        W46445   5.823  12.040   2.951 -0.0671  0.1565 -0.0550
29972W        W46446  10.902  12.306   5.023 -0.0833 -0.0523 -0.5107
29973W        W46447   2.350  16.635  16.446  0.0544 -0.0297 -0.1256
29974W        W46448  10.136   9.410   4.030 -0.3264  0.2157 -0.2402
29975W        W46449   2.353   4.096   6.421  0.1475 -0.2358  0.1944
29976W        W46450   3.336   6.644  14.104 -0.0903 -0.1361 -0.3279
29977W        W46451  16.930   9.364  14.547  0.0186 -0.0012  0.0977
29978W        W46452  16.780   1.835   1.217 -0.3476 -0.1166 -0.0450
29979W        W46453   5.223  12.113   0.844 -0.1857  0.2302  0.0186
29980W        W46454   3.277  12.984  15.071 -0.1707  0.2643 -0.1740
29981W        W46455   1.791   3.105   4.112 -0.1489 -0.0820  0.2423
29982W        W46456   0.498  14.154   3.243  0.1400  0.0097  0.0173
29983W        W46457   5.099   1.870  14.186 -0.0306  0.0687 -0.2367
29984W        W46458  15.566  13.243   0.613  0.0064 -0.0777 -0.3595
29985W        W46459  17.740   3.913   3.776 -0.3835 -0.0664  0.1595
29986W        W46460   1.789  17.369  14.488  0.3071  0.0419 -0.0092
29987W        W46461   2.183   3.274   2.745 -0.0278  0.0319 -0.0412
29988W        W46462  14.984  16.929  12.725 -0.1207 -0.0957 -0.3115
29989W        W46463  14.268  15.390   3.340  0.4956  0.2501  0.1275
29990W        W46464  14.755   8.566  13.833 -0.0621  0.1545  0.0284
29991W        W46465   8.177   2.235   0.946 -0.0239 -0.0796  0.1897
29992W        W46466   9.709  10.673   1.019 -0.1426  0.2777 -0.0304
29993W        W46467  10.428  11.191   2.456  0.0334  0.3269  0.0954
29994W        W46468   6.759   8.565  16.294  0.0466 -0.0427  0.1904
29995W        W46469   1.402  10.867  15.558 -0.1570  0.2046  0.0480
29996W        W46470  12.494  13.719   3.576  0.1563 -0.0249  0.3602
29997W        W46471  10.606   9.910   5.836 -0.1806 -0.2177 -0.1852
29998W        W46472   8.932  12.497   0.395 -0.0702  0.1896 -0.2278
29999W        W46473  14.601  10.092  11.895 -0.0573  0.2609 -0.2037
30000W        W46474   8.797  11.024  13.708  0.0565  0.0774 -0.1272
30001W        W46475  10.912  17.291   3.217  0.1146  0.4315 -0.0333
30002W        W46476   2.504   8.996   4.238  0.5081 -0.1130  0.1866
30003W        W46477   6.876   0.207   3.047 -0.0421 -0.3113 -0.0286
30004W        W46478  13.949   7.232   1.970  0.2763 -0.1924  0.1594
30005W        W46479   3.853  11.234   0.487 -0.0443  0.0621 -0.0523
30006W        W46480   9.875   0.206   3.669  0.0518  0.4195  0.1339
30007W        W46481   0.170   3.928   5.080 -0.1425  0.3162  0.0400
30008W        W46482   5.898  12.133  15.584  0.1037  0.0386 -0.0285
30009W        W46483   5.119   7.555  12.452  0.0253  0.0846 -0.0502
30010W        W46484   8.698   6.894   1.706 -0.1097  0.1817  0.1976
30011W        W46485   9.319  11.147   5.094  0.0526  0.2178  0.3978
30012W        W46486   7.070   9.549  16.069  0.1019  0.2992 -0.2118
30013W        W46487  12.707  17.344  15.156 -0.0692 -0.1860  0.0390
30014W        W46488   9.179   2.472   0.109  0.2449 -0.3224 -0.1605
30015W        W46489   6.059  14.721   1.938 -0.1019  0.2087 -0.2355
30016W        W46490   1.156   1.086   4.005 -0.0659 -0.0120 -0.0634
30017W        W46491  16.799  13.966   1.906  0.1973 -0.3020  0.2057
30018W        W46492   0.614  17.244  13.811  0.1271 -0.0883 -0.2809
30019W        W46493   8.473   1.760   5.229  0.0679 -0.3549  0.1503
30020W        W46494  13.031   3.703  16.882 -0.1433  0.1257  0.0019
30021W        W46495  10.321   3.901   1.487  0.2708 -0.0096  0.0522
30022W        W46496  12.857  16.466  14.877  0.5644 -0.1595  0.1509
30023W        W46497  12.874  16.348  12.148 -0.0257  0.0592  0.0838
30024W        W46498   4.809   8.263   2.329 -0.1005  0.0605 -0.0377
30025W        W46499   4.012   6.879   1.689  0.0947  0.1022  0.0865
30026W        W46500  15.764  15.667  13.159  0.1883  0.1511 -0.1226
30027W        W46501   6.957   7.288   2.355  0.0181  0.2840  0.1735
30028W        W46502   6.683  12.606  11.799 -0.0959 -0.0199  0.1000
30029W        W46503   3.799  11.271  11.909  0.0752 -0.0564 -0.1504
30030W        W46504  14.338   2.472  13.378 -0.3874 -0.0803  0.3395
30031W        W46505  15.954  13.463   1.898 -0.0137 -0.0090  0.1711
30032W        W46506   4.515   9.469  15.427  0.2652 -0.1273  0.0628
30033W        W46507  11.489  14.139  15.326  0.1630 -0.1982 -0.1945
30034W        W46508   1.465   6.604   3.312  0.2103 -0.2692 -0.1843
30035W        W46509   2.341  10.588  16.022 -0.0796  0.0291  0.2180
30036W        W46510   8.311   2.598   2.537  0.1635 -0.3802 -0.0984
30037W        W46511  16.430  14.496   5.020 -0.2994  0.1013 -0.0627
30038W        W46512   2.044   0.956   1.878 -0.1603  0.1025  0.0650
30039W        W46513   5.259   4.437   1.694  0.2300  0.2328  0.0951
30040W        W46514   4.920   3.560  12.577  0.0102  0.2119  0.2162
30041W        W46515   6.578   2.940  16.906 -0.0373 -0.0767 -0.0318
30042W        W46516   7.480   3.752  14.561 -0.1879 -0.0880 -0.2651
30043W        W46517  12.603   3.554  14.541 -0.0229 -0.1308  0.0129
30044W        W46518  11.178  10.645  15.328 -0.1747 -0.1779 -0.0555
30045W        W46519  15.513   3.899   0.879  0.1916 -0.1944 -0.0367
30046W        W46520  17.116  15.306  14.169  0.4027  0.0687  0.1965
30047W        W46521  14.944  10.373  13.970 -0.2715  0.1812  0.2467
30048W        W46522   5.258   1.497  13.847 -0.0677 -0.0266 -0.0314
30049W        W46523   8.377   4.857   5.104 -0.1108 -0.3287  0.3128
30050W        W46524   0.489  12.033  15.451 -0.0872  0.0678  0.3063
30051W        W46525   1.876  10.259   3.602 -0.1813  0.2161 -0.5374
30052W        W46526   6.258  11.838  14.964 -0.3322  0.0911 -0.2650
30053W        W46527   6.557   5.541   1.087  0.0533  0.3259  0.0826
30054W        W46528   9.318  11.638   4.246 -0.0203  0.1508  0.1701
30055W        W46529   8.903  12.863   3.983 -0.2809 -0.3176  0.3392
30056W        W46530  11.484  16.716  13.874 -0.2030  0.0315  0.0093
30057W        W46531   4.954   2.946   0.339 -0.0293 -0.1496 -0.0947
30058W        W46532   0.684   1.564   2.555  0.0083  0.5192  0.1802
30059W        W46533  10.227  13.679   1.376  0.1272  0.1621  0.0549
30060W        W46534   3.044  17.247   3.993  0.2897 -0.1376 -0.1710
30061W        W46535   4.773  15.165  15.839 -0.3191 -0.1522  0.0571
30062W        W46536  11.506  14.088   4.314  0.0577 -0.0593  0.0779
30063W        W46537  13.266   8.215  11.805 -0.0867 -0.0549 -0.0970
30064W        W46538   3.493   4.872  14.305 -0.0773  0.1693  0.0208
30065W        W46539  17.523   5.492  15.338 -0.2492  0.0558 -0.2934
30066W        W46540   9.439   5.904   5.555  0.1023  0.0685 -0.0606
30067W        W46541  15.367  14.809  14.750 -0.1736 -0.1567  0.2873
30068W        W46542   0.010  15.038   2.517  0.1041  0.2895  0.1738
30069W        W46543  16.954   2.634   2.297 -0.0118 -0.0157 -0.3568
30070W        W46544   7.823  10.680  12.275 -0.4543 -0.2676  0.0080
30071W        W46545  10.029   4.307  14.449  0.0378 -0.2009 -0.2238
30072W        W46546   6.191   7.568  14.694 -0.1423  0.2539  0.0844
30073W        W46547   7.454  17.184   4.803 -0.2945 -0.0551 -0.1155
30074W        W46548  14.094  17.477   5.714 -0.1544  0.0321  0.0769
30075W        W46549   9.380  17.821  15.931 -0.1033  0.0088 -0.1599
30076W        W46550   8.638  17.694  11.414 -0.1681 -0.0544 -0.0838
30077W        W46551   6.982   4.167  16.223 -0.2499 -0.1283  0.0503
30078W        W46552  10.855   8.076   3.298 -0.0285  0.1240 -0.1089
30079W        W46553   2.760   5.413   4.148  0.1054 -0.1278 -0.0307
30080W        W46554   8.702   3.823   2.580  0.4254  0.1507 -0.0396
30081W        W46555   3.480  14.214   2.668  0.2716  0.0904 -0.0626
30082W        W46556   4.436   9.711  14.194  0.1214  0.1041 -0.4240
30083W        W46557   2.430   5.945   3.908  0.0577  0.0127  0.1386
30084W        W46558   6.484   0.439   2.780 -0.0299 -0.1052  0.2888
30085W        W46559   1.664   0.795  13.405 -0.1292 -0.2109 -0.1419
30086W        W46560   8.260   7.173   4.347 -0.2130 -0.1210  0.0209
30087W        W46561   5.411  14.366   3.271  0.0832 -0.0344  0.0567
30088W        W46562  10.451  12.303   5.311 -0.4270 -0.0998 -0.2050
30089W        W46563  16.200   5.280  14.433  0.0051  0.1771 -0.1091
30090W        W46564  16.262  11.847   5.063  0.0677 -0.1591 -0.0870
30091W        W46565  11.478  11.513  14.165  0.2666  0.0161  0.1084
30092W        W46566  14.235   1.471   5.311  0.1724 -0.2010 -0.1123
30093W        W46567   5.833  12.059  16.474  0.2897 -0.1630  0.2744
30094W        W46568   5.305  14.265   0.738  0.0314 -0.1879 -0.3168
30095W        W46569   3.732   1.328   2.676 -0.0098 -0.1976 -0.1004
30096W        W46570   8.560   7.036  13.010 -0.0147  0.0411 -0.0914
30097W        W46571   4.313   3.896   0.007 -0.0249  0.1536  0.4190
30098W        W46572   7.993  13.939  13.081 -0.1392 -0.1416  0.1346
30099W        W46573   4.435  17.394   0.389  0.0955  0.0101  0.0116
30100W        W46574   2.206  16.022   3.610  0.0581  0.1034  0.0289
30101W        W46575   8.778   7.878   4.657 -0.1236  0.0964 -0.1749
30102W        W46576  16.374   8.047  16.288  0.2757  0.4400 -0.1233
30103W        W46577  17.711  13.559   2.858 -0.0998  0.0931  0.0036
30104W        W46578   9.458  12.862   3.553 -0.1531 -0.0344  0.0600
30105W        W46579   8.046   7.671   2.335  0.0006  0.0229 -0.0342
30106W        W46580  16.927   1.496   0.729 -0.0556 -0.0726 -0.1125
30107W        W46581  15.302   5.223  11.968  0.3545 -0.1813  0.2889
30108W        W46582   2.641   5.270  13.770 -0.1269  0.4439 -0.2073
30109W        W46583  16.091   2.980  14.805 -0.0571  0.0271  0.1093
30110W        W46584  13.950  12.706  13.367 -0.1558  0.1259 -0.2366
30111W        W46585  12.398  16.621  13.302 -0.1668 -0.2677 -0.1324
30112W        W46586  12.123  10.253   3.633  0.0947 -0.2549  0.0847
30113W        W46587   3.332  11.250   0.529 -0.0585  0.2730 -0.2857
30114W        W46588  17.099  17.648  15.861  0.3205  0.0600  0.1208
30115W        W46589   9.029   5.659  13.197  0.1735  0.1380  0.3197
30116W        W46590   9.146   2.298  14.461 -0.0945  0.6488  0.2858
30117W        W46591   9.652   1.004   5.160 -0.0914 -0.0593  0.0502
30118W        W46592   7.748   6.720  12.599 -0.0835  0.2801 -0.1778
30119W        W46593  16.662  13.672  16.308 -0.1002 -0.2000 -0.2645
30120W        W46594   9.335  17.818   6.362  0.1159 -0.1927 -0.0801
30121W        W46595  10.604  15.373  14.480  0.2181  0.4152 -0.0300
30122W        W46596   5.492   1.667   3.919  0.0878  0.2624  0.0447
30123W        W46597   4.511   5.077   4.573  0.0184  0.0320 -0.3115
30124W        W46598   0.081  17.605  16.445 -0.0283  0.3302  0.0332
30125W        W46599   9.577  16.896  14.651  0.1651  0.2391 -0.0802
30126W        W46600   9.903  15.558   2.213  0.0214  0.1982  0.1582
30127W        W46601  15.837   9.216  15.756  0.0729 -0.0735  0.0715
30128W        W46602   7.571   4.748  16.903 -0.0325 -0.1413 -0.2338
30129W        W46603   9.445  10.937  11.368  0.1435 -0.4443 -0.0585
30130W        W46604  12.723   1.389  15.620 -0.0389  0.2039  0.1750
30131W        W46605  17.356  11.256  11.112 -0.0946 -0.3141  0.1062
30132W        W46606   4.957   9.590  15.238  0.0331 -0.0771  0.0856
30133W        W46607  15.873   4.365  11.942  0.1032 -0.0421  0.0950
30134W        W46608  15.914   7.565  10.591 -0.0541 -0.1513  0.2665
30135W        W46609   0.349   4.718   1.995 -0.0145 -0.1464  0.0087
30136W        W46610   4.687  11.481  15.585 -0.0235  0.0512  0.0721
30137W        W46611   0.611   3.194   3.854  0.0401 -0.1978 -0.0515
30138W        W46612   4.411  14.412  11.541 -0.0740 -0.0009 -0.0843
30139W        W46613   5.314  17.187   0.865  0.0288 -0.0211 -0.0813
30140W        W46614   7.127   4.465  12.467  0.0369  0.2094 -0.1621
30141W        W46615   6.081   1.365   4.515  0.2496  0.1420 -0.0377
30142W        W46616  13.614   2.017   4.298  0.0815 -0.0661 -0.1495
30143W        W46617  12.496   5.122  16.289  0.0826  0.0546 -0.0887
30144W        W46618  16.010   5.781   4.634  0.1145 -0.1255  0.3652
30145W        W46619   1.102   5.628  15.264 -0.0230  0.2951  0.0360
30146W        W46620  11.001  14.278  12.792 -0.1586  0.1068  0.1930
30147W        W46621   1.257   9.050  11.817  0.3434 -0.1258  0.0014
30148W        W46622  16.593   9.301  12.261  0.0142 -0.2322 -0.1604
30149W        W46623  12.620  14.431  14.168 -0.1332 -0.1037 -0.0600
30150W        W46624   5.596   3.926   2.735  0.2327  0.0671 -0.0438
30151W        W46625  13.021  17.715  12.669  0.0255 -0.0987 -0.0516
30152W        W46626  10.421   8.564   0.914  0.1386  0.1321  0.1897
30153W        W46627  11.427   8.226   5.657  0.2984  0.1053  0.0277
30154W        W46628   4.210  14.028  14.683 -0.0439  0.1542  0.1097
30155W        W46629  11.400   7.753  12.341  0.1660  0.0924 -0.0487
30156W        W46630  14.821  10.561   4.244 -0.1621 -0.0621  0.0521
30157W        W46631   9.754  11.370  14.906  0.1725 -0.0914  0.0318
30158W        W46632   7.612  16.548  13.729  0.3029  0.3260  0.0202
30159W        W46633   5.435   6.531   2.195 -0.1171  0.0864 -0.0930
30160W        W46634   0.128  17.687   3.020 -0.0572  0.1934 -0.0864
30161W        W46635   8.695  16.659   3.592 -0.3340  0.2638  0.0345
30162W        W46636   9.849  13.322  13.424  0.2478 -0.1283 -0.1572
30163W        W46637   0.578  13.186  12.495  0.0980  0.0163 -0.0364
30164W        W46638   9.166  15.129   3.849 -0.0002  0.0344  0.1526
30165W        W46639   0.822  17.649   3.726 -0.1544 -0.1218 -0.0311
30166W        W46640   8.778  14.265   3.500  0.1864 -0.0484  0.0526
30167W        W46641   5.561  16.518   3.441 -0.0754  0.0754  0.0235
30168W        W46642   3.735   1.636   4.459 -0.0457 -0.1505 -0.0229
30169W        W46643   2.330   7.174  12.535  0.1866 -0.0219  0.0076
30170W        W46644   8.670   8.871  13.971  0.0858 -0.0715 -0.1593
30171W        W46645   9.422   5.666  13.591 -0.1839  0.0476 -0.0347
30172W        W46646   4.382   2.926   3.481 -0.2175 -0.0183 -0.0139
30173W        W46647  17.126  17.708  13.695  0.0092 -0.2432  0.4993
30174W        W46648  13.969  15.762  11.549  0.0685  0.1447  0.0532
30175W        W46649   5.536  14.935  13.584 -0.0830 -0.0065  0.2298
30176W        W46650   2.693  10.227   1.799  0.0797  0.1240  0.1751
30177W        W46651   0.962   5.315  12.140 -0.1013  0.0785 -0.1303
30178W        W46652  11.035   5.270  12.103 -0.0417 -0.0443  0.1087
30179W        W46653   7.381   7.554   1.227 -0.1243  0.0128 -0.2000
30180W        W46654   1.319  12.041  11.856 -0.2075  0.2074  0.0571
30181W        W46655  12.261   2.529  13.631 -0.2873  0.0124 -0.3594
30182W        W46656   8.059  11.958  14.610  0.0130  0.1824  0.0958
30183W        W46657  12.026   5.576   2.749  0.2242  0.1813 -0.0952
30184W        W46658  15.320  12.056  13.775  0.0757  0.2904 -0.2069
30185W        W46659   0.892  14.611  16.465  0.2470 -0.1045  0.0840
30186W        W46660   6.703   5.042   5.883  0.0180  0.1146 -0.0919
30187W        W46661   4.835   5.119   4.206  0.1286  0.0761 -0.2585
30188W        W46662   6.899  17.622  13.995  0.2381 -0.4359  0.1807
30189W        W46663   1.423   6.126  12.155 -0.2099 -0.0694  0.0469
30190W        W46664   4.639  16.920   2.833 -0.1343 -0.0051  0.0575
30191W        W46665  16.268   5.464   0.299  0.1945  0.2836  0.0701
30192W        W46666   6.946   8.974  16.895 -0.2250  0.0090  0.1888
30193W        W46667   6.006   3.704  13.896 -0.0559 -0.0919  0.3749
30194W        W46668   0.545   2.342   3.992 -0.1889 -0.0421  0.2078
30195W        W46669  11.624  15.203  13.570 -0.0991  0.0249 -0.1813
30196W        W46670  16.000   1.701  14.352 -0.1778 -0.2771 -0.2918
30197W        W46671   0.379  11.561  13.474 -0.0419 -0.1502 -0.3035
30198W        W46672   1.301  14.849  12.005 -0.2347 -0.1216 -0.1098
30199W        W46673  15.764  12.522  15.521  0.2335  0.1514  0.3552
30200W        W46674   4.833   4.203   4.201  0.1471  0.2210 -0.1281
30201W        W46675  11.083   8.920   0.254 -0.1565  0.2821 -0.2026
30202W        W46676  14.206   8.912  16.348 -0.1310 -0.4211  0.1829
30203W        W46677   3.610  11.364   0.111 -0.0785  0.0662 -0.0346
30204W        W46678  14.178  14.520   4.281  0.1064  0.2423  0.1412
30205W        W46679  10.382  16.434  15.928  0.0320  0.2500 -0.2514
30206W        W46680   3.067   6.217   5.698  0.0100 -0.1398 -0.0519
30207W        W46681  10.553   2.406   1.429 -0.2074  0.0704 -0.2020
30208W        W46682   2.313   5.172   0.716  0.0486 -0.2549  0.1453
30209W        W46683   1.474  13.777   1.094 -0.1815  0.2554 -0.1711
30210W        W46684   1.373   4.382  11.746  0.0477  0.2227  0.0378
30211W        W46685  10.639   1.936   0.092  0.1761  0.0492  0.3987
30212W        W46686   2.267   0.730  13.637 -0.2726  0.0767 -0.1030
30213W        W46687  10.744  13.733   4.920 -0.1421 -0.1187 -0.2442
30214W        W46688  11.623  12.770   1.702 -0.1701 -0.0150  0.2252
30215W        W46689  16.057   9.334   1.189 -0.1486 -0.0631 -0.1931
30216W        W46690  15.281   9.157   1.761  0.2230 -0.1899 -0.2278
30217W        W46691  12.147  13.391   4.670 -0.1186 -0.0003 -0.1524
30218W        W46692  17.098  10.790  15.098  0.0787 -0.3071 -0.1606
30219W        W46693   7.800  14.648  15.135 -0.2584 -0.1577  0.0151
30220W        W46694  11.681   9.790  12.853 -0.2208  0.0248 -0.2839
30221W        W46695   0.999   8.068   5.004 -0.0699  0.3029  0.2262
30222W        W46696  11.871   4.074   2.980  0.2906 -0.0587 -0.1135
30223W        W46697  14.193   8.861   2.887 -0.3078 -0.0192 -0.3744
30224W        W46698  15.470   4.568   1.618  0.1135 -0.0683  0.0149
30225W        W46699   9.438  10.785   4.806  0.0168 -0.2737  0.0117
30226W        W46700  14.112   8.375   3.568 -0.0737 -0.1686 -0.0383
30227W        W46701  12.836   6.113   4.265 -0.0403 -0.2946 -0.0395
30228W        W46702  17.718  15.822  16.216 -0.2586  0.0841  0.0724
30229W        W46703   6.654  16.515  14.538 -0.1230  0.0519 -0.0907
30230W        W46704  14.479   0.763   4.664 -0.0334  0.0999  0.2795
30231W        W46705  13.651  15.644   3.748 -0.0223  0.0849  0.2371
30232W        W46706  12.570  10.905   3.863  0.0194 -0.0725  0.1929
30233W        W46707   3.792   0.890  15.479 -0.0417  0.0963  0.0027
30234W        W46708   5.075   0.286  14.518 -0.2160  0.1627  0.1414
30235W        W46709  10.674   1.415   1.311 -0.1379 -0.3436 -0.1039
30236W        W46710   3.627  11.216   3.528  0.2164  0.1521  0.2900
30237W        W46711   9.210  11.475  13.351 -0.1261  0.0310  0.0983
30238W        W46712  10.022   3.865  14.222 -0.1053  0.1709 -0.1401
30239W        W46713  14.273   1.627  11.841 -0.1116  0.1635  0.0460
30240W        W46714   7.561  15.072   5.198 -0.0713  0.1597 -0.1921
30241W        W46715   7.466  16.057  16.239 -0.1344 -0.1376 -0.1992
30242W        W46716   7.980   2.812   2.876  0.2458 -0.2184  0.2709
30243W        W46717  15.313   7.604   0.225 -0.0957 -0.1133  0.0798
30244W        W46718   6.130   8.800   5.633 -0.0261 -0.0796  0.1594
30245W        W46719   4.592   3.865   5.002 -0.2802 -0.3415 -0.0069
30246W        W46720  10.647   7.390   4.469  0.1136  0.0882 -0.1714
30247W        W46721   7.260   4.499  14.888  0.0228 -0.0881 -0.1183
30248W        W46722  15.153   7.488   6.579  0.0901  0.4395  0.0081
30249W        W46723   6.085   1.024   2.176 -0.3199 -0.0586 -0.1391
30250W        W46724   8.938   5.844  16.036  0.0639 -0.0853 -0.0433
30251W        W46725  14.907   1.064  16.067  0.2057  0.0575 -0.1049
30252W        W46726  16.060   2.632  13.518  0.0912  0.0528 -0.1581
30253W        W46727   7.003   5.702   1.318 -0.1515 -0.3491 -0.0145
30254W        W46728   2.092  14.691   4.141  0.2830  0.0251 -0.2498
30255W        W46729  13.285  13.441  14.052 -0.1856 -0.0625 -0.0161
30256W        W46730   4.533   0.032   2.558 -0.0905  0.3291  0.1369
30257W        W46731   3.564   4.294   4.536  0.2856  0.0263 -0.1474
30258W        W46732  11.881  10.030  15.601  0.0733  0.2602 -0.1562
30259W        W46733   7.845  17.194  16.002 -0.3237 -0.1541 -0.3306
30260W        W46734  13.648  17.019  14.800  0.2521  0.0309 -0.1962
30261W        W46735  10.778  17.653  16.007  0.1588 -0.1754 -0.0301
30262W        W46736  14.249   1.198   4.886 -0.0444 -0.1854  0.2842
30263W        W46737  17.457   9.332  13.666 -0.0716 -0.1311 -0.0663
30264W        W46738   2.466  16.178   1.224  0.1787  0.2523 -0.1471
30265W        W46739   2.438   1.541   2.912  0.0414  0.1269  0.0820
30266W        W46740  15.503  16.421  13.371 -0.0028  0.2390  0.3126
30267W        W46741   5.744   5.061   2.984 -0.0890 -0.1535  0.2754
30268W        W46742  12.947  16.287   3.525  0.0164 -0.0298  0.2002
30269W        W46743   4.148   2.937  13.767 -0.1852  0.2808 -0.1806
30270W        W46744   2.420   8.939  11.658  0.1655 -0.1082  0.2105
30271W        W46745   3.340   1.458   3.476  0.0571  0.0897  0.0558
30272W        W46746  15.212  11.047  12.445 -0.0207 -0.1024  0.1898
30273W        W46747  14.089   2.104  12.579  0.2255  0.4169  0.2384
30274W        W46748  16.781   8.220  16.089  0.2073  0.1033 -0.1671
30275W        W46749  10.182  15.590  14.304  0.0043  0.1433  0.3317
30276W        W46750   8.495   6.400  15.811  0.3310 -0.5570 -0.3901
30277W        W46751  14.129  14.455  14.321  0.2405  0.0228  0.1178
30278W        W46752   5.198   6.917  16.039  0.0689 -0.2540  0.3740
30279W        W46753  10.505   6.752  15.013  0.1669  0.0547 -0.2949
30280W        W46754   0.744  15.581  11.851  0.0094  0.1164 -0.0884
30281W        W46755   4.660  14.220   0.323 -0.0562 -0.0791  0.1070
30282W        W46756  14.507   0.230   4.496 -0.1024  0.0087  0.0830
30283W        W46757  15.932   7.740  12.135 -0.1220 -0.0742 -0.0482
30284W        W46758  15.147  17.064   4.137  0.0529  0.0623  0.1935
30285W        W46759   7.402   7.129   1.670  0.0179 -0.2612 -0.3312
30286W        W46760  13.717  17.669   4.181  0.1317  0.3275 -0.2420
30287W        W46761   2.155   5.615  16.551 -0.0535  0.0337 -0.1708
30288W        W46762   9.976  16.681  15.808 -0.2999 -0.1879 -0.2720
30289W        W46763  14.057  15.237   2.880  0.3664 -0.0579 -0.0648
30290W        W46764   0.745   9.292   5.185  0.0215 -0.2815 -0.1465
30291W        W46765  10.300  17.787   3.409 -0.1949  0.2378  0.1142
30292W        W46766  14.461   7.268   2.032 -0.0110 -0.1667  0.0942
30293W        W46767  11.149   1.225   2.510  0.1069  0.1812 -0.4518
30294W        W46768   5.000   3.892   2.121  0.2891 -0.1156 -0.0168
30295W        W46769   3.134   9.744   1.867 -0.1877 -0.0325  0.0596
30296W        W46770  17.367  10.399  11.957 -0.0264 -0.0734 -0.0376
30297W        W46771  11.657   1.545  14.685 -0.2007  0.0672  0.2860
30298W        W46772   3.700   4.968   1.163  0.1094  0.1648 -0.1823
30299W        W46773   2.230   5.222  14.639  0.1314  0.0400 -0.1163
30300W        W46774  15.322  11.151   3.558  0.2256 -0.0747 -0.2310
30301W        W46775  11.249  17.664   3.255  0.1610  0.1033 -0.0622
30302W        W46776   4.154   1.862  14.051 -0.3253  0.3119  0.2167
30303W        W46777  15.678   5.074  12.227 -0.0054  0.0077  0.0677
30304W        W46778  11.639   3.530   1.126  0.0827 -0.0538  0.2709
30305W        W46779  11.765   7.703   0.227 -0.0741  0.2125  0.0602
30306W        W46780  14.731   9.378   6.066 -0.0294  0.0779 -0.0879
30307W        W46781   1.843  13.936  16.287  0.1257  0.0356  0.2050
30308W        W46782   3.927  10.484   1.044 -0.0596  0.0770 -0.1378
30309W        W46783   9.355  15.099  10.356  0.0643  0.1666 -0.2543
30310W        W46784   4.869  16.989  16.109  0.0761  0.1395 -0.2189
30311W        W46785   9.222  17.125  16.352  0.0172 -0.2357 -0.4102
30312W        W46786   1.642  13.783  15.288 -0.1641 -0.0619  0.0145
30313W        W46787   3.280  15.120  12.416  0.0368 -0.3032  0.1918
30314W        W46788  11.160  10.698  15.895  0.1321  0.0087 -0.1272
30315W        W46789   3.989   2.729  14.232  0.0511  0.2385  0.0466
30316W        W46790  11.903  16.060  13.433  0.0426  0.1137 -0.0139
30317W        W46791  13.817   3.150   5.075 -0.1420  0.1790  0.0704
30318W        W46792   7.116   1.591  15.431  0.1042 -0.1979  0.3538
30319W        W46793  15.240   2.307   1.594  0.2103 -0.2561 -0.2469
30320W        W46794   3.726   1.379   3.780 -0.2904 -0.0826  0.1494
30321W        W46795  14.640   7.366  12.799  0.1524 -0.0496 -0.0219
30322W        W46796   2.603  11.508   4.415  0.1680 -0.0091  0.1082
30323W        W46797   5.110  14.581   4.015  0.2409 -0.2183 -0.2985
30324W        W46798   8.386  10.280   2.617 -0.1602  0.0610  0.1579
30325W        W46799  14.945  14.801  13.064  0.1255  0.2160 -0.2387
30326W        W46800  13.805   4.385   2.882 -0.1448 -0.1233 -0.1769
30327W        W46801   9.831   2.314   5.297 -0.1033  0.1741  0.2440
30328W        W46802   1.168   6.977   3.377 -0.1629 -0.0264  0.1228
30329W        W46803  16.880  14.423  13.926 -0.3162 -0.0236  0.1659
30330W        W46804   1.453   2.533  15.496  0.2516 -0.2441  0.1044
30331W        W46805   8.641   3.412   1.248 -0.0845  0.2269  0.1909
30332W        W46806  13.308   1.368   5.344  0.0570 -0.1545 -0.2542
30333W        W46807   2.125  17.477   4.781  0.3496 -0.1653  0.0602
30334W        W46808   7.401  14.193  12.438 -0.1562 -0.0598  0.1827
30335W        W46809   0.442   0.321   1.869  0.0893  0.0905 -0.0112
30336W        W46810   8.383   0.452   4.563  0.1545  0.2734 -0.2795
30337W        W46811   7.297   8.961  14.201 -0.1223  0.2632  0.1410
30338W        W46812   6.265  13.679   3.364 -0.3186  0.1329  0.0727
30339W        W46813   3.748   4.760  11.930  0.0238  0.1111  0.0130
30340W        W46814  15.963  12.359   2.179 -0.1133 -0.3032  0.0591
30341W        W46815   3.782  13.405  14.425  0.0497  0.5191 -0.0298
30342W        W46816   8.244   4.702   1.353  0.0977  0.1667 -0.0088
30343W        W46817   3.578   6.787  13.077 -0.3105  0.0960 -0.1311
30344W        W46818   6.669   0.919  13.100  0.3472  0.0438  0.0579
30345W        W46819  15.632   8.837  14.597 -0.2832  0.2354  0.2175
30346W        W46820  12.740  12.447  16.469  0.2614  0.0543 -0.0084
30347W        W46821  13.790   7.791   2.713 -0.1280 -0.0543 -0.3606
30348W        W46822   0.661   9.896   3.210 -0.1655 -0.0584 -0.0505
30349W        W46823   9.029  15.323  16.664 -0.1675 -0.2220  0.0116
30350W        W46824  14.595  11.661   0.069  0.0915 -0.2340 -0.1995
30351W        W46825   8.134   4.377  12.096  0.0650 -0.0342  0.1121
30352W        W46826  10.986   9.126  12.241 -0.1139  0.0672 -0.0163
30353W        W46827   3.699  14.252  15.016  0.2232  0.0868  0.2332
30354W        W46828  14.533   7.167  16.031 -0.1158  0.0758 -0.1126
30355W        W46829   4.642  14.677   3.174  0.0623  0.1096  0.0512
30356W        W46830  11.588   3.956  15.303  0.3591 -0.0377 -0.0070
30357W        W46831  12.329   3.236   3.389 -0.2326 -0.1635  0.0096
30358W        W46832   8.834  11.621   4.314  0.0344 -0.1201 -0.0319
30359W        W46833   7.621  14.655  14.214 -0.1960 -0.1133 -0.1529
30360W        W46834  11.485  16.646  12.998 -0.0861  0.3098  0.1590
30361W        W46835  17.075  11.263  15.445 -0.1270 -0.0948 -0.1809
30362W        W46836   6.217  10.326  16.872 -0.0457  0.0259  0.1403
30363W        W46837  16.552   8.732   5.781 -0.7044 -0.1673 -0.1073
30364W        W46838   7.033   4.013  12.059  0.2304  0.0973  0.1966
30365W        W46839  17.809  10.846   1.726  0.0453 -0.1263  0.0833
30366W        W46840  16.686   8.382  12.149 -0.1374  0.3362 -0.1034
30367W        W46841  17.745   8.684   4.394 -0.1987 -0.0648  0.1198
30368W        W46842   2.069   8.992   2.367 -0.2318 -0.0861  0.1966
30369W        W46843   9.150  10.585  13.605 -0.1611 -0.0060  0.0215
30370W        W46844  16.490   2.934  15.910  0.2384 -0.0860 -0.1688
30371W        W46845  12.003  10.049  12.511 -0.1377 -0.0371 -0.0458
30372W        W46846   1.131  16.596   1.395 -0.0281 -0.0857  0.5856
30373W        W46847  15.987  15.101   3.950  0.1630 -0.0595 -0.0844
30374W        W46848  15.354   9.113   2.235 -0.0515 -0.0724  0.0125
30375W        W46849  11.362  14.030  14.032  0.0316 -0.0814  0.0827
30376W        W46850   5.297   2.296  14.022 -0.1783 -0.0926 -0.3394
30377W        W46851   5.929   0.153  16.897  0.0934 -0.0029 -0.2589
30378W        W46852   9.077  13.242   1.972 -0.1965 -0.0772  0.0391
30379W        W46853   1.193   5.164   5.091 -0.0600 -0.0089 -0.0050
30380W        W46854  12.134  15.728  13.047  0.0312 -0.2384 -0.4287
30381W        W46855   6.559  12.519  16.830 -0.0369  0.0259 -0.0155
30382W        W46856   8.296  10.946  14.895  0.0539  0.1939 -0.1442
30383W        W46857   2.910   0.867   1.694  0.3231  0.1626 -0.0877
30384W        W46858  16.777   1.474   5.661  0.1365 -0.1019  0.1616
30385W        W46859   9.186  16.740  12.200 -0.0769 -0.0424  0.0674
30386W        W46860   5.242   7.627  11.910  0.1016 -0.1571  0.1132
30387W        W46861   8.035   9.039   5.585  0.1685 -0.3549  0.1082
30388W        W46862  10.335   1.370   3.436  0.0022 -0.1226  0.0673
30389W        W46863   2.738   6.808   4.584 -0.0960 -0.0926  0.2056
30390W        W46864   2.564  13.347   4.072  0.0539 -0.2709 -0.2192
30391W        W46865   9.380   2.237   5.015 -0.1121 -0.4365 -0.4085
30392W        W46866   1.919  15.730   2.694 -0.0751 -0.0022 -0.0965
30393W        W46867  10.965  17.176  16.150 -0.4216 -0.1536  0.1807
30394W        W46868   7.169   7.107  16.643 -0.1860 -0.2368 -0.0981
30395W        W46869   9.480   2.418   1.754  0.2093  0.0269 -0.0917
30396W        W46870  16.883   0.283   5.098 -0.1266  0.4160 -0.0080
30397W        W46871  13.528  10.988   2.040 -0.1948 -0.0785  0.2573
30398W        W46872  11.369  16.962   1.814 -0.1185  0.1347 -0.1929
30399W        W46873  10.047   5.900  14.118  0.1933 -0.1003  0.0312
30400W        W46874   2.583  15.921   0.215 -0.1997  0.1023 -0.2203
30401W        W46875   5.309  11.122  14.742 -0.0211  0.1024 -0.0047
30402W        W46876  13.855  16.634  12.058  0.0132 -0.1110 -0.0212
30403W        W46877   0.406   0.601  16.807 -0.1432 -0.0056 -0.2015
30404W        W46878   7.545  11.574   1.353 -0.1074 -0.2874 -0.0813
30405W        W46879  12.188   4.877  13.839 -0.0512  0.2408 -0.2245
30406W        W46880   0.594  10.090  15.148 -0.0514  0.0718 -0.1103
30407W        W46881   1.410   8.626  16.258  0.1888  0.0505  0.0774
30408W        W46882  14.612   6.467  12.194  0.1169  0.0479 -0.0406
30409W        W46883  10.722   0.046   0.215  0.3250  0.0908  0.1122
30410W        W46884   4.681   3.526   5.434 -0.0789  0.1530  0.2010
30411W        W46885   8.008   1.948  16.269 -0.0358 -0.2180 -0.2771
30412W        W46886   9.963   6.893   2.077 -0.2887 -0.2206  0.1711
30413W        W46887  17.273  13.552   4.464  0.1369 -0.1220 -0.0538
30414W        W46888   0.264   1.789  11.833 -0.0956 -0.1589  0.2670
30415W        W46889   5.356  11.964   2.128 -0.0312  0.2547 -0.1472
30416W        W46890   9.865   0.481  16.687 -0.1124 -0.0783 -0.0331
30417W        W46891   9.041  16.113  11.142  0.1277 -0.0324  0.3940
30418W        W46892   4.057  10.976  15.350  0.1424 -0.0609  0.0975
30419W        W46893   9.777  13.579   1.119 -0.1097 -0.0578  0.1916
30420W        W46894  12.460   3.000   6.059 -0.2618 -0.0145  0.1512
30421W        W46895   0.936  12.403   2.274  0.1222  0.1387 -0.2344
30422W        W46896   8.544  10.659  13.978  0.1763  0.0041  0.0586
30423W        W46897  14.422  16.956   3.965 -0.0403  0.3017 -0.2719
30424W        W46898   3.406   9.040   1.665  0.1599  0.0171  0.0269
30425W        W46899   2.129   5.095   1.175 -0.0816  0.1484  0.1254
30426W        W46900  11.379  14.438  14.357 -0.0957  0.1031  0.0665
30427W        W46901   6.292  13.738   6.000  0.0035  0.1016  0.0290
30428W        W46902  10.226   9.325   4.600  0.1498 -0.0272  0.1028
30429W        W46903   6.218   7.773  15.277  0.2341 -0.2939  0.1571
30430W        W46904  13.779  14.088  14.301  0.0267 -0.0132 -0.3034
30431W        W46905   5.476   4.896   0.939  0.0185  0.2091 -0.0306
30432W        W46906  13.908   4.413  16.288 -0.1291  0.0320  0.1533
30433W        W46907   9.477   2.712  13.106 -0.0779  0.1478 -0.1219
30434W        W46908   1.530  11.135  10.901 -0.0695 -0.1190 -0.0702
30435W        W46909   0.438  13.488   4.538 -0.0114  0.2808 -0.1525
30436W        W46910  12.814   4.457  15.632 -0.1237 -0.0522  0.1026
30437W        W46911   6.812   4.000   3.365 -0.0904  0.0102 -0.0045
30438W        W46912   5.828   9.998  13.601 -0.1574 -0.3538 -0.3563
30439W        W46913   5.550   3.544   0.283  0.1094  0.1060 -0.0221
30440W        W46914  10.348   3.940   4.762 -0.0518 -0.0206  0.2574
30441W        W46915   5.443   3.534   3.778  0.1703 -0.1682 -0.1144
30442W        W46916   1.156  14.178   4.713  0.0880 -0.2051  0.1404
30443W        W46917  12.269   8.629   6.075  0.0502 -0.1943  0.0584
30444W        W46918   8.457   7.452   0.089 -0.2774  0.0631  0.0098
30445W        W46919   1.842  15.903  16.275  0.0950  0.0803  0.2228
30446W        W46920   5.157   2.706  13.646  0.1158  0.0261 -0.1892
30447W        W46921   9.769  15.965  14.117 -0.0299  0.0858 -0.0824
30448W        W46922   8.733   7.171  14.457 -0.0793 -0.0438 -0.1329
30449W        W46923   1.596   1.790  16.445 -0.2064  0.1623  0.0129
30450W        W46924   0.045   0.574  14.023  0.2828 -0.1128 -0.4544
30451W        W46925   0.897  11.322   0.762 -0.2783  0.1587  0.1523
30452W        W46926   9.563  14.254  11.524 -0.1648  0.2678  0.0272
30453W        W46927   9.879   6.554   4.437  0.0039  0.0958  0.0022
30454W        W46928  17.626  11.012   5.548 -0.1318 -0.0380 -0.0009
30455W        W46929   4.746  11.417   3.391 -0.3138 -0.0732  0.0875
30456W        W46930  10.264   3.622   5.167 -0.2817  0.0712  0.2355
30457W        W46931  11.571  15.066  12.618 -0.2413 -0.0856 -0.1025
30458W        W46932  14.823   3.102  14.012  0.2212  0.0749 -0.1991
30459W        W46933   4.154   0.061   4.643 -0.0028  0.1505  0.1151
30460W        W46934  14.261  12.841   4.458  0.0877  0.0256  0.0375
30461W        W46935  13.679  11.765  15.480  0.1769  0.0373  0.2184
30462W        W46936  11.508  16.904  11.290 -0.2038  0.0049 -0.0555
30463W        W46937   4.257  15.982   5.283 -0.0129 -0.0003 -0.0038
30464W        W46938  13.504   1.622  13.750  0.2617  0.2031  0.0007
30465W        W46939   7.225  16.965   5.211 -0.1997  0.1925  0.0380
30466W        W46940   1.313  17.454   3.025 -0.0453 -0.1056 -0.2494
30467W        W46941   4.944  10.802  14.509  0.2213 -0.2734 -0.1368
30468W        W46942   2.428  12.318  15.963 -0.3047 -0.2467  0.0497
30469W        W46943   7.282  17.702   0.041 -0.0717 -0.3081 -0.1560
30470W        W46944   8.301  16.579   4.490 -0.2288  0.1502  0.0170
30471W        W46945  16.576  12.454   3.141  0.1330  0.0093  0.0076
30472W        W46946  10.952  13.910  13.237  0.0352  0.3130 -0.1706
30473W        W46947   1.769  10.606  15.293  0.0396  0.1581  0.1779
30474W        W46948  14.530  14.548   3.344 -0.2207  0.1471 -0.2105
30475W        W46949  11.539   3.604   3.272 -0.4121 -0.1043  0.1500
30476W        W46950  14.067  14.954   1.995  0.1573 -0.0860 -0.1159
30477W        W46951   3.685   1.693  12.454 -0.1556  0.0037 -0.1401
30478W        W46952   3.439   7.465   0.739 -0.0057  0.1355 -0.2412
30479W        W46953   3.179   6.070   3.376 -0.0316 -0.2474 -0.1559
30480W        W46954  16.632  12.589  15.727  0.2350 -0.3381 -0.1312
30481W        W46955   7.275  14.373   2.532  0.1276  0.2243 -0.0723
30482W        W46956   8.466   9.878  12.070  0.0476 -0.1831 -0.3078
30483W        W46957  16.523   6.937   0.331 -0.2312  0.1370 -0.1843
30484W        W46958   3.661  16.648  15.695 -0.1798  0.3384 -0.1666
30485W        W46959  16.030   5.270   2.032  0.1726  0.1074 -0.1276
30486W        W46960   2.383  12.594  12.912  0.0407  0.2592  0.2031
30487W        W46961   0.943  10.960   4.040 -0.2003  0.1136  0.1273
30488W        W46962   6.102   5.319  12.421 -0.0509  0.0738 -0.0221
30489W        W46963  12.047   8.627   3.205 -0.1728  0.1810  0.0046
30490W        W46964  11.112   2.298   5.968  0.2546 -0.0640 -0.1829
30491W        W46965   0.384   1.221   3.265 -0.1819 -0.1097  0.0250
30492W        W46966  16.096  13.351   1.400 -0.2629 -0.0043  0.0149
30493W        W46967  14.144  10.609  16.698 -0.0624 -0.3941  0.2342
30494W        W46968   7.033  10.557  14.528 -0.0897 -0.0149  0.0310
30495W        W46969  14.843   5.804  13.578 -0.2240  0.1927 -0.1775
30496W        W46970  10.598   1.462   1.778  0.1560  0.0962 -0.1035
30497W        W46971   0.836  11.637  15.509 -0.2338  0.1570 -0.3159
30498W        W46972  11.568  13.887  11.726  0.0442 -0.1495  0.0936
30499W        W46973  10.225   6.487  12.148 -0.0447  0.0960 -0.0922
30500W        W46974   4.341  14.709   0.044 -0.1381 -0.1742  0.0252
30501W        W46975  16.206   3.793   4.200 -0.1195 -0.2116 -0.1263
30502W        W46976  15.257   3.952  14.297 -0.0091  0.2478  0.1336
30503W        W46977  16.597  11.843  12.739 -0.0031 -0.1899 -0.0457
30504W        W46978  15.554   8.169  12.314  0.1576  0.2560  0.1158
30505W        W46979  12.523  15.717  16.762  0.0968  0.2410  0.0654
30506W        W46980  11.302   8.867   3.765  0.2211  0.1481  0.0570
30507W        W46981  12.678  15.851  13.051 -0.0515 -0.1277 -0.0326
30508W        W46982  11.116   7.426  15.879  0.1508  0.1880 -0.0138
30509W        W46983   5.247   2.091  14.726  0.1171 -0.0555  0.0817
30510W        W46984   6.560   0.129   2.257 -0.1186 -0.0399 -0.0699
30511W        W46985   8.554  12.947   0.884 -0.1056  0.1468  0.0944
30512W        W46986   0.024  15.612   0.581  0.0843  0.0313 -0.2162
30513W        W46987  11.759   2.393   2.895  0.0928  0.1529 -0.2049
30514W        W46988   7.647   8.512  14.981  0.1247 -0.0451  0.3249
30515W        W46989  14.033  11.741   5.802  0.4407  0.0243 -0.1707
30516W        W46990   0.692   3.578   1.947 -0.2809  0.0487  0.3714
30517W        W46991   3.148  10.202  12.720 -0.0404  0.0216  0.2212
30518W        W46992   7.237  13.425   0.649  0.2257  0.2440 -0.1571
30519W        W46993  11.004   0.741   3.084 -0.0306 -0.0313  0.0450
30520W        W46994   4.254  11.498  11.657  0.4220 -0.2891  0.1620
30521W        W46995   2.759   8.160  11.586 -0.0595  0.2344 -0.3084
30522W        W46996  11.649   6.011   2.419  0.1511  0.0432  0.0763
30523W        W46997   5.812  13.289   1.035  0.1545  0.0768 -0.2675
30524W        W46998   9.882   1.992  13.414  0.0556  0.0555 -0.0262
30525W        W46999   5.336   7.021  13.924  0.1379  0.3781 -0.2847
30526W        W47000   4.684   3.428  11.051 -0.0483  0.0410 -0.1472
30527W        W47001   4.967  14.380  11.556  0.1083 -0.0175  0.1420
30528W        W47002   1.613   9.141   0.265  0.2232 -0.0520 -0.0280
30529W        W47003   9.859  12.187  15.328  0.1514 -0.0753  0.0399
30530W        W47004   6.773   7.223  13.951  0.1396  0.2266 -0.1384
30531W        W47005  10.552   1.570   3.065 -0.0607  0.0664 -0.0359
30532W        W47006  17.825  13.215  14.219  0.0354  0.0739  0.0312
30533W        W47007   1.389  17.784  11.856  0.0518  0.2337  0.1830
30534W        W47008  17.042  11.617  15.782  0.1383 -0.2437 -0.3757
30535W        W47009  10.666  16.507  16.484 -0.1746 -0.0978  0.1328
30536W        W47010  10.795   6.134   0.540  0.0420  0.3145 -0.1403
30537W        W47011   5.825   5.533  16.685 -0.1446  0.3307  0.0135
30538W        W47012  15.826   5.473  11.956 -0.0028 -0.2944 -0.2188
30539W        W47013   6.444   3.820   4.904 -0.1866  0.0565 -0.1984
30540W        W47014   7.194  14.312  16.295  0.0989  0.1146  0.0959
30541W        W47015  10.238   3.017   0.591  0.1342  0.0998 -0.2249
30542W        W47016   8.543   0.713   1.052  0.0208 -0.3797  0.2237
30543W        W47017   2.711  12.725  16.072 -0.0045  0.1821 -0.2409
30544W        W47018  14.235  15.591   4.276  0.0534 -0.1918 -0.0850
30545W        W47019   8.406  11.043   1.268 -0.1176 -0.2604 -0.1810
30546W        W47020  17.111   6.949  13.414 -0.3122  0.2539 -0.3859
30547W        W47021   5.847   0.385  15.717  0.3441 -0.2063  0.0975
30548W        W47022   4.572   4.729   5.001 -0.0428 -0.0587  0.0307
30549W        W47023  14.869  10.609  15.448  0.0637 -0.0572 -0.2065
30550W        W47024   3.226   0.310  12.818 -0.1062 -0.0433 -0.2664
30551W        W47025   6.776   1.891  16.570  0.0346  0.1335 -0.0310
30552W        W47026  11.229  12.483  14.536  0.4167  0.1711  0.0167
30553W        W47027  15.876   9.708  14.416 -0.2628 -0.2770 -0.0324
30554W        W47028  17.085   5.857   2.122 -0.0767 -0.3636  0.0871
30555W        W47029  11.676   5.652  16.027  0.1244  0.1174  0.2274
30556W        W47030   3.338   2.444   0.995  0.1321 -0.0996 -0.2307
30557W        W47031   6.638  17.370  16.544 -0.1841  0.1146 -0.0183
30558W        W47032  17.224  13.807  12.439  0.2123  0.1395  0.2175
30559W        W47033  17.234   2.160   6.120  0.0458  0.1601  0.0213
30560W        W47034   0.901   6.103  13.252 -0.1517  0.1552  0.0904
30561W        W47035  11.461  17.199  14.642  0.2472  0.0020 -0.0661
30562W        W47036   4.987   0.690   1.324  0.1685 -0.1045  0.0033
30563W        W47037   6.857  12.658   4.232  0.2474  0.0566 -0.1608
30564W        W47038   7.148   3.071  12.640 -0.0381 -0.3456  0.2869
30565W        W47039   5.179   9.934  12.025 -0.1519  0.0123 -0.0534
30566W        W47040   5.403  15.020   1.388 -0.3249 -0.1413  0.2870
30567W        W47041  10.600  10.415  15.078  0.1564 -0.0791 -0.0414
30568W        W47042  13.520   8.453   3.248 -0.0185  0.0098 -0.0800
30569W        W47043   2.073   3.191  15.512 -0.0599  0.0524 -0.2156
30570W        W47044  12.629  15.168  14.849  0.1229 -0.0110 -0.2129
30571W        W47045   6.824   8.140   3.438 -0.1438  0.0594 -0.3051
30572W        W47046  16.801   7.800   5.267  0.2978  0.2002  0.0536
30573W        W47047   5.016  14.681   0.560 -0.0200 -0.0228  0.2746
30574W        W47048   4.171   5.133   1.049 -0.0136 -0.0472 -0.1033
30575W        W47049  14.420   7.908   1.161 -0.0546 -0.1591 -0.2273
30576W        W47050  11.874   3.992   1.248 -0.2200 -0.2354  0.1329
30577W        W47051   0.896   2.311  13.105  0.0096 -0.2035  0.0580
30578W        W47052   8.892   4.987   3.422 -0.1091  0.0812 -0.0063
30579W        W47053   3.859   5.754  12.316  0.3409 -0.1023  0.0389
30580W        W47054  16.686   8.651  15.110 -0.1744  0.0667 -0.0908
30581W        W47055   9.943  16.705   3.697 -0.0793 -0.3060 -0.1284
30582W        W47056   9.379   7.150   5.553  0.1196  0.0818  0.1997
30583W        W47057   1.633   1.381  13.565  0.4802 -0.2846 -0.0454
30584W        W47058   2.097   3.247  13.899 -0.4752  0.2570  0.1749
30585W        W47059   3.613   4.870  15.560  0.0631  0.2153  0.1238
30586W        W47060   9.894   9.424   1.650  0.1014  0.0844  0.1019
30587W        W47061  17.325   6.502  14.354  0.0993  0.0713 -0.1217
30588W        W47062   6.993  12.959  12.671  0.2309  0.0693 -0.2722
30589W        W47063  17.322  16.372  13.682  0.1648  0.1130 -0.0524
30590W        W47064  15.000   0.401   4.611  0.3686  0.0478 -0.0187
30591W        W47065   3.812   6.943   0.723 -0.0294  0.0904  0.2810
30592W        W47066   6.224   1.833   0.342  0.0839 -0.2239  0.0418
30593W        W47067   5.769   7.642  14.962 -0.0267 -0.1103 -0.0922
30594W        W47068   5.224  15.254   1.748  0.2435 -0.1471  0.2449
30595W        W47069   4.546  16.978  12.826  0.1413  0.3796 -0.3235
30596W        W47070   8.390   6.105   3.856  0.0593 -0.1030 -0.0883
30597W        W47071   0.679   2.127  13.804  0.2892 -0.2136  0.3701
30598W        W47072   6.590   4.014  12.259 -0.0283 -0.2063  0.2088
30599W        W47073  17.651   1.273  13.281 -0.2893  0.0320 -0.0712
30600W        W47074  15.627  10.775   0.337 -0.0192  0.1454  0.1676
30601W        W47075   5.973  14.726  14.596  0.1299 -0.2625 -0.1634
30602W        W47076  14.149  12.000  16.596  0.0504 -0.2754 -0.0088
30603W        W47077  12.770   1.888  15.596  0.0361  0.1523  0.1493
30604W        W47078   8.995   2.456   1.102 -0.1376  0.0137 -0.2309
30605W        W47079   6.602   4.172   1.854  0.0381  0.1616 -0.2821
30606W        W47080   5.054  10.569   2.278 -0.0355  0.3388  0.1588
30607W        W47081   0.971   2.393   2.091 -0.1144 -0.0745 -0.2158
30608W        W47082  11.275   2.602   4.284  0.1137  0.1095  0.1175
30609W        W47083  17.667   0.143  15.296 -0.0705  0.1518 -0.1170
30610W        W47084   5.944  17.661  15.894 -0.1193 -0.1164  0.0662
30611W        W47085  10.209   2.932   3.785  0.3143 -0.1916  0.0328
30612W        W47086   3.082  13.784   1.202 -0.1087  0.2668 -0.1123
30613W        W47087  14.865  13.358  12.899 -0.1598  0.2590  0.1752
30614W        W47088  13.629   0.193   4.568 -0.1847 -0.0313 -0.1274
30615W        W47089   1.947   4.524  15.152  0.1669  0.1282 -0.3998
30616W        W47090  16.276   2.639  15.016  0.2089  0.1051 -0.0483
30617W        W47091   0.151   4.883  11.736 -0.1942  0.2186  0.2084
30618W        W47092  10.872  13.283   1.664 -0.0016 -0.0676 -0.1112
30619W        W47093  16.243  13.175  12.990 -0.0351  0.1739  0.0461
30620W        W47094   2.718  13.231   4.812 -0.1998  0.0979  0.1344
30621W        W47095  16.488   6.960  14.045 -0.1464 -0.1923  0.1701
30622W        W47096   5.870   3.004   5.485 -0.1097  0.0506  0.2446
30623W        W47097  10.775  13.089   0.400  0.1417 -0.0579  0.1669
30624W        W47098  13.809  17.014  16.456 -0.1637  0.2139 -0.0176
30625W        W47099   7.004  17.165  15.997 -0.1590  0.0979 -0.3142
30626W        W47100  12.587   6.765  11.974  0.2595  0.0409 -0.0449
30627W        W47101  10.970   7.381  12.010 -0.0573 -0.2355  0.1253
30628W        W47102  16.707   0.885   5.566 -0.3053  0.0570  0.3544
30629W        W47103   7.826  14.589   0.631  0.0931 -0.4448  0.2274
30630W        W47104   1.668  16.022  11.504  0.0207 -0.3178  0.1003
30631W        W47105   3.051  11.858   3.918  0.1487 -0.2878 -0.1704
30632W        W47106   9.431  10.151   4.340 -0.1513 -0.2339  0.1844
30633W        W47107   6.514   5.127   2.993 -0.0144 -0.1022 -0.0364
30634W        W47108   3.177  10.096  13.751  0.0882 -0.2550  0.1291
30635W        W47109  14.536   2.980  15.575 -0.1722 -0.1680  0.0158
30636W        W47110   4.786   9.047   1.791  0.0730  0.0897 -0.1694
30637W        W47111   3.331   7.633   2.784  0.0191 -0.2575  0.0511
30638W        W47112   3.644   2.167   1.268 -0.0694  0.1352  0.4030
30639W        W47113  13.164   8.438   3.582  0.3252 -0.2506 -0.1396
30640W        W47114   2.561   3.996  12.394  0.3100  0.3280 -0.0967
30641W        W47115   1.251   8.080   1.421 -0.0063  0.2269 -0.1030
30642W        W47116   3.521   7.610   0.118  0.1162  0.4092 -0.1557
30643W        W47117   6.858   1.963  15.679 -0.0692 -0.1213  0.0405
30644W        W47118   7.882   6.274   3.652  0.2067 -0.2262 -0.1317
30645W        W47119   6.703   2.551   3.033  0.1468  0.0745  0.0121
30646W        W47120   2.586  12.454  14.633  0.0545 -0.2764  0.0003
30647W        W47121  17.086   1.743  16.233  0.0209 -0.2257  0.1395
30648W        W47122   2.510   1.673   4.139  0.0450 -0.2445  0.4045
30649W        W47123  14.553   4.549   2.120  0.0092 -0.0074  0.0977
30650W        W47124   0.437   3.914  13.738 -0.0590  0.3958  0.1647
30651W        W47125   7.470  10.168  12.771  0.0244 -0.1303  0.0417
30652W        W47126   0.545  11.661   1.513 -0.2753  0.2368  0.0775
30653W        W47127  10.753   3.044  12.621  0.1915  0.0976  0.0159
30654W        W47128  16.941   4.704   2.093  0.0375  0.0139  0.0846
30655W        W47129   3.907  10.996   3.222 -0.2897  0.0217  0.2860
30656W        W47130   3.984   0.918  14.944 -0.0071 -0.3243 -0.0596
30657W        W47131   7.164   4.130   2.973 -0.0972  0.0278  0.0628
30658W        W47132   4.342   5.274   4.116  0.0761 -0.0784 -0.0623
30659W        W47133   4.627   1.250  13.698  0.0286  0.0395  0.0862
30660W        W47134  12.680  13.696   0.259  0.3586  0.0957 -0.0029
30661W        W47135   4.161  10.342   5.907 -0.3402 -0.0231 -0.0456
30662W        W47136  12.529   6.919   0.750  0.0829  0.0139 -0.0723
30663W        W47137  16.512   5.884  13.839 -0.2729 -0.4989 -0.0607
30664W        W47138  10.196   1.759  13.029  0.1187 -0.1851 -0.2874
30665W        W47139   5.852  12.806  14.809  0.3207  0.2100 -0.2448
30666W        W47140  12.803  14.043   5.766 -0.1679  0.0228  0.1388
30667W        W47141   4.878  12.955   5.753  0.0545 -0.0579  0.2769
30668W        W47142   1.462  12.730  16.514  0.0682  0.0348 -0.1372
30669W        W47143   6.584  14.008   2.722  0.0223 -0.2476  0.3773
30670W        W47144   0.990   4.746   1.295  0.0367  0.1191  0.0997
30671W        W47145   0.494  10.629  16.456 -0.1770  0.3303  0.0737
30672W        W47146   2.473  17.820  16.289  0.4229  0.2235 -0.0976
30673W        W47147   2.660   7.832   1.247 -0.0957  0.1546 -0.0481
30674W        W47148  16.584   4.025  12.608  0.4651 -0.0795  0.0071
30675W        W47149   0.404   1.470   0.428 -0.0424 -0.0769 -0.0028
30676W        W47150   4.927   4.067   1.442  0.1089  0.3386  0.3080
30677W        W47151  16.349  12.588   3.974  0.1407  0.0558 -0.0080
30678W        W47152   3.797   6.712   3.945  0.0948 -0.0557  0.1375
30679W        W47153  15.588   6.537   3.432  0.1001  0.2190  0.2708
30680W        W47154  10.523  14.277   3.060  0.0771  0.0798 -0.1870
30681W        W47155   0.541  17.602   4.212 -0.0878 -0.1414 -0.0414
30682W        W47156  15.464  12.665  11.649 -0.0424 -0.0815  0.2600
30683W        W47157  16.202  12.251  15.612  0.0338  0.4123 -0.0578
30684W        W47158   1.065   8.751  12.830  0.0117  0.0319 -0.0153
30685W        W47159  17.284   8.106   2.151  0.1659  0.0426 -0.0386
30686W        W47160  12.428   2.072  12.365 -0.0396 -0.2992  0.1647
30687W        W47161   9.585  12.639  16.611  0.2974  0.0891  0.1780
30688W        W47162   4.585   7.768  15.635  0.0206  0.2989 -0.1294
30689W        W47163   8.728   9.498  12.051 -0.1835  0.5989 -0.1599
30690W        W47164  17.019   7.077   1.171  0.0896  0.0238  0.1564
30691W        W47165  10.784   0.483   4.409 -0.1290  0.0558 -0.0353
30692W        W47166   7.814   4.625  12.355  0.2995 -0.3981  0.4474
30693W        W47167   1.170   1.745   3.745 -0.1609  0.1398 -0.0575
30694W        W47168   6.742  12.465   1.203 -0.0264  0.0505 -0.0423
30695W        W47169   8.097   2.435  16.077 -0.0939  0.1121 -0.1271
30696W        W47170   8.453  13.671   4.079  0.1600  0.1352  0.0106
30697W        W47171   8.695  10.275   4.972 -0.2236  0.0095  0.0602
30698W        W47172  15.930   0.368   1.067 -0.1861  0.1632 -0.0467
30699W        W47173   7.877  15.516   0.651 -0.0821 -0.3378 -0.0568
30700W        W47174  10.874   4.995  15.948 -0.1540  0.0017  0.1305
30701W        W47175   8.482   9.647   2.575  0.0740 -0.2852 -0.0987
30702W        W47176   9.462  17.504  11.277  0.2871  0.0403 -0.1750
30703W        W47177  17.191   6.539   5.227  0.1999 -0.1047 -0.1333
30704W        W47178   5.294   2.594  14.722  0.2015 -0.2761  0.0654
30705W        W47179   7.644   5.708   4.887 -0.2584 -0.2562 -0.0976
30706W        W47180   0.274   5.259   4.651  0.2730 -0.0623  0.1030
30707W        W47181  12.388   9.975  14.142  0.3423  0.3789 -0.3416
30708W        W47182   3.383   9.701  14.223 -0.2167 -0.2548  0.1785
30709W        W47183  11.561   9.373   2.420 -0.1290 -0.0069 -0.0931
30710W        W47184   9.490   6.371   5.364 -0.1495  0.0018 -0.1045
30711W        W47185  13.339   4.435   5.483  0.2881 -0.2157  0.1037
30712W        W47186  17.122  10.269   4.388  0.0320  0.3620  0.3517
30713W        W47187   5.725  12.144  12.351  0.1147 -0.1721 -0.2297
30714W        W47188   5.956   5.434   5.783 -0.1434 -0.0938  0.1102
30715W        W47189   0.428  13.887   3.661 -0.1470 -0.2311 -0.0131
30716W        W47190   4.891  14.341   1.522  0.3279  0.0336 -0.1255
30717W        W47191  16.351   0.772  14.332  0.0192 -0.0461  0.1543
30718W        W47192  14.194   5.875   5.153 -0.1367 -0.1796  0.2606
30719W        W47193   7.798   2.159  15.761  0.0939  0.1481 -0.1665
30720W        W47194  11.008   0.888   4.105  0.0070  0.2340  0.0670
30721W        W47195  16.048   7.372   0.943  0.1032  0.2429 -0.0468
30722W        W47196  17.099   9.914   5.840  0.0870 -0.0786  0.0858
30723W        W47197  17.669  16.967   4.639  0.0954 -0.1139 -0.0616
30724W        W47198   0.165  10.469  16.000 -0.1630  0.2226  0.0744
30725W        W47199   7.058  16.610  11.823  0.0424  0.1699  0.1401
30726W        W47200  12.936  13.158  12.338  0.0927  0.1893 -0.3982
30727W        W47201   1.905  13.371   0.074 -0.1761 -0.4329  0.1398
30728W        W47202   4.638  17.384   1.961  0.0847 -0.1233  0.0002
30729W        W47203   6.773   2.331  15.298  0.1085  0.1031 -0.1086
30730W        W47204   0.029  10.242  12.221 -0.1694 -0.1193 -0.2221
30731W        W47205   5.792  17.537  13.787  0.2864  0.3173 -0.3764
30732W        W47206   7.344   6.527   5.357 -0.2514 -0.0089  0.1154
30733W        W47207  13.417   0.736  15.078 -0.3261 -0.0561  0.1525
30734W        W47208  13.028  13.840   1.779  0.3616 -0.3067  0.0967
30735W        W47209   6.367   2.672  12.742 -0.1065  0.2159 -0.0215
30736W        W47210  13.802   9.677   3.202  0.2168  0.3599  0.0636
30737W        W47211  17.578   7.517   0.547 -0.0213 -0.3244 -0.0745
30738W        W47212   2.145  14.726  14.968 -0.1380 -0.0563  0.0612
30739W        W47213  12.933  11.966  13.044 -0.0428 -0.0897 -0.1204
30740W        W47214  14.411   4.230  13.770  0.0769  0.0452 -0.0856
30741W        W47215   2.233   9.377   2.786 -0.1673 -0.2413  0.1663
30742W        W47216   9.585   1.665  15.237 -0.0403  0.1161  0.0810
30743W        W47217   0.348   0.291  14.441 -0.1448  0.2734  0.0999
30744W        W47218   7.794   8.665   5.373 -0.1041 -0.1556 -0.0977
30745W        W47219   6.527   4.272  11.822 -0.0081  0.1699  0.0828
30746W        W47220   2.571   8.440   1.961  0.0023  0.2984  0.1498
30747W        W47221   1.001  16.081  13.583  0.1861  0.4954  0.1484
30748W        W47222   3.072  13.199   3.946 -0.0215 -0.2860  0.0041
30749W        W47223  11.500  11.551  16.568 -0.2315  0.0727 -0.0087
30750W        W47224   1.863   0.042   0.618  0.1137 -0.0740 -0.1143
30751W        W47225   6.771  17.496   6.347  0.0885  0.0372  0.2206
30752W        W47226  13.765   6.512   2.071 -0.0162  0.1306 -0.3148
30753W        W47227   2.085   0.373   3.800 -0.0488  0.1707  0.1476
30754W        W47228  15.307   7.799  16.691  0.0407 -0.0302  0.0812
30755W        W47229   4.797  15.161  12.609  0.0024 -0.2756  0.0758
30756W        W47230   4.869   5.833   3.287 -0.1105 -0.1426  0.2540
30757W        W47231  15.658   4.450  13.056  0.4505  0.0190 -0.0430
30758W        W47232   4.336  13.517  13.454  0.1833 -0.0171 -0.1888
30759W        W47233   6.555   1.448   4.376  0.1924 -0.1085  0.2314
30760W        W47234   1.400   5.284  15.010  0.0813 -0.1774 -0.0608
30761W        W47235   6.334  17.106   1.713  0.0601  0.0819 -0.0987
30762W        W47236   3.803   6.147  14.741 -0.2925  0.1558 -0.0315
30763W        W47237   8.036  14.572  12.053 -0.1873 -0.0140  0.1908
30764W        W47238  11.293  16.180   3.612  0.1160 -0.0843 -0.0202
30765W        W47239  11.773   1.852   0.231 -0.3321  0.2826  0.1078
30766W        W47240  12.670   0.299  14.508 -0.0356  0.0387 -0.0547
30767W        W47241  15.914   3.025  15.679 -0.0101  0.4228 -0.0846
30768W        W47242  13.930   8.794   0.238  0.1061 -0.1614  0.0322
30769W        W47243  12.320  17.068  14.915 -0.0554  0.1467  0.1752
30770W        W47244  12.132  13.207  12.820  0.1473  0.3993 -0.0226
30771W        W47245   1.435  14.047   2.729 -0.0829  0.2293 -0.4954
30772W        W47246  15.880   2.730   0.383  0.0533  0.1921 -0.0205
30773W        W47247  14.112   6.255   5.859  0.1194 -0.2952  0.0236
30774W        W47248   3.261  14.271  12.919  0.0155 -0.1210 -0.0680
30775W        W47249  13.430  12.182  15.305  0.0555  0.1655  0.1553
30776W        W47250  10.804   3.632   0.604 -0.1567  0.0117  0.1721
30777W        W47251   6.834  17.627   3.720  0.1052 -0.0329  0.1471
30778W        W47252  15.355  12.133  11.588  0.0049  0.0235  0.0894
30779W        W47253  15.848   6.482  15.841  0.2263  0.1600  0.1007
30780W        W47254   1.964   5.797   4.136 -0.2688  0.1246 -0.0870
30781W        W47255   4.611  14.862  14.732  0.1360  0.1326  0.3107
30782W        W47256  10.531   6.287   2.556  0.0400  0.2111  0.0507
30783W        W47257   8.977   3.531   4.541 -0.0451  0.0294 -0.0854
30784W        W47258  11.499   8.277  16.328 -0.3892 -0.0079 -0.1092
30785W        W47259   3.574   9.776  16.358 -0.0319 -0.0353 -0.4086
30786W        W47260   6.191   9.926   4.095  0.3376  0.2353 -0.3163
30787W        W47261  16.855   7.197  15.296 -0.0373 -0.1058  0.0828
30788W        W47262   0.046  10.002   3.381 -0.1067  0.1025  0.2398
30789W        W47263   2.582  10.478  15.225  0.3739  0.0223 -0.1468
30790W        W47264   6.699   1.675   3.092  0.2025  0.1757 -0.1312
30791W        W47265   6.551  15.540  11.153  0.1209 -0.2930 -0.2787
30792W        W47266  17.730  12.484   0.999 -0.1239 -0.1188 -0.0255
30793W        W47267   8.139   0.640   2.273  0.1230  0.1164  0.1229
30794W        W47268  13.482  14.811   3.479 -0.1533 -0.0065 -0.1397
30795W        W47269   0.093   5.558   3.029  0.1272 -0.0346 -0.1876
30796W        W47270   4.957   5.731  13.187  0.0336  0.1387  0.0151
30797W        W47271  10.205  15.287   0.774 -0.1135  0.2576 -0.2551
30798W        W47272  17.731   4.421   5.115 -0.0486  0.2911 -0.2539
30799W        W47273   3.865  16.712  13.549 -0.0685 -0.0374 -0.2867
30800W        W47274   1.225   1.745   2.621  0.1183 -0.0516  0.0121
30801W        W47275  15.145   8.420  12.210 -0.0746 -0.1454  0.0512
30802W        W47276   9.380   2.239   2.316  0.1919  0.0264  0.2704
30803W        W47277  14.463  10.670   5.161  0.1554 -0.1018 -0.0830
30804W        W47278  10.284   0.768   2.654 -0.0530  0.2316 -0.3170
30805W        W47279   7.357   0.621   0.983 -0.0766 -0.0417 -0.1221
30806W        W47280   1.571   5.371   2.038 -0.2564 -0.0890  0.0803
30807W        W47281   2.348  14.616   0.473  0.1853  0.0535  0.0934
30808W        W47282  14.909   8.364   1.838 -0.1817  0.0639  0.0774
30809W        W47283   4.292  17.047   3.797 -0.1397  0.1530 -0.1709
30810W        W47284  13.649   0.733   3.328  0.2426  0.3315 -0.0438
30811W        W47285  17.314  14.476  15.483 -0.0607  0.0691 -0.0989
30812W        W47286   4.220  16.892  11.915 -0.3433  0.1024  0.0693
30813W        W47287   1.613  14.878   2.620  0.2130 -0.1943 -0.1147
30814W        W47288   8.847   5.452  13.766  0.0657 -0.1481  0.2745
30815W        W47289   2.021  17.266  12.922  0.1542 -0.0019 -0.1117
30816W        W47290  16.517   4.413  13.805 -0.3624  0.2767  0.1979
30817W        W47291   3.335  14.730   3.530 -0.1662  0.0389 -0.0254
30818W        W47292  15.964   8.844  16.092 -0.1207 -0.0518  0.1135
30819W        W47293   7.344   9.840  13.231 -0.1030 -0.0406  0.0984
30820W        W47294   5.776   8.550  14.169 -0.0140 -0.2628 -0.1139
30821W        W47295   1.124   7.186  13.804 -0.2183 -0.3448 -0.2288
30822W        W47296  13.999  12.550   5.252  0.0338 -0.2511 -0.1215
30823W        W47297  16.665   3.834   3.788  0.2881  0.0717  0.0518
30824W        W47298  12.966   1.991   4.913  0.0249 -0.0733 -0.0467
30825W        W47299  12.413  15.126  14.356  0.0205 -0.1682  0.2015
30826W        W47300   6.106   3.973   4.084  0.0083 -0.0682 -0.0508
30827W        W47301  15.293  10.561   0.706  0.0130 -0.2111 -0.0468
30828W        W47302  11.666  16.354  12.634 -0.1051 -0.3251 -0.2107
30829W        W47303   4.561   2.986   5.325  0.0372 -0.2453  0.1040
30830W        W47304   9.523  13.246   5.469  0.0252  0.1221 -0.0734
30831W        W47305   5.534  10.867   4.401  0.2672  0.1387  0.2773
30832W        W47306   8.584   4.431   2.029 -0.2410 -0.2890  0.4931
30833W        W47307   4.057  12.831   1.245 -0.1436 -0.0289 -0.0723
30834W        W47308  10.003   2.286  15.564  0.2456 -0.0512 -0.0430
30835W        W47309   0.405  13.328   3.655  0.1396 -0.1263 -0.0450
30836W        W47310   6.928  12.430   4.724  0.1444 -0.1161 -0.1305
30837W        W47311   4.003   0.019  15.554 -0.1243 -0.1351  0.0981
30838W        W47312   1.254  16.393   4.597  0.1454  0.0416 -0.0044
30839W        W47313   3.303   2.158  12.059  0.2035 -0.0871 -0.0339
30840W        W47314   8.799   1.765   1.337 -0.2234  0.1967  0.0461
30841W        W47315   7.212  10.949   0.006  0.0614 -0.1065 -0.1310
30842W        W47316   1.541   2.114  15.217  0.1946  0.0805  0.2854
30843W        W47317   9.149  17.688  16.344 -0.3357 -0.2117  0.1775
30844W        W47318  14.205  16.995   0.865  0.2034  0.1946 -0.1221
30845W        W47319   0.290   8.356  10.697 -0.0291  0.1800  0.1117
30846W        W47320   1.864   4.580   3.229  0.1943  0.0790  0.3766
30847W        W47321   2.423   6.972   3.135 -0.2599  0.0236 -0.0246
30848W        W47322   6.944   7.898   4.519 -0.0674 -0.1597 -0.2302
30849W        W47323   6.754  12.647   3.467  0.0264 -0.0351  0.0676
30850W        W47324   1.097   9.946  11.807  0.1198 -0.1152  0.1699
30851W        W47325  16.872  13.233  15.983  0.0741  0.3531  0.0559
30852W        W47326  16.158   0.593  11.994  0.3327  0.1976  0.3807
30853W        W47327   5.835  13.274  11.827 -0.0151  0.3743  0.0566
30854W        W47328  16.107   3.510   1.695  0.0739 -0.1248 -0.1920
30855W        W47329  13.412   0.868   5.286 -0.0862 -0.0604 -0.1555
30856W        W47330   5.465  13.032  12.100 -0.1203 -0.2073 -0.0431
30857W        W47331  14.850  12.721   6.044  0.1008  0.0721 -0.2494
30858W        W47332  15.168   0.762   4.306  0.2499  0.1541 -0.3873
30859W        W47333   7.633   9.243   2.013  0.2501 -0.0425  0.1579
30860W        W47334   8.482  17.750   1.895 -0.0135 -0.2404 -0.1666
30861W        W47335   0.275   3.068   5.505 -0.1747  0.1158 -0.1271
30862W        W47336   3.749   5.767  15.593 -0.1580 -0.0838 -0.1563
30863W        W47337   8.067  15.268  11.899  0.1091  0.0799  0.1297
30864W        W47338  16.196  14.713  12.227 -0.2727 -0.2075  0.0661
30865W        W47339   8.934   3.261   5.801  0.2879 -0.0084 -0.2751
30866W        W47340   1.037  13.027   0.115 -0.1730 -0.0540 -0.1254
30867W        W47341   0.298  15.908   3.268 -0.1386 -0.1568  0.3494
30868W        W47342   9.252   7.908   1.721  0.3501  0.0490 -0.4398
30869W        W47343  11.899  14.956   0.316  0.2012  0.1094  0.0952
30870W        W47344   7.613   2.801  11.913 -0.0919 -0.1814 -0.0101
30871W        W47345  13.738  17.132  11.806  0.1510  0.2545  0.0710
30872W        W47346   1.936   3.619   4.864 -0.2556 -0.0330  0.1792
30873W        W47347   0.370   7.364   3.614 -0.3277 -0.3144 -0.0562
30874W        W47348  11.568   9.026  14.786 -0.2599 -0.0150  0.0259
30875W        W47349  17.536  10.644  14.984 -0.2364  0.1512  0.0243
30876W        W47350   1.346   3.992   2.005 -0.1213  0.0212 -0.0838
30877W        W47351   9.648   3.684   0.530 -0.0176  0.0931  0.0193
30878W        W47352   9.817   0.204  13.800 -0.0436  0.3102 -0.2091
30879W        W47353  10.209  10.799  16.615  0.1433 -0.0833 -0.1122
30880W        W47354  11.951  10.948  16.456  0.2018 -0.4150 -0.0013
30881W        W47355   0.550   5.913   4.068 -0.2350 -0.0796  0.0345
30882W        W47356  12.192  12.488  12.155 -0.0004  0.0004 -0.4948
30883W        W47357   7.956  10.736  16.154  0.0131  0.0082  0.1688
30884W        W47358  13.273  17.126  16.233  0.0370 -0.1301  0.0142
30885W        W47359   4.237  13.681  12.830  0.0111  0.1524  0.1890
30886W        W47360  14.197   5.146  15.030 -0.1589 -0.0595 -0.0381
30887W        W47361   2.652   0.192  14.721 -0.0582  0.0481 -0.2276
30888W        W47362   6.917   6.208  15.172 -0.2138 -0.0951  0.0393
30889W        W47363   9.843  12.833  15.668  0.0552  0.1547  0.0832
30890W        W47364   0.998   6.885  16.592  0.1559  0.0925  0.1507
30891W        W47365   9.446   2.240  16.612  0.1184  0.0450  0.3802
30892W        W47366  10.409  11.148   1.658  0.0222  0.0770  0.0122
30893W        W47367   2.778  15.805  16.697  0.1717  0.1646  0.1691
30894W        W47368   2.641  16.072   3.419  0.1029  0.1496 -0.0447
30895W        W47369  17.139   4.980  15.236 -0.3238  0.3395 -0.0725
30896W        W47370   0.170   6.410   4.841  0.1492  0.0612  0.1288
30897W        W47371  14.829   3.055  15.108 -0.2937 -0.2070  0.1488
30898W        W47372  17.191  14.173   0.857 -0.0849 -0.0439  0.1292
30899W        W47373  13.112   8.772  13.581  0.1107 -0.0838  0.0367
30900W        W47374  10.968  12.588   0.217  0.2380  0.3104  0.0527
30901W        W47375   9.404  13.721   3.734  0.1215 -0.1395 -0.1739
30902W        W47376  11.464  16.088  14.747  0.0822  0.0573  0.2051
30903W        W47377  13.378  12.336  16.212 -0.1340 -0.0421 -0.1704
30904W        W47378   4.359  15.111  16.102 -0.1424 -0.0231  0.1069
30905W        W47379  12.520   3.100   2.459 -0.0739 -0.0742  0.1816
30906W        W47380   4.559   1.556  13.243  0.0312 -0.2127 -0.1074
30907W        W47381  12.708   6.393  14.266 -0.0374 -0.0014 -0.1348
30908W        W47382  10.055  17.432  11.934 -0.2438  0.4541  0.2810
30909W        W47383   3.692  15.631  14.819 -0.1235  0.1177 -0.0480
30910W        W47384  13.568   2.409  14.137 -0.0630 -0.0663 -0.0881
30911W        W47385  14.797   6.636   1.124  0.0855  0.1166 -0.3245
30912W        W47386   1.580   7.838   3.787  0.1087  0.0880 -0.0291
30913W        W47387   9.849  13.182   0.625 -0.1733  0.0051 -0.0729
30914W        W47388   6.254   4.603   4.888  0.2616 -0.2182 -0.3154
30915W        W47389   9.890   2.047   1.570 -0.2037  0.2906  0.0610
30916W        W47390  15.055   6.519   2.590 -0.0700  0.0495  0.2257
30917W        W47391  11.384  14.793   0.945  0.0443 -0.0239  0.1868
30918W        W47392   5.059  16.690   1.171 -0.1411  0.1390 -0.1274
30919W        W47393   8.241   3.526   1.670 -0.2963  0.1132  0.2018
30920W        W47394   9.189   8.505  16.044 -0.0095 -0.1381  0.1270
30921W        W47395  17.733   6.022  13.166 -0.1711 -0.2229 -0.3887
30922W        W47396   9.118  17.085  14.516  0.0430  0.1692 -0.0875
30923W        W47397   8.662   5.712   1.576 -0.1695  0.0873  0.0125
30924W        W47398  10.839   7.490   2.518 -0.1512 -0.0273 -0.1591
30925W        W47399   0.102   6.759  15.472  0.1149 -0.0153 -0.0633
30926W        W47400  16.270   0.122   0.060  0.1024 -0.1333  0.1227
30927W        W47401   1.417  13.658   2.368  0.0811  0.1465 -0.0619
30928W        W47402  13.938   2.638  16.042  0.1178 -0.0039 -0.1304
30929W        W47403   9.864   9.519  13.752  0.1065 -0.1347  0.0616
30930W        W47404  14.978   5.742   3.848  0.2188  0.2849  0.0403
30931W        W47405   6.344   5.144   5.543  0.0923 -0.0420  0.1288
30932W        W47406   6.033  17.065  13.691 -0.2229  0.1294 -0.0521
30933W        W47407  10.497   0.078   2.022  0.0344  0.1311  0.1337
30934W        W47408  14.643   6.648   2.835 -0.1401 -0.0295  0.0648
30935W        W47409   3.996   0.265   3.253  0.0986 -0.0458  0.0897
30936W        W47410   7.873   1.398   0.708 -0.1060 -0.0355 -0.0305
30937W        W47411   6.041  16.362   0.328  0.0373  0.1380  0.1511
30938W        W47412  10.965   6.922   4.952  0.1267 -0.0052  0.0038
30939W        W47413   7.499  10.981  14.003  0.0097 -0.0383 -0.0855
30940W        W47414   3.955   9.290   2.467  0.1549 -0.0070 -0.0374
30941W        W47415  17.524   0.483   1.077 -0.1977 -0.0860 -0.3212
30942W        W47416  13.204   1.071   4.103 -0.2060  0.0106 -0.3563
30943W        W47417  11.361   1.483  12.171  0.1818  0.1133  0.1401
30944W        W47418   0.731   9.157   4.048  0.0615  0.1742  0.0520
30945W        W47419   5.515  11.226   4.743 -0.0490  0.1944 -0.0819
30946W        W47420   9.973  17.511   1.437  0.0482 -0.4758 -0.1709
30947W        W47421   9.912   4.442   4.283  0.1017 -0.2595  0.1936
30948W        W47422   7.095   6.584   2.408  0.3252 -0.1408 -0.1245
30949W        W47423   3.001   3.868  12.230  0.2166  0.1258 -0.2723
30950W        W47424   5.798   9.508   6.347 -0.2891 -0.1964 -0.0091
30951W        W47425  10.256   4.598   5.559 -0.1771  0.1604 -0.1771
30952W        W47426  10.569   3.825   3.312  0.0538 -0.4549 -0.0157
30953W        W47427   3.253  13.557   4.215  0.0254  0.1070 -0.2862
30954W        W47428   0.371   0.194   2.733  0.2248 -0.1220  0.0814
30955W        W47429   2.279   7.645  16.694  0.3124  0.1027 -0.0250
30956W        W47430  12.865   9.195  15.479  0.3701 -0.0046 -0.1643
30957W        W47431  14.218   7.003  12.807 -0.0260  0.0013 -0.1519
30958W        W47432   8.035   5.997   6.128 -0.1844  0.1418 -0.1005
30959W        W47433   3.475   3.202  12.785  0.1237 -0.0078  0.4640
30960W        W47434   5.010  10.385   1.547  0.0368 -0.0416 -0.0061
30961W        W47435   5.513   3.421  16.693  0.2288  0.1313 -0.0831
30962W        W47436  16.756   8.843   1.160 -0.3611 -0.2004 -0.0162
30963W        W47437  12.502  13.110  14.376  0.2392  0.0022 -0.0164
30964W        W47438  15.183  17.172  13.180  0.2905 -0.0521 -0.1506
30965W        W47439   6.665   1.401  14.323 -0.0984  0.3353  0.0675
30966W        W47440   8.734   0.642  12.693  0.2091  0.0949  0.2391
30967W        W47441  17.607  13.804  15.119 -0.2403 -0.1500 -0.1285
30968W        W47442  12.613   6.633   4.640  0.3303 -0.0196 -0.1386
30969W        W47443   2.760   8.350  15.700 -0.2349  0.1754  0.0654
30970W        W47444   8.992  16.329   2.357  0.0060  0.2047 -0.0636
30971W        W47445  17.389   2.838  12.009  0.0292  0.0296  0.0104
30972W        W47446  16.923  12.686  15.226  0.5013  0.1621  0.1058
30973W        W47447  10.288  10.225   1.302  0.0550  0.1496 -0.3764
30974W        W47448   1.401   7.630   2.199 -0.1548  0.2600  0.0337
30975W        W47449  13.023   3.843  16.344  0.1450 -0.1737 -0.0521
30976W        W47450   4.388   1.866  16.093 -0.1455 -0.1765  0.1168
30977W        W47451  14.119   5.904  16.509  0.2292 -0.1099 -0.1734
30978W        W47452   0.696  12.825   3.118 -0.0987  0.0131 -0.0300
30979W        W47453   8.154  16.315  12.401 -0.2446 -0.0543  0.2081
30980W        W47454   1.094  12.790   2.618 -0.0168  0.1464 -0.2058
30981W        W47455  13.524   5.375  13.597 -0.0280  0.0738 -0.0272
30982W        W47456  13.075   3.312   4.362  0.0152 -0.1410  0.2166
30983W        W47457  12.704  14.728  16.000 -0.0119  0.0650 -0.0835
30984W        W47458   0.544  11.889   4.984 -0.1356  0.1323  0.1723
30985W        W47459   0.121  14.468  12.459  0.1102 -0.1639  0.2049
30986W        W47460  15.997   3.109   2.081 -0.1136 -0.0163  0.0376
30987W        W47461   4.176  16.277  16.799 -0.1120  0.3322 -0.1324
30988W        W47462   0.179   5.674  12.435  0.0166 -0.2228  0.2965
30989W        W47463   8.583  14.183   4.142 -0.0943 -0.0926 -0.4612
30990W        W47464  10.042   7.773  16.076  0.0858  0.2771 -0.1753
30991W        W47465  14.670   8.151   3.061 -0.0355 -0.1927 -0.3329
30992W        W47466   9.475   8.810   3.867  0.0435 -0.3208  0.0357
30993W        W47467  12.806   2.009  14.129  0.0904 -0.2401  0.0769
30994W        W47468   0.796  12.911  14.001 -0.2758 -0.0926  0.3673
30995W        W47469   3.036  17.076   2.698  0.0948  0.1450 -0.0891
30996W        W47470   4.419  17.735  12.033  0.0800 -0.0619 -0.0654
30997W        W47471  17.163   9.695   4.464 -0.2884 -0.0305 -0.1964
30998W        W47472  11.313  10.993  14.037 -0.0148 -0.1088 -0.0244
30999W        W47473  12.397  14.970  15.697 -0.1725 -0.3388  0.1693
31000W        W47474   5.402   4.327  14.364 -0.3097  0.2487  0.3443
31001W        W47475  15.011   4.014  15.198  0.2250  0.1019 -0.0871
31002W        W47476  15.231   5.772  13.866 -0.2449  0.0271  0.4795
31003W        W47477  11.883   6.195   5.033  0.1879 -0.1907 -0.2231
31004W        W47478  10.531  13.658   3.249 -0.1791 -0.0333  0.1636
31005W        W47479   7.495   5.559  15.837  0.2193 -0.1179 -0.2473
31006W        W47480   9.001   5.762   1.123 -0.0226 -0.2768  0.1854
31007W        W47481  11.679  16.098   5.439 -0.2817  0.0818 -0.2099
31008W        W47482  17.738   6.217   2.717 -0.0113 -0.2373  0.0863
31009W        W47483  17.486  14.097   2.588  0.2072 -0.0929 -0.0854
31010W        W47484   1.888  14.643   4.588 -0.4378  0.1417 -0.1825
31011W        W47485   2.069   4.031   3.874  0.4176 -0.1235 -0.0557
31012W        W47486  16.954   5.204   3.035  0.1115  0.1751 -0.0442
31013W        W47487   6.378   3.886  15.868 -0.0710 -0.1820  0.2354
31014W        W47488   7.137   9.178   2.625  0.0238 -0.1263  0.0922
31015W        W47489   3.160   8.733  13.898 -0.0872  0.1432  0.0073
31016W        W47490  17.109  15.506  14.673 -0.0880  0.0906  0.1553
31017W        W47491   1.991   1.117   5.282  0.4395  0.0220 -0.0595
31018W        W47492   0.937   0.721   3.680 -0.2214  0.0276  0.1210
31019W        W47493   5.934   7.644   4.940  0.0350  0.0261 -0.1908
31020W        W47494   4.198   7.047  16.057 -0.0418  0.2343  0.1809
31021W        W47495  11.953  14.212  13.285 -0.1308  0.4548 -0.0702
31022W        W47496   1.694   2.602   5.523 -0.0971  0.3189  0.0129
31023W        W47497   8.793   4.152  15.584  0.0407 -0.2151 -0.3106
31024W        W47498  12.856   3.973   4.802  0.0265 -0.2014  0.2036
31025W        W47499   6.946  14.447   3.968  0.0238 -0.1953  0.2221
31026W        W47500   1.572  15.355   1.216 -0.2231  0.1303  0.0551
31027W        W47501  12.124  17.600  12.376  0.0677  0.0079  0.3503
31028W        W47502  14.966  11.069   3.900  0.0954  0.0571 -0.0274
31029W        W47503  16.670   7.509  12.272  0.1327 -0.0115 -0.3429
31030W        W47504   7.317   0.778   3.228 -0.1973  0.2586 -0.1931
31031W        W47505   2.044  17.201   2.636 -0.0391  0.0379  0.1711
31032W        W47506   6.792   6.225  14.641  0.1463  0.1136  0.0125
31033W        W47507   7.279  15.796   0.647  0.0538  0.0795  0.0537
31034W        W47508   5.363  12.266  16.453  0.1361  0.0329  0.1100
31035W        W47509  12.718   3.601   4.536  0.2269  0.1948  0.2521
31036W        W47510   6.429  11.332   1.215  0.2833 -0.0093  0.0425
31037W        W47511  14.780  12.286  13.905 -0.0177 -0.0725 -0.2501
31038W        W47512   9.322   8.665   1.717  0.1205  0.1932  0.1815
31039W        W47513   2.438  16.021  12.654  0.3557 -0.0278  0.3287
31040W        W47514  11.365   1.134   3.312 -0.2025  0.0805 -0.0139
31041W        W47515  12.226  14.192   1.860  0.0107  0.2888  0.0936
31042W        W47516  17.051   0.830   5.948  0.1503  0.1752  0.0661
31043W        W47517   2.115   0.395   2.451 -0.0349 -0.0329  0.0711
31044W        W47518   1.885  11.385  13.532 -0.1976 -0.0811  0.2049
31045W        W47519  16.141  13.771   3.175 -0.2761  0.0572  0.1106
31046W        W47520  17.111   5.728  12.656 -0.1364 -0.3144 -0.0133
31047W        W47521  15.315   5.016  13.181  0.0450  0.2226  0.0066
31048W        W47522  11.777   3.343  13.330 -0.0195  0.1378 -0.1743
31049W        W47523   6.804  17.230   5.054  0.0683 -0.1103  0.1688
31050W        W47524  14.698   7.623  14.215 -0.2422 -0.0450 -0.2189
31051W        W47525   8.767  12.935  14.074 -0.4260 -0.0370 -0.1505
31052W        W47526   2.578  12.366  11.172  0.1978  0.0908 -0.0136
31053W        W47527  12.395  10.446  13.678 -0.2349  0.2574 -0.2436
31054W        W47528  11.209  10.734   2.711 -0.1360  0.4315  0.2949
31055W        W47529   4.734   7.129  12.983  0.1623  0.0125 -0.0718
31056W        W47530   1.169   5.924   2.596 -0.0709  0.0577 -0.0457
31057W        W47531  13.834  15.304  15.349  0.1129 -0.0338 -0.0746
31058W        W47532   9.945   8.219  15.735  0.1786 -0.0860  0.0227
31059W        W47533   8.690  15.492  12.103 -0.0019 -0.0360  0.0818
31060W        W47534  12.501   7.014  12.837  0.0631  0.1321  0.2915
31061W        W47535  12.804   4.588  13.111  0.1898  0.0281 -0.1039
31062W        W47536   7.360   2.709   2.146  0.0064 -0.3186 -0.1935
31063W        W47537  13.546  15.091   1.949  0.0407 -0.0778  0.0079
31064W        W47538  15.878  13.786  12.300 -0.0910  0.0393  0.0066
31065W        W47539  16.076  13.021  15.791  0.1141 -0.2979  0.0956
31066W        W47540   9.505   4.498  11.612  0.2065 -0.3265 -0.1424
31067W        W47541  16.810  17.509  15.429 -0.6558 -0.0854 -0.0187
31068W        W47542  16.290   2.222   5.037  0.1512 -0.3978  0.1723
31069W        W47543   9.080  14.714   3.516 -0.0224 -0.0088 -0.2136
31070W        W47544  14.446   8.719   3.760 -0.0664 -0.0702  0.0016
31071W        W47545  10.324  14.285   0.461 -0.0342  0.0084  0.0382
31072W        W47546   0.553  12.056   0.862 -0.0774  0.1686 -0.1505
31073W        W47547   8.975   0.838  16.294 -0.3374  0.0810  0.0170
31074W        W47548   6.184   9.471   5.094 -0.0256 -0.0313 -0.2162
31075W        W47549  15.758   6.804   5.428 -0.0709 -0.2012 -0.1692
31076W        W47550  15.706   5.628  13.877  0.1213  0.1803  0.1407
31077W        W47551  13.531  11.710   5.685 -0.0732 -0.2919  0.1206
31078W        W47552  10.259  11.777  15.477  0.2196 -0.1554 -0.0264
31079W        W47553   6.784  15.873   4.362  0.1134 -0.2126 -0.1323
31080W        W47554   2.063  13.282  12.648  0.3205 -0.1549  0.1829
31081W        W47555  14.839  15.724  11.284 -0.0784 -0.1179  0.2353
31082W        W47556   9.332  14.052  15.898  0.0370 -0.1994  0.3193
31083W        W47557   8.259  10.626   6.245 -0.0144  0.3447  0.0821
31084W        W47558   7.437  14.360   3.680  0.1069 -0.1902 -0.0189
31085W        W47559  13.547  13.332  13.535 -0.1087  0.0713  0.0634
31086W        W47560   2.292   6.440  12.713 -0.0527  0.0440 -0.2743
31087W        W47561  11.277   6.614   1.726  0.3940  0.0689  0.1587
31088W        W47562  11.330   2.272   3.829 -0.2683 -0.0597 -0.1322
31089W        W47563  14.290  12.151  13.899 -0.1198 -0.1263  0.2305
31090W        W47564  13.781   8.009   3.217 -0.2748 -0.1532  0.0650
31091W        W47565  16.475  14.714   4.059 -0.0247 -0.2319 -0.0715
31092W        W47566  12.002   6.452  15.930 -0.1345 -0.0451  0.1896
31093W        W47567   5.745  10.285  15.636 -0.0331 -0.0232 -0.0062
31094W        W47568  16.361  10.922  16.455  0.0758 -0.2260 -0.1860
31095W        W47569   9.186  10.273   5.075 -0.0270  0.2312  0.1389
31096W        W47570  13.828  16.011   1.589  0.2156  0.1137 -0.1421
31097W        W47571   7.908   4.353  13.171 -0.0835 -0.0473  0.2459
31098W        W47572   3.770  11.449  16.524 -0.1154 -0.2091  0.0338
31099W        W47573  16.683  16.206  16.733 -0.0066 -0.1018  0.3014
31100W        W47574  10.168   7.596   0.832  0.0797  0.0306  0.1129
31101W        W47575  15.418  14.733  15.243 -0.1652  0.4951 -0.0426
31102W        W47576  13.624   6.829  11.177 -0.4428 -0.0111  0.0459
31103W        W47577  10.333  16.182  16.348 -0.3261 -0.0770  0.3080
31104W        W47578   3.021  14.224  11.451  0.2219  0.2293 -0.1615
31105W        W47579  14.345  13.647  11.728  0.0229  0.1263  0.3070
31106W        W47580   9.654  10.974  16.758  0.0707 -0.4182 -0.1100
31107W        W47581   4.448  17.223   3.213 -0.1254  0.0844  0.1155
31108W        W47582  10.921   8.567   3.596 -0.0210 -0.1176  0.0179
31109W        W47583  17.227  10.687  13.297 -0.0181 -0.0478 -0.1777
31110W        W47584   0.866  10.068  14.708 -0.0683 -0.2009 -0.3084
31111W        W47585   1.468  11.086   3.135  0.0737 -0.0054  0.0033
31112W        W47586   3.890  13.108  13.694  0.0004 -0.2975  0.0563
31113W        W47587  12.960   5.951  16.224  0.3094 -0.1241 -0.1717
31114W        W47588  13.912   3.583   0.271 -0.0570  0.0491 -0.1480
31115W        W47589  12.551  17.640   3.941  0.1205  0.2429  0.3118
31116W        W47590   1.339   7.769  11.862  0.0583 -0.1071  0.1882
31117W        W47591   3.980   9.962  14.401 -0.0009  0.0314  0.1543
31118W        W47592  16.570  10.350   5.161  0.0254 -0.0134  0.2121
31119W        W47593  13.749   1.009  14.820 -0.0905 -0.0505  0.2237
31120W        W47594   7.297  14.350  13.268  0.1294  0.2587 -0.3050
31121W        W47595   9.558   8.007  16.051  0.1314 -0.2574  0.0360
31122W        W47596  12.611   1.016  13.035 -0.0612  0.2340  0.1536
31123W        W47597   5.925  13.834   2.443  0.2288 -0.0425  0.1638
31124W        W47598  13.103  15.627  15.850  0.2161  0.2992 -0.1176
31125W        W47599  15.961   3.636   0.693 -0.2850 -0.1629 -0.0198
31126W        W47600   3.111   7.037   4.367 -0.3062 -0.2037  0.0034
31127W        W47601  13.249   5.327   3.330  0.1913 -0.0767  0.4396
31128W        W47602   0.458  10.397   2.496 -0.1381 -0.0230  0.0087
31129W        W47603   5.678  12.544   2.772 -0.2015  0.3371  0.2118
31130W        W47604  10.721   8.713  16.909 -0.0683 -0.0124 -0.0400
31131W        W47605   4.034  14.560   1.829  0.0588 -0.1866  0.1606
31132W        W47606  13.598   9.682   1.725  0.0354  0.0356  0.0766
31133W        W47607   6.320  11.509   2.026  0.2871 -0.0768  0.1013
31134W        W47608   5.533  11.851   3.324 -0.3198 -0.0541  0.0004
31135W        W47609   4.014   2.849   5.265 -0.1216  0.1453 -0.3931
31136W        W47610   0.468  12.395  12.123 -0.0403 -0.1201  0.0091
31137W        W47611  12.186   8.106   1.434  0.1747  0.3945 -0.1975
31138W        W47612   5.457  16.839   1.448 -0.0576  0.2438  0.1427
31139W        W47613   6.831  15.374  13.270  0.2056  0.1287 -0.1960
31140W        W47614  12.410  11.958   0.268 -0.1381  0.2358  0.1074
31141W        W47615  12.764   4.941   0.390  0.1466  0.2907  0.0574
31142W        W47616  15.864   5.206   0.049 -0.1096  0.2092  0.0096
31143W        W47617   9.394  15.408  14.125 -0.1609 -0.1730 -0.1757
31144W        W47618  13.353   4.745   1.576  0.3581 -0.1936 -0.1472
31145W        W47619   1.957  16.370  16.382  0.2742  0.1481  0.0088
31146W        W47620   3.964   8.157   1.268 -0.1151  0.1169 -0.0337
31147W        W47621  10.505  14.200  16.512 -0.0966  0.2575 -0.2203
31148W        W47622   2.718   6.800  16.640  0.0590 -0.0185 -0.1518
31149W        W47623   5.960   6.031   0.540  0.2017 -0.0538  0.1327
31150W        W47624   9.733  16.340  13.339  0.1880  0.0033 -0.3349
31151W        W47625   5.475   3.316   4.247  0.2053  0.0615  0.0039
31152W        W47626  16.453   0.222  12.081  0.0144 -0.1167 -0.0703
31153W        W47627   5.780   3.325  13.618 -0.0093  0.1337  0.1452
31154W        W47628   1.688  13.832   4.073  0.0940  0.2260  0.4754
31155W        W47629  14.221   5.818   2.427 -0.0105 -0.1112  0.2160
31156W        W47630  12.023   2.104  12.727  0.2409  0.3028  0.0463
31157W        W47631  17.237   0.292  15.782 -0.1893 -0.2922  0.0940
31158W        W47632  15.545   0.808   3.931 -0.0327  0.0724  0.0421
31159W        W47633  10.135  11.962  11.783 -0.6328 -0.1117 -0.0528
31160W        W47634   0.700   0.907  15.555 -0.1579  0.1240 -0.1375
31161W        W47635  11.734  17.050  14.187  0.1826 -0.0658 -0.0532
31162W        W47636  10.725   1.007   0.244  0.1163  0.0917  0.4311
31163W        W47637   8.129  14.254  15.316  0.1792 -0.1631  0.0579
31164W        W47638   3.705   1.943   0.318  0.1326 -0.0699  0.2201
31165W        W47639  11.784   0.980   3.764  0.1210 -0.2311  0.1370
31166W        W47640  12.862  14.932  12.561 -0.1888 -0.0318  0.3018
31167W        W47641   5.007   1.640   3.334  0.2087 -0.1366 -0.2443
31168W        W47642   8.092   3.810  13.014  0.0288 -0.3001 -0.0211
31169W        W47643   2.955   0.348   4.047  0.1029  0.1826 -0.0558
31170W        W47644   2.831   9.606   2.711 -0.0227  0.1866  0.1164
31171W        W47645  10.966   7.586   0.303  0.2405  0.0392 -0.0027
31172W        W47646   9.338  15.120   0.516  0.0537  0.0911  0.1639
31173W        W47647   5.680   9.107   1.263  0.2020 -0.2898 -0.0258
31174W        W47648   3.733   4.810  16.204  0.0366  0.0823  0.0576
31175W        W47649   3.444  16.505   1.653  0.0200  0.2677  0.2659
31176W        W47650  16.072   6.354   0.642 -0.1181  0.3190 -0.2344
31177W        W47651   6.959   8.603  14.969 -0.2333  0.1556  0.2861
31178W        W47652   1.148  16.144  12.767  0.0028  0.1502 -0.2012
31179W        W47653  16.834   6.025   4.838 -0.0776 -0.1942  0.0213
31180W        W47654  13.355  17.425   0.172 -0.0220 -0.2187  0.2081
31181W        W47655   1.069  17.155   0.189 -0.1685 -0.0536 -0.3215
31182W        W47656  10.716  11.386  11.405  0.2078  0.0760 -0.2388
31183W        W47657  12.798   3.050  16.074  0.0820 -0.2331 -0.0787
31184W        W47658  13.951   2.056  13.421  0.0377  0.0191  0.0563
31185W        W47659   4.620   2.313  16.323  0.0583  0.2930 -0.2883
31186W        W47660   7.699   3.427  11.245 -0.0974 -0.0352 -0.0337
31187W        W47661  12.630   1.814   1.600  0.0153 -0.0172  0.0687
31188W        W47662  13.165  16.739   3.678 -0.4156 -0.0247 -0.3643
31189W        W47663   8.293  11.754   1.292 -0.1174  0.0685 -0.1273
31190W        W47664   7.192   5.382   3.350 -0.0180  0.3075  0.2153
31191W        W47665  14.018  12.883  15.141  0.0911 -0.1212  0.0291
31192W        W47666   4.974  12.893  16.151  0.0523  0.1077  0.0705
31193W        W47667   0.954  11.301   3.211  0.1890  0.1848 -0.2126
31194W        W47668  12.675  12.363   2.871 -0.3710 -0.1297  0.1318
31195W        W47669  13.731  10.989   2.631  0.0159 -0.0932 -0.1317
31196W        W47670  10.444  13.035  12.868  0.1786  0.0595  0.1128
31197W        W47671   8.390   7.505  15.016  0.1987 -0.1495  0.5049
31198W        W47672   8.194  12.059  12.075 -0.1243 -0.2906  0.1248
31199W        W47673   1.685   5.300  12.823  0.0136 -0.0925 -0.2550
31200W        W47674   5.312   7.444  14.791 -0.0288  0.1268 -0.1900
31201W        W47675  10.696   0.204  15.571 -0.1391 -0.1536 -0.1065
31202W        W47676  10.122  15.502   3.561  0.2499 -0.0280 -0.0305
31203W        W47677  14.825   9.375   2.250 -0.4067 -0.3027  0.2426
31204W        W47678   7.164  13.324   5.186  0.3076  0.1834 -0.0069
31205W        W47679   9.782  14.996   0.657 -0.2888  0.0508  0.1825
31206W        W47680   6.830   5.766  14.969 -0.1151 -0.0101  0.3462
31207W        W47681   3.874   1.428   0.471 -0.1667  0.2001  0.2996
31208W        W47682  15.950   5.741   0.035 -0.0071 -0.1256  0.0804
31209W        W47683   4.424   7.953   2.129  0.0787  0.1701  0.0435
31210W        W47684  10.185  11.747   1.783  0.0482  0.2025 -0.2566
31211W        W47685   0.661   7.745   2.773  0.0231  0.0453 -0.3114
31212W        W47686   7.146   6.328  15.700 -0.0877  0.1062  0.1665
31213W        W47687   1.107  17.487  16.300 -0.1414  0.2200 -0.2246
31214W        W47688   0.273  11.275   0.528 -0.1875 -0.2857 -0.0139
31215W        W47689  11.625  11.971   5.744  0.0898 -0.1854  0.1614
31216W        W47690   7.365  14.148   5.436 -0.1691  0.0430  0.0631
31217W        W47691   3.328  15.762  16.559 -0.1833 -0.0910 -0.1571
31218W        W47692  14.683   5.738   5.444 -0.1727  0.4444 -0.0306
31219W        W47693  11.257   3.791   4.804  0.0085  0.0640  0.0823
31220W        W47694   9.789  16.871  12.493 -0.0045  0.2350  0.2684
31221W        W47695  16.161  10.122  12.579 -0.1435 -0.0965 -0.3126
31222W        W47696   0.117   3.693   3.181 -0.0470 -0.1118  0.0031
31223W        W47697  10.956  10.914   3.876 -0.3201 -0.1704 -0.1527
31224W        W47698   7.575   2.323  11.927 -0.1946  0.0193  0.0366
31225W        W47699  11.764   1.832   3.150 -0.0263 -0.1176 -0.1233
31226W        W47700   8.042   1.739   3.140  0.0585  0.0036 -0.2131
31227W        W47701   8.513   2.546   0.832 -0.1104 -0.0530 -0.2171
31228W        W47702   6.293   6.861  12.190 -0.1674  0.0899  0.3944
31229W        W47703  11.831   6.838   2.307 -0.0566 -0.0920  0.2021
31230W        W47704  13.064   8.808  14.089  0.1336 -0.0882 -0.0105
31231W        W47705   1.642  15.652  15.754 -0.1041 -0.3049 -0.0296
31232W        W47706  12.916   4.404   0.588  0.2355 -0.1213 -0.1568
31233W        W47707   7.218  16.767  13.922  0.1111  0.1219  0.4474
31234W        W47708  14.975  13.014  15.501 -0.1004  0.0163 -0.2791
31235W        W47709   2.712  12.470   4.415 -0.2314 -0.2881 -0.0034
31236W        W47710   0.471   1.791  12.443 -0.1498  0.0355 -0.1152
31237W        W47711  15.547   7.885  15.737  0.5709 -0.1511 -0.2486
31238W        W47712   6.307  15.073  14.897 -0.0732 -0.0057  0.2519
31239W        W47713   5.037   2.190  15.595 -0.0472  0.0922 -0.1188
31240W        W47714   9.629   4.646  14.743 -0.3420 -0.0541  0.0794
31241W        W47715  10.651   3.466   1.582 -0.0338  0.1215 -0.0385
31242W        W47716  11.457  11.852  15.882  0.3756 -0.2847  0.0830
31243W        W47717  12.241   9.907  13.568  0.0470 -0.2022  0.1820
31244W        W47718  11.879   4.157  13.361 -0.0215 -0.0438  0.0028
31245W        W47719   9.971   7.096  14.068 -0.2613 -0.1873  0.3405
31246W        W47720  12.782  13.426  13.938 -0.1291  0.0343 -0.1408
31247W        W47721   7.523   5.556   3.684  0.1993 -0.0433 -0.2305
31248W        W47722   2.601   7.553  13.574 -0.1029 -0.0444  0.3195
31249W        W47723  12.035  13.708   5.049  0.1890  0.0360  0.1003
31250W        W47724   4.443  10.238  14.319 -0.1753  0.1114  0.1524
31251W        W47725  15.211  16.210   3.631  0.2618  0.1137 -0.1117
31252W        W47726  16.625   6.416   1.593  0.0382  0.0301  0.0659
31253W        W47727   8.102   7.685   5.095  0.0994 -0.1391 -0.2635
31254W        W47728  16.002   4.741   4.667  0.0590 -0.1993 -0.1471
31255W        W47729   8.989   3.155   0.906 -0.1577 -0.1976 -0.1000
31256W        W47730  14.719   3.583   5.744  0.1540  0.1159 -0.0813
31257W        W47731   8.575  11.895  13.937  0.0866  0.4328  0.2662
31258W        W47732   7.979  17.376   5.694  0.1574 -0.0485 -0.0753
31259W        W47733   6.255  14.999   1.519  0.0315 -0.0778 -0.1728
31260W        W47734   0.652   8.444   4.993  0.1263 -0.2619 -0.0701
31261W        W47735  16.410   8.016  13.766  0.0284 -0.2199 -0.0795
31262W        W47736  16.364   0.700   0.191 -0.2984  0.0371  0.0908
31263W        W47737   2.098   5.454   0.288  0.0412  0.1174  0.0944
31264W        W47738  11.167   5.355  15.466 -0.2994 -0.0594 -0.2123
31265W        W47739  11.078  14.542   5.045 -0.1023  0.0949 -0.0445
31266W        W47740   0.565   7.162   2.123 -0.0029 -0.0723 -0.2990
31267W        W47741  14.894  14.807  13.933  0.1307 -0.0797  0.2556
31268W        W47742  16.068  11.603   1.159 -0.0288 -0.0875  0.4530
31269W        W47743   5.218   1.119  12.553 -0.3761 -0.1520  0.0273
31270W        W47744   1.219   2.091  16.497  0.1064  0.1346 -0.1307
31271W        W47745  13.531   5.994   2.606 -0.2689 -0.2435  0.4362
31272W        W47746  10.337   6.283   0.711  0.1073  0.0356  0.3613
31273W        W47747   7.835  10.352  16.409  0.3518  0.2284  0.0855
31274W        W47748  13.865   0.463   2.940  0.1569 -0.1938 -0.1018
31275W        W47749  12.660   7.983   1.615  0.1694 -0.1730 -0.2357
31276W        W47750  10.369   8.363  15.426  0.2607  0.1073 -0.0351
31277W        W47751  14.588  17.738   1.081 -0.1612  0.1179  0.2136
31278W        W47752  13.726  13.017  14.750  0.0559  0.2577 -0.0399
31279W        W47753   5.287  12.416   2.446 -0.0302  0.0634  0.1211
31280W        W47754  11.112   2.105  13.506 -0.0331 -0.1267 -0.3669
31281W        W47755  16.840   6.293  13.747  0.0589  0.2677  0.4193
31282W        W47756  14.038   5.983   0.917  0.2619  0.1498 -0.0564
31283W        W47757  13.264   3.029   5.015 -0.0917  0.1569  0.0140
31284W        W47758  16.568   4.076   0.231 -0.0550 -0.0067 -0.1640
31285W        W47759  13.000   8.218  14.100  0.3026  0.0274  0.0008
31286W        W47760   5.203  12.142  12.871 -0.5824 -0.1557 -0.4824
31287W        W47761  17.076   7.709  14.205  0.1367  0.3083 -0.1185
31288W        W47762   1.879  15.350  14.902 -0.0745 -0.1708 -0.2412
31289W        W47763   8.622  13.621  16.680 -0.0286  0.2003 -0.1214
31290W        W47764   8.838   1.942   3.939  0.1662 -0.1448  0.1613
31291W        W47765   4.221   1.572  13.638  0.0069  0.2107 -0.3423
31292W        W47766   4.456   5.028  13.654 -0.0336 -0.2969 -0.2852
31293W        W47767   6.200   0.692  15.956 -0.0607  0.3357  0.2595
31294W        W47768   6.875   6.165   2.733 -0.1471 -0.1934 -0.0690
31295W        W47769   9.897  16.215   1.169 -0.0749 -0.1097 -0.0536
31296W        W47770   1.980   3.205   0.271  0.2029 -0.0700 -0.0167
31297W        W47771   1.733   2.773   2.733  0.0208  0.0609 -0.0536
31298W        W47772   7.476  16.528   4.212 -0.1952  0.0635  0.1793
31299W        W47773  16.191   0.760  13.820  0.1859 -0.1852 -0.2566
31300W        W47774  13.467   3.954   0.620  0.1367 -0.0601  0.4623
31301W        W47775   2.533  14.618   2.221 -0.1546  0.2360  0.1700
31302W        W47776   3.163   8.429  16.002  0.0407  0.1250  0.2916
31303W        W47777  17.812   8.594   0.950  0.2278 -0.1774  0.0717
31304W        W47778  15.792  17.738   5.728 -0.2800 -0.1114 -0.2723
31305W        W47779   6.008  15.757  15.318  0.0877 -0.1031  0.2432
31306W        W47780  17.379  11.750  11.969  0.0781 -0.0621  0.2913
31307W        W47781  10.437   1.620   2.561 -0.2162 -0.0303  0.0088
31308W        W47782  14.800   2.194  16.052  0.1557 -0.1301  0.0910
31309W        W47783   2.798   0.552  13.159  0.0742 -0.0809  0.0674
31310W        W47784  10.216  14.373  14.518 -0.3015 -0.0953  0.0790
31311W        W47785  10.271  10.762   3.338  0.0454  0.1445 -0.1847
31312W        W47786   0.092   2.789  14.803  0.3182 -0.0148 -0.1735
31313W        W47787   1.402   6.859   5.546 -0.3484  0.4857 -0.0011
31314W        W47788  10.746  13.727  16.472  0.1569 -0.0586 -0.0338
31315W        W47789  12.885  15.404   2.495 -0.0417  0.1412  0.0539
31316W        W47790   6.615   7.180  14.678  0.0205  0.3493 -0.0175
31317W        W47791   9.170   0.422  12.621  0.1223  0.0826 -0.1221
31318W        W47792  11.483   3.093   3.457  0.0949 -0.1141  0.0053
31319W        W47793   7.939   0.521  15.715  0.0398 -0.1138  0.2356
31320W        W47794   7.879  16.825  14.631 -0.3664  0.2178 -0.1025
31321W        W47795  15.504   3.099   6.662  0.1796 -0.2893  0.0142
31322W        W47796   5.472   8.091   0.404  0.3366  0.0113 -0.2791
31323W        W47797  14.458   3.708  13.924  0.0403 -0.1096 -0.1213
31324W        W47798   3.568   6.656  16.438 -0.0116 -0.0142  0.2124
31325W        W47799   9.528  13.653   2.936 -0.2197  0.1030  0.0590
31326W        W47800  11.484   2.059   4.246 -0.0659  0.1532  0.0250
31327W        W47801   7.563  11.499  11.744  0.0255  0.0151  0.0386
31328W        W47802   4.388  13.885  16.415 -0.1687  0.2187  0.1267
31329W        W47803  15.319   3.771   5.345 -0.0324  0.1782 -0.0479
31330W        W47804  16.154  14.966  15.222 -0.2275 -0.1407 -0.0517
31331W        W47805   8.733   0.372   1.487 -0.1534  0.1906 -0.2338
31332W        W47806  17.297  12.195  11.275  0.1377  0.0493  0.1621
31333W        W47807   2.039  17.168   6.074  0.0382  0.0521 -0.0831
31334W        W47808   9.925  17.246  14.474 -0.0205 -0.1350 -0.0887
31335W        W47809  11.582  13.125  12.232  0.1665  0.0186 -0.0015
31336W        W47810   9.220   6.359  11.587 -0.2218  0.2941  0.2586
31337W        W47811  12.508  16.270  16.712 -0.2263  0.0902 -0.0272
31338W        W47812  11.939   2.281   2.382  0.2210  0.1581 -0.0730
31339W        W47813  17.588   1.543   0.249 -0.5340 -0.1837  0.0098
31340W        W47814   4.072  13.704   5.175 -0.1002 -0.1380 -0.1121
31341W        W47815   2.700  16.386   5.287 -0.2387 -0.1574 -0.1206
31342W        W47816   4.055   8.713   0.234 -0.2810  0.2638 -0.3156
31343W        W47817   0.847   8.781  13.247  0.0221  0.1119 -0.1166
31344W        W47818  10.370   9.462   2.189  0.0614 -0.5521 -0.0113
31345W        W47819   3.661   3.075  14.492 -0.0048  0.0787  0.0907
31346W        W47820  10.458   5.794  12.816 -0.1402 -0.0536  0.0059
31347W        W47821   6.174  13.290   3.699  0.2935 -0.0439  0.0864
31348W        W47822  11.983  12.467  11.646  0.1970 -0.2738  0.0202
31349W        W47823  11.202   6.038  12.223  0.1709  0.0012 -0.1545
31350W        W47824   8.602  13.574   5.326 -0.1034  0.0221 -0.0901
31351W        W47825   7.445   7.583  16.787 -0.2456  0.0429  0.0456
31352W        W47826  15.834   1.879   4.638  0.0058  0.2020 -0.2710
31353W        W47827  15.236   9.318  13.863 -0.0695  0.0199 -0.3622
31354W        W47828  16.295  13.975  14.573  0.1980 -0.0355 -0.0845
31355W        W47829   6.135  17.292   2.632 -0.1015  0.0045 -0.1626
31356W        W47830   6.313  15.135  14.302 -0.0634  0.0930  0.0702
31357W        W47831  15.345   3.531   3.443 -0.0650 -0.0582  0.1486
31358W        W47832   3.553   7.033  12.556  0.0488  0.3699 -0.2576
31359W        W47833  15.928   0.102  12.049 -0.1494 -0.0887 -0.0238
31360W        W47834   3.426  11.542   1.362  0.1128 -0.0543 -0.0928
31361W        W47835  16.692   1.922   4.126  0.0683 -0.4472  0.2542
31362W        W47836   5.271   6.299   1.775  0.0670  0.1643  0.1096
31363W        W47837   3.284   4.285  13.079 -0.2198  0.0215 -0.1417
31364W        W47838  12.260  16.501  15.782 -0.2164 -0.0249  0.0798
31365W        W47839   9.153   7.365   0.943  0.2472  0.2982  0.2455
31366W        W47840  12.783  14.799  14.506  0.1443  0.2202 -0.3456
31367W        W47841   6.889  13.780  15.736  0.1674 -0.2255 -0.1552
31368W        W47842  11.216   8.419  15.557  0.2738  0.2293 -0.0419
31369W        W47843   3.436   4.901  16.765  0.2454 -0.4298  0.0981
31370W        W47844  17.493   0.708   3.489 -0.2617  0.0614 -0.1423
31371W        W47845  14.776  17.207   2.245 -0.0013 -0.3769  0.2961
31372W        W47846  10.482  11.861   2.696 -0.2138  0.0480  0.0962
31373W        W47847   0.440   7.851   1.354  0.2190  0.2354 -0.0563
31374W        W47848   6.395   9.613  11.348 -0.3262  0.0351  0.0455
31375W        W47849   9.959   5.434   0.909  0.0131  0.3056  0.1004
31376W        W47850   9.565  16.078  14.596 -0.2482 -0.3492 -0.2948
31377W        W47851  10.929   2.557  16.308  0.1150 -0.0287  0.1576
31378W        W47852   9.571   6.313  12.824  0.1781 -0.2364  0.0267
31379W        W47853  14.484  13.687  16.779 -0.0199  0.0302 -0.1252
31380W        W47854   4.182  14.575   4.540  0.2086  0.0808 -0.3843
31381W        W47855  17.300   8.615  12.111 -0.1471 -0.0859  0.0366
31382W        W47856   5.679   6.654  13.868  0.0922  0.3151 -0.2818
31383W        W47857   3.132   8.631  15.548 -0.3468  0.1906 -0.1389
31384W        W47858  14.005   1.203  15.584 -0.2063 -0.1085  0.0239
31385W        W47859   2.113  15.602  12.393  0.1174 -0.1889 -0.3228
31386W        W47860   9.994   3.492   6.862 -0.1999 -0.0980 -0.0003
31387W        W47861   0.399  14.846  14.714  0.0390  0.2882  0.0103
31388W        W47862   2.644   5.280   1.864 -0.2758  0.0225  0.1063
31389W        W47863  10.658   9.352  14.371  0.0686  0.0021  0.3914
31390W        W47864   0.984  15.686   4.927  0.1444  0.0450 -0.3965
31391W        W47865  13.105   2.293   0.296  0.1421 -0.4054 -0.2480
31392W        W47866  10.857  17.437   1.282  0.0032  0.0144  0.0266
31393W        W47867   7.190   9.542  16.625  0.2856  0.3544 -0.2196
31394W        W47868  13.811   2.834  15.019  0.0252 -0.0222  0.0585
31395W        W47869   9.912   6.125  14.887 -0.0557  0.2162  0.0715
31396W        W47870   4.395   9.093  12.858  0.2660 -0.2715 -0.0774
31397W        W47871   6.677   9.945  14.417  0.1082  0.1312 -0.1103
31398W        W47872  17.068  15.698   3.172 -0.1974  0.3199 -0.3122
31399W        W47873   3.511   4.196   5.719  0.0913 -0.1363 -0.0552
31400W        W47874   6.926  10.923   3.589  0.0443  0.2398 -0.2057
31401W        W47875   4.317   0.693   3.962  0.2637  0.0513 -0.0932
31402W        W47876  17.750  14.227   0.689  0.0117 -0.2140  0.0053
31403W        W47877  10.047  10.653  13.217 -0.0205 -0.0144  0.2082
31404W        W47878  11.142  17.631   0.387 -0.0808 -0.1626 -0.0417
31405W        W47879   2.495   8.260  13.333  0.1002 -0.2008 -0.0127
31406W        W47880   7.855   1.238   4.913  0.0240  0.0907 -0.2350
31407W        W47881   9.638  11.503  14.424  0.0567 -0.0499  0.1117
31408W        W47882   4.762   1.515   4.921  0.3625  0.2374 -0.0157
31409W        W47883  11.848   9.266   1.556  0.1506 -0.0938  0.1074
31410W        W47884  11.478   7.833   4.842  0.0384 -0.3786 -0.2310
31411W        W47885   0.636   3.691   4.838  0.1801  0.0675 -0.2476
31412W        W47886  12.231   5.186  13.097  0.1325  0.2088  0.5034
31413W        W47887   0.380  12.175   2.632 -0.0382  0.0618 -0.2288
31414W        W47888   2.197   7.856   1.084  0.2970 -0.0758  0.1373
31415W        W47889  13.723   9.469  16.438  0.2324 -0.0462 -0.0074
31416W        W47890  15.802   2.606  14.655 -0.1098  0.0804 -0.0441
31417W        W47891   1.719  15.583  16.657  0.2149 -0.2832  0.2186
31418W        W47892   5.316  10.852  11.714 -0.0135  0.1545 -0.1322
31419W        W47893   7.564   4.366   5.123 -0.0149 -0.0277  0.0478
31420W        W47894   3.135   7.879  14.862  0.1487 -0.2633 -0.2922
31421W        W47895  13.021   3.145   1.543  0.1712 -0.0978 -0.1400
31422W        W47896  16.219  11.092   0.966 -0.1175  0.3524  0.3763
31423W        W47897  17.318   7.480   4.679  0.2924  0.0296 -0.1838
31424W        W47898   8.274  11.399   3.183  0.1510 -0.0730 -0.3091
31425W        W47899  15.978   8.847  13.954 -0.0269  0.3972 -0.0414
31426W        W47900  13.903   2.049   2.827 -0.0654  0.1905  0.2273
31427W        W47901   9.851  14.846   5.341  0.0676 -0.1157  0.0569
31428W        W47902  15.468   7.766  12.985 -0.1457  0.5286  0.1020
31429W        W47903   5.002   5.205   4.651  0.0467  0.3091  0.1149
31430W        W47904  16.893  10.387   0.841  0.0425  0.0319 -0.1191
31431W        W47905   2.153   4.469   1.975  0.2787 -0.2313 -0.1522
31432W        W47906  13.661   8.065  16.687  0.1781 -0.0236  0.1641
31433W        W47907  13.555   6.709   4.810  0.2433 -0.0778  0.1325
31434W        W47908   9.538   0.741  14.282  0.0461  0.1015 -0.3287
31435W        W47909   4.268   2.798  13.051  0.2968 -0.0301  0.2232
31436W        W47910   1.356  14.903   1.689  0.1981 -0.2728  0.0680
31437W        W47911   1.082  14.213   0.903 -0.1712 -0.0779  0.3311
31438W        W47912   9.038  16.566   1.032 -0.1279 -0.1498 -0.1459
31439W        W47913  15.906  13.100  16.261  0.2326 -0.1629  0.0080
31440W        W47914  12.738   9.551   3.254 -0.0772  0.0279  0.2117
31441W        W47915   3.269   3.779  13.134 -0.0671  0.3081 -0.0248
31442W        W47916  13.132   1.689  14.360 -0.1889 -0.1731 -0.0042
31443W        W47917  11.787   2.814  11.914 -0.2628  0.0893  0.0105
31444W        W47918   4.937  17.269   3.322 -0.0490 -0.0726 -0.1298
31445W        W47919  11.814   2.988  15.659 -0.0054  0.1625 -0.0955
31446W        W47920   2.074  11.244  16.874 -0.0457 -0.0790 -0.0328
31447W        W47921   7.907   5.581  13.264  0.3196 -0.0961  0.0776
31448W        W47922   5.748  17.338  12.762  0.0143 -0.0725  0.1470
31449W        W47923  11.348  15.846  14.250 -0.0641  0.2400 -0.0039
31450W        W47924   3.826   4.073   3.722 -0.0694 -0.1202 -0.3152
31451W        W47925  10.543  16.554  13.514 -0.0151 -0.1908  0.2372
31452W        W47926  11.259   2.823   4.706  0.0149  0.1193  0.2393
31453W        W47927  15.968  15.406  15.297 -0.1679  0.0330 -0.3815
31454W        W47928  10.770   9.638   0.875  0.0758 -0.0461 -0.1820
31455W        W47929  11.026   3.602   3.258 -0.1829 -0.2265 -0.0949
31456W        W47930  12.818   6.986  15.835  0.4173  0.0221  0.0007
31457W        W47931   1.417   7.633   5.378 -0.0837 -0.1070  0.1069
31458W        W47932   9.881   7.745   5.542  0.1540  0.0672  0.2080
31459W        W47933   4.189   3.190   2.487  0.1237 -0.1600  0.0858
31460W        W47934  10.348   2.487   0.651  0.2415 -0.1996 -0.3976
31461W        W47935   0.118   0.414   0.294 -0.0892 -0.0093 -0.2470
31462W        W47936  14.700   5.414   4.232 -0.1007 -0.1657  0.1497
31463W        W47937   7.808   5.486  14.926 -0.2982  0.2494 -0.1721
31464W        W47938  17.087  12.936   3.914  0.1678 -0.1045  0.1063
31465W        W47939  14.606  17.723  13.682  0.0036 -0.2584  0.0382
31466W        W47940   6.869   2.073   3.424  0.3832  0.0190 -0.2550
31467W        W47941  15.696  11.937   2.009 -0.0102 -0.0150 -0.1519
31468W        W47942  11.185   0.090   4.624  0.4111  0.1502 -0.0221
31469W        W47943   0.339   9.136   4.881  0.1956 -0.0463 -0.1861
31470W        W47944  17.378  13.771   5.084 -0.1099 -0.1019  0.0259
31471W        W47945  11.739   8.748   3.917  0.0093  0.0652 -0.0753
31472W        W47946   3.820   4.914  15.089 -0.2915  0.0631  0.0662
31473W        W47947  11.537   9.838   0.481  0.0474  0.1712  0.0431
31474W        W47948  17.214   9.755  14.684 -0.1261 -0.1627 -0.1014
31475W        W47949   4.369  14.616   5.482 -0.3754  0.1392  0.2828
31476W        W47950  15.231   2.322   2.936  0.0951 -0.1107 -0.1441
31477W        W47951  16.442   7.369   4.366 -0.5812  0.1574 -0.2615
31478W        W47952   3.406   9.905  15.810 -0.2139  0.1773 -0.2317
31479W        W47953   4.310  16.205   0.917 -0.1341  0.0909  0.0868
31480W        W47954  13.231   8.454  14.454 -0.0384  0.5855 -0.2306
31481W        W47955   1.263  14.061   4.232  0.1686  0.1637  0.1704
31482W        W47956  13.072   1.085  15.324 -0.1786  0.1160 -0.0488
31483W        W47957   4.995  17.772  14.113 -0.3181 -0.1665  0.0360
31484W        W47958  10.556   2.991  15.539 -0.1174  0.2343 -0.0511
31485W        W47959   5.519   4.899  12.557 -0.0244 -0.1496  0.0573
31486W        W47960   1.100   9.970  14.148  0.2077 -0.0622 -0.0027
31487W        W47961   4.542  16.587  15.388 -0.2562  0.2943  0.2603
31488W        W47962   6.403  14.108   3.182  0.2132  0.1160 -0.0675
31489W        W47963   3.184   5.899   2.822 -0.1163 -0.0244  0.0219
31490W        W47964  13.281  13.030   3.476 -0.4171  0.2951 -0.1754
31491W        W47965   6.758  11.883  15.249 -0.1685 -0.0369  0.0655
31492W        W47966   6.434   7.543  16.432 -0.0891  0.1167 -0.0075
31493W        W47967   2.108  11.206  10.999 -0.0318 -0.3338  0.0722
31494W        W47968  15.702  13.252  13.866 -0.1133 -0.2116 -0.1341
31495W        W47969  16.859   4.236   1.768  0.2179  0.0102 -0.0316
31496W        W47970  15.470   4.845   0.358  0.1971  0.2840  0.1067
31497W        W47971   4.594   4.230   4.668 -0.0589 -0.2582 -0.0433
31498W        W47972   8.557   8.026  14.340  0.1963  0.0257 -0.2818
31499W        W47973   2.473  16.069   4.318  0.3105 -0.1792 -0.1635
31500W        W47974  12.909   1.617  16.439 -0.0128  0.0958  0.1695
31501W        W47975   2.226   8.177  12.803 -0.1918 -0.0970  0.3017
31502W        W47976  17.395   2.395   1.656  0.1013 -0.1964  0.1491
31503W        W47977  10.738  13.472   0.766  0.0126  0.1305  0.1304
31504W        W47978   3.148  17.577   2.076 -0.0918 -0.1010 -0.1935
31505W        W47979  16.147   3.220   4.274  0.1445  0.1854 -0.2163
31506W        W47980   3.219  16.818   0.518 -0.1002 -0.2575 -0.1175
31507W        W47981   0.067   2.376   4.467  0.2387  0.1423 -0.0057
31508W        W47982   2.393  15.538  12.775  0.1959  0.0627 -0.0895
31509W        W47983   1.222   0.100  16.015 -0.0432 -0.1316  0.0998
31510W        W47984  13.828   8.316  14.187 -0.0045  0.2308 -0.0417
31511W        W47985   6.476   2.475   5.162 -0.1739  0.1477 -0.0566
31512W        W47986  16.123   7.982   1.751  0.0184 -0.0425 -0.1309
31513W        W47987   6.993   5.783  12.272  0.2588  0.1899 -0.0507
31514W        W47988   0.268   0.837   4.350  0.0139 -0.0851 -0.2107
31515W        W47989  12.131   5.098   0.216  0.2082  0.0444 -0.0598
31516W        W47990   6.334  12.292  14.641 -0.1073  0.3121 -0.2272
31517W        W47991  13.884  16.150  16.476 -0.1640 -0.2474 -0.0542
31518W        W47992  17.372  17.033  13.004 -0.2379 -0.1049  0.0148
31519W        W47993  14.687  15.280  15.034  0.2429  0.3184  0.1723
31520W        W47994  14.244   9.731  13.737 -0.2398 -0.1365 -0.1166
31521W        W47995   8.515   5.673   2.082  0.3238  0.2336  0.1531
31522W        W47996   0.529  12.008  13.680 -0.1495  0.2676  0.0119
31523W        W47997  12.220   6.103   4.603  0.2056 -0.2716  0.0261
31524W        W47998  15.510   9.386  16.730  0.2297  0.0637 -0.1948
31525W        W47999  15.501  10.614   2.832  0.0247 -0.1325  0.3406
31526W        W48000   8.674  16.168   0.981  0.1134 -0.4720 -0.0564
31527W        W48001  16.842   7.348   4.871 -0.0314 -0.0779  0.1674
31528W        W48002  14.566   9.680  13.368  0.1167  0.1195 -0.1688
31529W        W48003   2.355   7.721   2.566 -0.1461 -0.2523 -0.0375
31530W        W48004   6.274   0.612  12.926 -0.0147 -0.2286 -0.0976
31531W        W48005   9.489  17.274   3.161  0.0648 -0.2775  0.0766
31532W        W48006   8.008   3.457   3.565 -0.0705  0.0749 -0.1801
31533W        W48007   8.692   0.729  11.509  0.2097 -0.0262 -0.1724
31534W        W48008   8.661   3.441   4.937 -0.1332  0.0968  0.2885
31535W        W48009   9.448   5.200   2.855  0.3103 -0.2166  0.1137
31536W        W48010   7.412  17.011  15.259  0.1936 -0.1939  0.0314
31537W        W48011   6.828   9.028   1.716  0.1663 -0.0063  0.2929
31538W        W48012  17.477   4.891  16.893 -0.2351 -0.1457 -0.1143
31539W        W48013  15.025   0.261   2.204 -0.0845  0.2074 -0.0928
31540W        W48014   6.425   6.790   5.449 -0.0664 -0.1965  0.4108
31541W        W48015  13.497   2.619  15.759  0.0736 -0.0624  0.2118
31542W        W48016   3.238  10.906  14.888 -0.1588 -0.1161  0.0123
31543W        W48017  13.333   6.578   3.199 -0.0199  0.2110  0.2937
31544W        W48018  13.864   2.349  15.349  0.2713 -0.3610  0.1696
31545W        W48019  15.662   7.038   1.038 -0.1088  0.1335 -0.1497
31546W        W48020  10.664  11.937   1.545  0.3025 -0.3284 -0.1947
31547W        W48021   8.248   0.411  12.657  0.0676  0.1654  0.3039
31548W        W48022  17.693   5.154   4.024 -0.2492 -0.0628  0.0946
31549W        W48023   2.592  14.980  14.173 -0.0430  0.2671 -0.0801
31550W        W48024  15.383  14.352   4.832 -0.2575 -0.1459  0.0641
31551W        W48025   3.427   2.460  16.761  0.1841  0.2085  0.1397
31552W        W48026   5.006  14.497  15.375  0.2166 -0.0743  0.3402
31553W        W48027  12.153   9.503  12.642 -0.0687 -0.0343 -0.0961
31554W        W48028  13.354  10.632  14.060 -0.1955  0.1373 -0.1541
31555W        W48029  13.824  13.611  12.397  0.0095 -0.1907  0.1825
31556W        W48030  17.472   0.664  12.172 -0.0236 -0.0455 -0.1574
31557W        W48031  12.844   5.541  12.145 -0.2067 -0.1173 -0.0131
31558W        W48032  11.111   5.705  15.801 -0.2815  0.1456 -0.1181
31559W        W48033   5.942   5.062  16.406  0.2528  0.3590  0.0848
31560W        W48034   1.532  10.460   1.633 -0.0195 -0.2135 -0.0633
31561W        W48035   0.349   9.826  13.407 -0.1060  0.1191 -0.0220
31562W        W48036   3.444   7.283  12.137  0.2010 -0.4401 -0.0299
31563W        W48037   1.527   1.106   2.559 -0.3386  0.0228 -0.0323
31564W        W48038   8.254  12.304   4.214  0.0890 -0.0474  0.0285
31565W        W48039  14.056  10.794  13.014  0.0732  0.1519 -0.1133
31566W        W48040   5.572   6.339  11.978  0.0905  0.4761 -0.0987
31567W        W48041   7.588   4.619   3.224 -0.1287 -0.2300 -0.1640
31568W        W48042   2.813   8.315   1.472 -0.1924 -0.0721  0.1201
31569W        W48043  10.519   3.240   4.873 -0.1832 -0.1736  0.2854
31570W        W48044   1.726   5.362  13.986  0.0042  0.3929  0.1086
31571W        W48045   9.974   1.890  11.826  0.3090 -0.0038 -0.1057
31572W        W48046   7.827   6.805  13.949 -0.1519 -0.1873  0.3583
31573W        W48047   5.936   6.476  12.885  0.0023 -0.3270  0.0857
31574W        W48048  10.283   8.668   2.909  0.4182  0.0963  0.1441
31575W        W48049   2.435  11.425   0.651  0.0417  0.1164  0.2944
31576W        W48050   0.613  11.711  13.022  0.1413  0.1293  0.0313
31577W        W48051   3.126  17.040  16.243 -0.1237  0.0973  0.1867
31578W        W48052  10.680   7.035  13.344 -0.3022  0.1351  0.0431
31579W        W48053   1.898   5.191   5.698  0.1717 -0.0181 -0.0110
31580W        W48054   8.073  15.076  14.783  0.0473  0.2505  0.0125
31581W        W48055   9.554  10.345  13.404  0.0692  0.1610  0.1303
31582W        W48056   4.454   6.902  15.619  0.2254 -0.1667 -0.1239
31583W        W48057   0.127   8.394  15.692  0.0134  0.1890  0.0822
31584W        W48058   4.290  15.664   0.766  0.0479  0.0145  0.1972
31585W        W48059   4.359   9.231   4.326  0.3111  0.5943 -0.0627
31586W        W48060   3.192  12.316   1.652 -0.0256  0.0965 -0.3117
31587W        W48061  17.649  16.029  12.034 -0.1807 -0.5148 -0.2259
31588W        W48062   1.536   4.195  16.111 -0.0906 -0.0492 -0.0647
31589W        W48063   2.168  10.262   2.814 -0.0385  0.0704 -0.3322
31590W        W48064   3.784   1.199   4.313 -0.0110  0.0839 -0.1144
31591W        W48065   7.005  16.166  14.628  0.0037  0.0405  0.3034
31592W        W48066   1.820  15.048  14.103 -0.1463  0.0562 -0.0907
31593W        W48067   0.215  13.349  16.564  0.1181 -0.2195  0.3167
31594W        W48068   5.364   8.469   5.258 -0.0489  0.0264  0.0164
31595W        W48069   9.032  12.894   4.462 -0.0185 -0.2558 -0.0952
31596W        W48070  13.535  13.712   5.185  0.0510 -0.2778 -0.0833
31597W        W48071   2.496   3.822   0.688  0.3066  0.1761  0.4365
31598W        W48072   8.023   9.441   3.186 -0.0274 -0.5239  0.0544
31599W        W48073   1.290   8.169   5.483  0.0637  0.1489  0.0446
31600W        W48074  12.952  16.020  14.510  0.1747 -0.1870  0.0347
31601W        W48075   0.491   2.331   2.171  0.1234 -0.0511 -0.1032
31602W        W48076  11.876  16.840   1.224 -0.0729  0.0593  0.0546
31603W        W48077   7.534  11.198   5.607  0.2475 -0.0803  0.0627
31604W        W48078   7.078   4.353   5.732  0.0560 -0.2058 -0.0029
31605W        W48079   5.927  10.853   2.648  0.0246 -0.0087 -0.2062
31606W        W48080  11.945   6.080   1.323  0.4209  0.0057 -0.1023
31607W        W48081   9.268   5.337  15.919 -0.0393  0.2289  0.1338
31608W        W48082   6.011   8.830  14.807  0.2064  0.1420 -0.1939
31609W        W48083   1.891   8.641   1.209 -0.0263  0.0989 -0.0552
31610W        W48084   3.949   7.473   0.637 -0.0723 -0.1773  0.0673
31611W        W48085   5.842   2.725   0.562  0.1179  0.1204 -0.0955
31612W        W48086   8.300   9.051   2.645 -0.0679  0.0384  0.1549
31613W        W48087   2.872   2.569  15.448  0.0217  0.0379 -0.0237
31614W        W48088  11.457  15.499   0.227 -0.2271  0.0469  0.1857
31615W        W48089   8.395  13.200  14.380  0.2353  0.2481 -0.0453
31616W        W48090  12.745   0.272   4.027  0.0667  0.1226  0.2753
31617W        W48091  12.132  12.861   3.784 -0.1251  0.0655 -0.1220
31618W        W48092   8.685   5.465  14.522 -0.4302 -0.0313 -0.2754
31619W        W48093   0.087  11.131  11.725  0.0914  0.0706 -0.0080
31620W        W48094   2.361   5.417   1.483 -0.0597  0.1698  0.0684
31621W        W48095  12.862  14.039   4.740 -0.0581  0.1457 -0.0483
31622W        W48096  12.445   7.128  15.469 -0.0820 -0.0807 -0.1116
31623W        W48097  11.007   7.930  15.600 -0.1412  0.0257 -0.1894
31624W        W48098   2.131  13.633  16.636  0.2006 -0.0741  0.2617
31625W        W48099   5.252  14.848   0.924  0.0896  0.1357  0.3067
31626W        W48100   9.362   8.936  15.891 -0.1131 -0.0257 -0.2677
31627W        W48101   2.576   1.251   3.865 -0.3116 -0.2034  0.0016
31628W        W48102  16.607   6.605  16.829  0.1448 -0.3052 -0.0746
31629W        W48103  16.935  13.737   3.868 -0.0537 -0.1770  0.0274
31630W        W48104   4.578   8.919  16.311 -0.1532  0.1738  0.0615
31631W        W48105   6.095   0.150   1.366  0.0578 -0.1079  0.0014
31632W        W48106   8.071   5.095  12.489 -0.2600  0.1451 -0.2205
31633W        W48107   9.085  16.923   3.940 -0.0068  0.0494  0.1572
31634W        W48108  10.635   1.451   0.813 -0.0364 -0.1087 -0.0268
31635W        W48109   9.482   0.867  14.807 -0.0506  0.1006  0.0980
31636W        W48110  11.789  15.402   0.600 -0.2587 -0.0021  0.1855
31637W        W48111   2.351  14.433   2.857  0.2757  0.4648 -0.2126
31638W        W48112  12.341   4.605  14.374 -0.1590  0.0533 -0.0307
31639W        W48113   8.542  11.894   0.158  0.2193  0.0214  0.0043
31640W        W48114  12.787   3.445   0.414 -0.1438  0.1367 -0.1249
31641W        W48115  15.662  11.772  16.436 -0.2365  0.1841  0.2048
31642W        W48116  17.686  13.590  12.887 -0.1094 -0.0684  0.2213
31643W        W48117   7.484   2.229  12.898 -0.3795  0.3172 -0.1179
31644W        W48118   6.826   1.730  12.621  0.2940  0.2152 -0.0248
31645W        W48119  11.979   8.126  14.991  0.0706  0.1468  0.5009
31646W        W48120  10.226   4.515  13.087 -0.0880 -0.0772  0.1897
31647W        W48121  10.065  17.636   0.639 -0.0695  0.5519  0.0300
31648W        W48122  15.186   9.929  15.602  0.0339  0.2230 -0.1644
31649W        W48123   3.143   3.531  12.577  0.0656 -0.0523  0.0037
31650W        W48124  16.819   8.205   5.002  0.1558  0.0526  0.2654
31651W        W48125  16.332  13.817  16.664 -0.1493  0.0497 -0.0891
31652W        W48126  13.279  12.900   1.579  0.1378  0.0240  0.1035
31653W        W48127   4.368   1.118  15.142 -0.2489  0.3527  0.0293
31654W        W48128   6.208   2.169   4.856 -0.1107  0.0532 -0.2680
31655W        W48129  10.782   6.262  16.595  0.0659  0.2461 -0.1135
31656W        W48130   4.268  11.713   1.068 -0.2833 -0.3864  0.1184
31657W        W48131  13.115   4.674  12.083  0.1282 -0.0631 -0.0425
31658W        W48132  14.449  15.447  15.880  0.2608  0.2934 -0.1261
31659W        W48133   1.942   4.709   0.830 -0.2912  0.1994  0.3885
31660W        W48134   0.164   0.022  16.919  0.1046 -0.1966 -0.1188
31661W        W48135   4.312   2.265  11.346  0.0646  0.0087 -0.1312
31662W        W48136   1.532  15.033   0.188  0.1620  0.0854 -0.1856
31663W        W48137   8.978   4.265   6.561 -0.1496 -0.1008 -0.0146
31664W        W48138  16.600   1.033   2.065 -0.0397  0.1523 -0.1311
31665W        W48139   5.185   3.541  13.144  0.1421  0.4502 -0.2210
31666W        W48140  15.218  12.423   2.078 -0.1279  0.1445  0.1027
31667W        W48141   2.607  12.992  15.397 -0.1421 -0.1062 -0.0696
31668W        W48142   6.837  14.554  13.174  0.2617 -0.0243 -0.1807
31669W        W48143  16.814  14.251  15.395  0.3082  0.2511  0.1365
31670W        W48144   7.054   2.281   3.847 -0.1110  0.1149  0.0922
31671W        W48145   9.001   5.652   2.152  0.0826 -0.0688 -0.0539
31672W        W48146   1.637   3.896   1.581  0.1425  0.3576 -0.1794
31673W        W48147  13.803   2.150   4.796  0.3573 -0.0539  0.3271
31674W        W48148   7.077   2.374  16.626 -0.2117  0.0577  0.1510
31675W        W48149  13.115   7.582   0.705  0.0478 -0.0055  0.1701
31676W        W48150   4.222   2.994   5.689 -0.1694 -0.2966 -0.0720
31677W        W48151   9.342  13.871  15.363  0.2027  0.3098 -0.1834
31678W        W48152  17.469   9.160   0.627  0.0917 -0.0334 -0.3611
31679W        W48153   0.186   0.440   2.281 -0.1689  0.1762  0.0564
31680W        W48154   8.655   1.258   5.327 -0.0182 -0.2931  0.0145
31681W        W48155  17.313  17.529   0.607 -0.2449 -0.1439  0.2305
31682W        W48156  15.249   6.574  15.037  0.1113  0.0725  0.0479
31683W        W48157  11.764   7.558  11.859  0.0851 -0.0878 -0.2211
31684W        W48158  13.569   4.748  13.303 -0.2211 -0.1393 -0.2077
31685W        W48159   2.647  14.942  15.133  0.0787 -0.1761  0.3404
31686W        W48160  15.568  16.157  14.647 -0.0457 -0.0660  0.1382
31687W        W48161   2.842   4.885  16.821 -0.1440 -0.1641  0.1148
31688W        W48162   5.510   6.458  16.918 -0.0015  0.3898 -0.6154
31689W        W48163   8.975  11.530  15.539 -0.1170 -0.1384  0.1669
31690W        W48164  10.053  15.577  14.892 -0.1331  0.0409  0.1100
31691W        W48165   1.833   6.978   4.063  0.0277  0.0448  0.1142
31692W        W48166   4.914   8.860  13.944 -0.1520  0.2024  0.1835
31693W        W48167  13.528  10.639  15.507  0.1952 -0.3168 -0.0933
31694W        W48168   1.619  16.008  13.247  0.1797  0.1316  0.0991
31695W        W48169  12.906   8.014  12.020  0.3914 -0.0249 -0.1593
31696W        W48170   7.543   9.678  15.875  0.1159 -0.0986 -0.2365
31697W        W48171  14.182  16.338   3.776 -0.2130  0.1374 -0.0832
31698W        W48172  17.561   9.769   5.876 -0.0847 -0.0203  0.0301
31699W        W48173  10.622   8.235  16.835  0.0023  0.0352 -0.3400
31700W        W48174  13.444   7.237  11.308 -0.0282 -0.2672 -0.0470
31701W        W48175   5.249   7.343   3.487  0.0794 -0.0177 -0.0073
31702W        W48176   0.005   5.554  14.873 -0.0335  0.0094 -0.1608
31703W        W48177  11.821  11.499   5.204  0.2663 -0.0411  0.3236
31704W        W48178   3.245   3.833   4.486 -0.1369 -0.1712  0.4125
31705W        W48179   8.437  10.133  14.565  0.2959  0.0789 -0.0573
31706W        W48180  13.986  17.716   0.270 -0.0385 -0.0769 -0.2577
31707W        W48181   7.939  16.302  16.283  0.1731  0.1335 -0.2609
31708W        W48182   3.147   0.248   0.263 -0.0457  0.1031 -0.1697
31709W        W48183  14.135   8.537  13.343 -0.0711  0.0316 -0.0821
31710W        W48184  16.556   6.556  12.747 -0.3730 -0.3751  0.2575
31711W        W48185   6.650  13.427  13.841 -0.0853 -0.1343  0.1293
31712W        W48186   7.605  17.772   3.551 -0.0024  0.0822 -0.2899
31713W        W48187   6.127  17.524  16.588 -0.1243  0.0174 -0.2159
31714W        W48188   0.534   5.583  12.124  0.1578  0.1553  0.1891
31715W        W48189   2.751  16.069  14.251 -0.2859  0.1967 -0.2700
31716W        W48190   0.395   6.369   2.725  0.1334  0.2058  0.0934
31717W        W48191  12.200   4.405   4.341  0.0096  0.1442  0.1211
31718W        W48192  15.121  12.444  14.784  0.0328 -0.3351  0.4386
31719W        W48193   4.357  15.810   2.352  0.2666  0.1800 -0.2631
31720W        W48194  15.077   6.207  12.055  0.0421 -0.1102  0.0118
31721W        W48195  12.326   8.812  11.647 -0.2244  0.0937  0.0540
31722W        W48196   1.381   6.681   2.066 -0.1566 -0.1124 -0.2478
31723W        W48197  14.211   5.615  16.073 -0.1416 -0.3495 -0.0196
31724W        W48198   2.721  10.862  12.259 -0.2732 -0.1920 -0.2184
31725W        W48199   6.093   9.828   2.566 -0.2321  0.3007  0.0969
31726W        W48200   3.694   3.928  12.955 -0.1396 -0.0066  0.0758
31727W        W48201   1.017  15.686   1.649  0.1815 -0.1067  0.3302
31728W        W48202  13.111   6.252  15.002  0.1347  0.2488  0.1871
31729W        W48203  11.176  17.659  11.961 -0.1026 -0.1796 -0.0719
31730W        W48204   7.430   7.666   4.758  0.4536 -0.3476  0.1917
31731W        W48205   1.006   2.722  16.817  0.0111 -0.1051 -0.2420
31732W        W48206   5.257  11.650  13.026  0.1783  0.2064 -0.0745
31733W        W48207  13.016   0.416   1.618 -0.2841  0.1791 -0.2390
31734W        W48208  14.693  13.282  14.845  0.0299 -0.2539  0.1021
31735W        W48209   1.151   1.271  14.725 -0.2199 -0.2325 -0.1063
31736W        W48210   2.221   5.501  12.116 -0.1475 -0.1774 -0.2845
31737W        W48211  16.815  17.700  12.134 -0.1204 -0.2118 -0.1685
31738W        W48212  11.818   2.807  13.270  0.0425 -0.0833 -0.0636
31739W        W48213  15.104  13.381   0.860 -0.1107  0.0722  0.4018
31740W        W48214  12.713  15.684  16.244  0.0949  0.1639  0.1351
31741W        W48215  12.346  11.680   4.437 -0.1092 -0.0617  0.2558
31742W        W48216   7.882   5.102  16.572 -0.1333  0.2811 -0.1536
31743W        W48217   9.148  14.151   0.518  0.0023 -0.1481 -0.1727
31744W        W48218   3.791   2.929  16.543 -0.4786  0.0181 -0.0278
31745W        W48219   3.537  13.134   4.074 -0.2852  0.0250 -0.1624
31746W        W48220  16.819  11.039  13.188  0.1350 -0.1740  0.0960
31747W        W48221   6.557  17.244  15.293 -0.0685  0.3331  0.0152
31748W        W48222  10.957   6.625   5.710  0.0700 -0.0759  0.3438
31749W        W48223  13.934  15.882   2.148 -0.1290  0.1924  0.2072
31750W        W48224  14.424  17.218   3.209 -0.0838  0.0014  0.0813
31751W        W48225   4.934  13.587   1.155 -0.2501 -0.0696 -0.3500
31752W        W48226  16.371  10.699   1.590  0.1040  0.0304 -0.0553
31753W        W48227  11.192   5.736  16.284  0.0435  0.0691 -0.3633
31754W        W48228   6.332  11.070   5.025  0.0968  0.0688  0.0812
31755W        W48229   3.786  12.936   0.258 -0.1626  0.3890  0.0779
31756W        W48230   8.514   4.842   1.754 -0.2658 -0.2560  0.2142
31757W        W48231   2.871  13.199   2.379  0.0382 -0.0566  0.0832
31758W        W48232  14.210   6.638  11.855 -0.0525  0.0286 -0.0083
31759W        W48233   0.323  17.733   4.638 -0.1484  0.1120 -0.0439
31760W        W48234   5.998   7.142  15.869 -0.2836  0.0773 -0.0578
31761W        W48235  10.152  14.062  12.886 -0.2459  0.0765 -0.1716
31762W        W48236   9.605   5.103   5.091  0.0158  0.0621  0.0072
31763W        W48237   7.062   7.340  14.923  0.2211  0.2152 -0.1629
31764W        W48238   3.043  10.173   1.001  0.0069  0.2376 -0.0350
31765W        W48239   8.219   1.578  11.790 -0.0404 -0.0632 -0.1494
31766W        W48240  17.381   2.198   5.308  0.2583  0.0257  0.0120
31767W        W48241   0.352   1.894   2.372  0.3616  0.0585  0.2008
31768W        W48242  10.453   5.842  15.269  0.1982  0.1288 -0.1323
31769W        W48243   1.744   9.925  16.823  0.0163  0.1496 -0.2079
31770W        W48244   4.139  15.065  13.969  0.1630 -0.2050  0.0245
31771W        W48245   4.092  17.127  14.835 -0.0490  0.1150  0.4528
31772W        W48246   4.406  12.935   3.408  0.0469  0.0109  0.0031
31773W        W48247   3.082   0.933  14.346  0.1813 -0.1235  0.3978
31774W        W48248   0.376   3.581  11.915  0.0150  0.0390  0.1137
31775W        W48249   2.006   7.880  15.811 -0.0389 -0.1660  0.2471
31776W        W48250   7.616   8.296   2.727  0.4018 -0.0622  0.1073
31777W        W48251  13.778   5.582  12.758 -0.2728 -0.1201 -0.2077
31778W        W48252  11.713   7.788   1.355  0.2125 -0.0379 -0.1569
31779W        W48253  14.698   9.891   1.517  0.1137  0.1847 -0.0702
31780W        W48254  13.182  12.162   3.892 -0.3327  0.0242 -0.1834
31781W        W48255  17.358   7.120   2.313 -0.2126  0.1393 -0.0710
31782W        W48256  10.003   3.165   1.925 -0.4168 -0.1715 -0.2534
31783W        W48257   5.944   1.687  16.700 -0.2309  0.0715 -0.2374
31784W        W48258  14.342   0.134   2.719  0.3566 -0.0251  0.1709
31785W        W48259  15.499  13.878   4.673 -0.1743 -0.1119 -0.2566
31786W        W48260  17.028  12.097  13.772  0.0621 -0.2169  0.6949
31787W        W48261  10.324   6.705   4.844  0.2618  0.0801  0.0671
31788W        W48262   4.214  11.478   4.334 -0.2362  0.0352 -0.0487
31789W        W48263   3.828   6.687   2.968 -0.2199  0.0573  0.4522
31790W        W48264  14.650  16.194  12.051 -0.1250  0.0036  0.1790
31791W        W48265  10.199   1.994   5.085  0.0980 -0.0982 -0.0768
31792W        W48266   5.559   9.473  12.936  0.3355  0.2084 -0.3822
31793W        W48267  16.211  14.626   1.729 -0.4026 -0.2796  0.2399
31794W        W48268  11.282  10.397   4.507  0.0795  0.3628 -0.1271
31795W        W48269   8.489   3.892   1.179 -0.2714 -0.1942  0.4022
31796W        W48270   9.388  16.704  12.710 -0.0719 -0.1691  0.2005
31797W        W48271  12.236   3.713   3.562 -0.0462 -0.1439  0.1625
31798W        W48272  13.107   0.547  16.625  0.0406 -0.0480  0.2174
31799W        W48273   8.828   9.309  14.248 -0.0845  0.0958  0.1265
31800W        W48274   0.433   4.835   0.757 -0.2589 -0.0128  0.0046
31801W        W48275   9.668   2.676   2.154 -0.0599 -0.1210 -0.2531
31802W        W48276  15.950   1.035   5.231 -0.3619  0.0724 -0.0819
31803W        W48277   2.554   9.914   3.710 -0.1679 -0.0564 -0.1193
31804W        W48278   7.479  12.534  12.032  0.0918  0.1536 -0.0985
31805W        W48279  13.906  15.726   3.149 -0.0810  0.0507 -0.1136
31806W        W48280   1.149  16.437  12.196 -0.0282 -0.1463  0.2561
31807W        W48281  12.629  10.985  12.381 -0.1014  0.2281  0.0384
31808W        W48282  14.961   9.432   2.842 -0.1934  0.0805 -0.0800
31809W        W48283   4.280   5.850  15.716  0.1782  0.1425  0.1655
31810W        W48284  12.209  14.713   1.494 -0.2091 -0.2987 -0.1302
31811W        W48285  11.203   6.138   4.706 -0.0750 -0.2890 -0.0138
31812W        W48286  13.733  11.654   5.224 -0.0818 -0.2048  0.0046
31813W        W48287   2.220  15.296   4.251  0.0912  0.2049 -0.0132
31814W        W48288   0.593  14.482   1.103 -0.1060  0.1595 -0.0231
31815W        W48289   7.433   5.835   1.006  0.1194 -0.0417 -0.1034
31816W        W48290   5.832   0.064   3.944  0.2145 -0.0016  0.1657
31817W        W48291  14.066  10.428  14.814 -0.1022 -0.0788  0.2703
31818W        W48292  16.014   6.744  13.803  0.0801  0.1143  0.0651
31819W        W48293   0.717   1.130   2.251  0.1868  0.1319  0.0727
31820W        W48294  11.989   6.632  13.639  0.1232 -0.0426 -0.2844
31821W        W48295  11.724  14.117   1.738  0.0333  0.1938 -0.1161
31822W        W48296   2.069   3.457  12.642 -0.1042  0.0091 -0.0891
31823W        W48297   6.654  12.080  10.645 -0.1413 -0.0452  0.2204
31824W        W48298  15.342  15.184  11.238 -0.0198 -0.0310  0.0573
31825W        W48299   2.497  10.066  16.216  0.1839 -0.0679  0.0306
31826W        W48300  15.442   2.882   3.971 -0.0395  0.1123  0.0027
31827W        W48301   7.122   1.441  12.283  0.1080  0.1915  0.4324
31828W        W48302  16.069  11.776  12.803 -0.0827  0.2950 -0.1707
31829W        W48303   3.628  16.198  16.689  0.0822 -0.1097  0.0605
31830W        W48304  13.789   1.738  16.201  0.0391 -0.1145  0.0915
31831W        W48305  17.026   2.635   1.180 -0.0859  0.0257 -0.1409
31832W        W48306   6.436   8.572  14.678 -0.0407  0.0376  0.1084
31833W        W48307   7.713  11.945   5.056 -0.0711  0.1656 -0.1628
31834W        W48308  13.877  12.639   1.119  0.4681 -0.0462  0.0177
31835W        W48309   2.457  10.781  13.385 -0.0322  0.2768 -0.2363
31836W        W48310   8.657  12.614   4.365 -0.3041 -0.2199  0.1071
31837W        W48311   4.967  13.862   5.844 -0.1743 -0.1504 -0.2913
31838W        W48312   1.053  10.540  16.437 -0.0306  0.3253 -0.1237
31839W        W48313   4.690   8.187   5.087 -0.0499  0.2953 -0.0667
31840W        W48314   6.092  15.315   3.981 -0.3260 -0.0670  0.1092
31841W        W48315   7.528  15.183  12.704  0.1170 -0.0245 -0.2895
31842W        W48316  16.848  10.078   3.559 -0.1704  0.1767  0.0500
31843W        W48317   0.101   2.402  15.129 -0.0184  0.0711  0.1421
31844W        W48318   5.897   6.014  15.037  0.2554  0.0389 -0.3172
31845W        W48319  11.195   9.620  13.696  0.0034 -0.2320  0.1700
31846W        W48320   8.522  15.173  12.983  0.1154  0.2286 -0.0694
31847W        W48321  11.623   4.938   1.716  0.0304  0.0116  0.3240
31848W        W48322   0.572  10.943   4.644 -0.0568 -0.0671  0.0578
31849W        W48323   8.097  16.007   3.266 -0.2396  0.0124  0.2395
31850W        W48324   7.231   9.865   3.181  0.3519  0.0282  0.2707
31851W        W48325   3.406  15.543  15.243  0.1767 -0.3571 -0.0114
31852W        W48326   2.062   3.962   4.490  0.3717 -0.1426 -0.1004
31853W        W48327   9.088  15.404  15.246 -0.1157 -0.3300  0.0668
31854W        W48328   2.767   1.872   1.465  0.0451 -0.2091  0.0165
31855W        W48329  11.670  12.524   1.145  0.2241 -0.0877 -0.1338
31856W        W48330  13.019  10.032   5.880 -0.0918 -0.0649 -0.1775
31857W        W48331   3.610  14.314   3.713  0.2126  0.0128 -0.0692
31858W        W48332  14.384  13.518  12.478  0.1416  0.3641  0.3269
31859W        W48333   2.123   9.898  14.095  0.1322 -0.4087 -0.0937
31860W        W48334   0.417   5.827  16.921 -0.0610 -0.0268 -0.3887
31861W        W48335   8.029   4.410   3.196  0.1605 -0.1238  0.0712
31862W        W48336   6.208   5.941  13.284 -0.2876 -0.1579  0.2473
31863W        W48337   1.414  10.575  13.649  0.1290  0.1255  0.1930
31864W        W48338  14.545   4.879   5.160  0.0662 -0.0209 -0.4926
31865W        W48339   2.563   2.819   3.491 -0.0046  0.2993 -0.0882
31866W        W48340  16.206   7.100  14.854 -0.0512  0.1625 -0.3244
31867W        W48341   2.969  12.045   1.293 -0.1038 -0.1796  0.3730
31868W        W48342  12.892  17.213   0.944  0.1740 -0.0378  0.0837
31869W        W48343   5.241   7.029   3.897 -0.0369  0.0258  0.0198
31870W        W48344   2.663   7.371  15.736 -0.0463 -0.2083 -0.4172
31871W        W48345   3.024  16.825   1.478  0.1520  0.0619 -0.0814
31872W        W48346   7.924  12.622  13.125  0.2182  0.1005  0.1765
31873W        W48347  16.525  10.697   3.231  0.3653 -0.2695  0.0191
31874W        W48348   0.353   4.211  16.397  0.1524 -0.1180 -0.0100
31875W        W48349  10.725   9.263   4.331 -0.0158  0.2040 -0.3386
31876W        W48350   7.036  17.051   0.395  0.0104 -0.1810  0.1211
31877W        W48351   5.295   2.030  12.416  0.2473  0.2354 -0.1128
31878W        W48352  14.727  13.549  14.380 -0.1217  0.1820 -0.2174
31879W        W48353   3.317   1.607  13.737  0.2646 -0.2792  0.2193
31880W        W48354   9.359   4.718  13.445 -0.0926 -0.4825  0.2967
31881W        W48355   4.743  10.145  12.945 -0.2802  0.0000  0.3097
31882W        W48356   3.690  16.597  14.324  0.0025  0.4667 -0.2047
31883W        W48357  13.478  16.064   3.439 -0.1978 -0.2545  0.0565
31884W        W48358  11.084  14.035   4.637 -0.0145 -0.1596  0.0189
31885W        W48359  11.003  14.166  14.571  0.0390  0.0542  0.1331
31886W        W48360   7.329  11.433  14.143  0.1694  0.1504 -0.0287
31887W        W48361   3.796  14.838   3.711  0.1812 -0.0344 -0.0979
31888W        W48362   0.210  10.399  14.111  0.1617  0.4085 -0.0575
31889W        W48363  16.549   2.158   3.265 -0.2628 -0.1692 -0.0098
31890W        W48364  10.121   2.281   3.485 -0.1207  0.1657 -0.2580
31891W        W48365   3.068   6.555   3.716 -0.1042  0.3950  0.0984
31892W        W48366  15.322  13.976  16.081  0.1521  0.3044  0.2525
31893W        W48367  12.342  17.432   4.323  0.0428  0.0235 -0.1980
31894W        W48368   7.622   6.381  12.247 -0.5298 -0.4465  0.2242
31895W        W48369   3.379  12.491   5.590 -0.0419 -0.0765  0.0959
31896W        W48370   9.559   5.768  16.710  0.1807  0.0215  0.1019
31897W        W48371   9.070  14.602   1.952 -0.0478 -0.1827 -0.1427
31898W        W48372  10.792   3.784  13.649 -0.0197  0.0815 -0.0702
31899W        W48373  11.123   9.009  16.198 -0.3394 -0.0645 -0.2727
31900W        W48374   1.389  12.508  12.091 -0.1315  0.0881 -0.1737
31901W        W48375   2.636  13.780  15.079  0.0114  0.0715 -0.3137
31902W        W48376   4.187  11.551  13.274  0.0624  0.1547 -0.2138
31903W        W48377   4.565   0.398  11.956 -0.1846  0.1285  0.1036
31904W        W48378   0.772   6.448   5.296 -0.0814  0.3534 -0.0012
31905W        W48379   9.301   7.169  15.698  0.0384  0.1565  0.0598
31906W        W48380   1.361   1.631  14.440  0.0343  0.1103  0.0028
31907W        W48381  17.471   5.687   5.223  0.1749 -0.0488  0.3619
31908W        W48382   1.738  13.434   0.571 -0.0946 -0.3605 -0.2446
31909W        W48383   3.044   1.443   1.172 -0.1531  0.3218 -0.1346
31910W        W48384  13.637  11.908   1.600  0.1863 -0.2060 -0.0508
31911W        W48385   3.461  12.632  11.574  0.0249  0.0186 -0.4170
31912W        W48386   3.333   1.833  12.798 -0.4952 -0.1184  0.1811
31913W        W48387   5.857  12.051   3.774 -0.3225 -0.0155 -0.2579
31914W        W48388  11.810   5.101   4.479 -0.1499  0.0224 -0.1718
31915W        W48389   5.437  17.787  11.270  0.0486  0.0344 -0.0696
31916W        W48390  13.213   2.044   1.739  0.0525 -0.0074  0.2561
31917W        W48391   0.199   0.767   1.765 -0.5279 -0.0096 -0.0666
31918W        W48392   7.359   7.254  15.780 -0.1879 -0.0412  0.2118
31919W        W48393  16.054   7.450   5.706  0.1909 -0.0546  0.0332
31920W        W48394   7.715   4.267   0.614 -0.1348 -0.0691 -0.1369
31921W        W48395   8.472   2.250  12.881 -0.0338 -0.1903  0.1051
31922W        W48396  14.881   1.223  13.436  0.1716  0.3576  0.1205
31923W        W48397   9.093   7.712   4.301  0.1912  0.2552  0.2453
31924W        W48398   2.605  14.356  14.291 -0.0516 -0.0904  0.2846
31925W        W48399  17.797   2.509  16.594 -0.2194 -0.1316 -0.1784
31926W        W48400   1.086   7.647   4.062 -0.3001 -0.3712 -0.2673
31927W        W48401  13.934   4.945  14.143 -0.1128  0.1379 -0.0400
31928W        W48402   7.751  16.740   2.070  0.2286  0.0283  0.1839
31929W        W48403   6.398  16.434   0.720 -0.2470 -0.4171 -0.1393
31930W        W48404   8.038   7.070   3.845  0.1056 -0.0131 -0.0268
31931W        W48405  15.222   1.497  14.193 -0.0292  0.0192 -0.0484
31932W        W48406  11.250   8.092   2.410 -0.0829 -0.0638 -0.2213
31933W        W48407  10.962  10.267   5.793 -0.2674  0.2238  0.2875
31934W        W48408   5.453  15.027  15.872  0.1060 -0.0477 -0.0372
31935W        W48409   5.684   8.628  12.317  0.0060 -0.1263  0.0650
31936W        W48410  14.758  12.589   5.045  0.1073  0.0942  0.0432
31937W        W48411  11.006   8.574  16.531  0.2245 -0.2110 -0.3379
31938W        W48412  13.972   6.241   2.525 -0.0442 -0.2265 -0.1841
31939W        W48413  12.489   8.555   2.219 -0.3599  0.2743  0.0697
31940W        W48414  11.766   7.772  13.557  0.0812 -0.3008  0.0624
31941W        W48415   3.328  11.936  13.610 -0.0854  0.1734  0.1872
31942W        W48416   6.523  10.480  14.582  0.2723  0.0221 -0.2445
31943W        W48417   3.744   6.377   4.672 -0.2210 -0.0428 -0.0735
31944W        W48418  11.038  11.558   3.636  0.1813 -0.2061  0.2064
31945W        W48419   1.417  16.720  13.570  0.2329  0.0800 -0.0205
31946W        W48420   9.524   4.849  15.772  0.0977 -0.3781 -0.1175
31947W        W48421   1.559   9.355  12.081 -0.0322  0.1829  0.0036
31948W        W48422   5.362  15.180  15.417  0.1179 -0.0791  0.2770
31949W        W48423  15.778   6.368  16.384  0.2401  0.3084  0.0646
31950W        W48424   6.695   8.634  12.071 -0.1668 -0.1011 -0.0739
31951W        W48425   3.988   1.619  12.034 -0.1619 -0.0520 -0.2025
31952W        W48426   3.102   3.573  14.118  0.0619 -0.0135 -0.2085
31953W        W48427   7.970   3.411  10.756 -0.0712 -0.1355  0.0005
31954W        W48428   6.213  13.225   2.152  0.1195 -0.0187 -0.1865
31955W        W48429  14.341   5.687  11.875 -0.0357  0.1482  0.0592
31956W        W48430  13.586  10.353  15.098  0.1052 -0.2232 -0.0229
31957W        W48431  13.437   0.836  12.650 -0.0682  0.0739  0.0603
31958W        W48432  16.834  10.715   4.215  0.0113  0.0345  0.5255
31959W        W48433   5.285   2.428   3.357  0.0977  0.1552 -0.2024
31960W        W48434   6.227   8.511  12.253 -0.0785  0.0301  0.1981
31961W        W48435   8.860   9.225   3.410 -0.3020 -0.2482  0.2416
31962W        W48436   9.613   1.292  13.041 -0.0933  0.1844  0.0803
31963W        W48437   7.489  14.620  16.568 -0.2172  0.2608 -0.1386
31964W        W48438  13.547  10.983   4.068  0.0365  0.1966  0.1748
31965W        W48439   0.608   4.006  11.782 -0.1652  0.1603  0.2729
31966W        W48440   3.238  11.017  12.287 -0.0259  0.1390 -0.1101
31967W        W48441  11.535   4.230  16.393 -0.2359 -0.1070 -0.0157
31968W        W48442   8.039  16.803  16.390  0.1729  0.0213 -0.0205
31969W        W48443  15.061   6.601  15.528  0.1014 -0.0352  0.3512
31970W        W48444  12.880   1.527   4.109  0.1306  0.0147  0.0713
31971W        W48445  16.129  11.570  12.370  0.0032 -0.2774  0.0352
31972W        W48446  15.592   0.350   6.173  0.2210 -0.0968  0.2748
31973W        W48447  11.092  10.522  13.965 -0.1171 -0.1576  0.0343
31974W        W48448   3.037   3.670  16.225  0.2858 -0.0670  0.1699
31975W        W48449   5.640   8.036   3.329  0.0353  0.1028 -0.1079
31976W        W48450  15.898   9.694  16.106 -0.0533 -0.1220 -0.0915
31977W        W48451  16.962  13.257   1.047 -0.1763  0.3829 -0.0493
31978W        W48452   6.046  16.072  12.844  0.0809 -0.0341 -0.2475
31979W        W48453  11.809  12.361  14.435  0.0282 -0.1686  0.1190
31980W        W48454  13.695  10.874  11.886 -0.2770 -0.0013 -0.2156
31981W        W48455   9.887   3.667  12.167  0.1437 -0.0417  0.3013
31982W        W48456   9.406   7.281   4.284 -0.1711 -0.1217  0.0452
31983W        W48457  11.629   0.943  12.144  0.3111 -0.0548  0.1288
31984W        W48458   4.096  14.266   4.005 -0.3244 -0.1531 -0.0072
31985W        W48459  10.501  10.758  16.089 -0.0775  0.0490  0.1911
31986W        W48460  15.144   3.221  12.296 -0.0182  0.2004  0.1550
31987W        W48461   0.641  10.771   2.098 -0.2572  0.0581  0.1043
31988W        W48462   8.396  15.885  11.146  0.0487 -0.0833  0.0084
31989W        W48463  10.317  15.889   1.293  0.1312 -0.0028 -0.0932
31990W        W48464   4.918  16.934  15.441 -0.3849 -0.2676  0.3385
31991W        W48465   5.813   3.152   0.080 -0.0691 -0.1402 -0.2848
31992W        W48466   9.475  17.410  13.201  0.3675 -0.0434  0.2039
31993W        W48467   1.079  16.931  16.135 -0.3423 -0.1205  0.1763
31994W        W48468  13.658  10.482  16.058  0.3323 -0.0306  0.2496
31995W        W48469   4.785   1.020  14.915 -0.2643 -0.1022 -0.2844
31996W        W48470  13.409  12.798   1.067 -0.1678  0.0425  0.1631
31997W        W48471   6.021   8.540   1.909 -0.1180  0.0717 -0.1849
31998W        W48472   5.021   4.536   1.210  0.1295  0.0454  0.0858
31999W        W48473  13.525   1.847  13.214 -0.4740  0.0606 -0.1643
32000W        W48474   2.663   4.741   2.000  0.2123 -0.1781  0.0279
32001W        W48475  17.404  11.847   2.314  0.0032  0.1165  0.0947
32002W        W48476  13.634  12.495  12.494 -0.2276 -0.1290 -0.0437
32003W        W48477   9.935   9.363  16.722 -0.1190  0.0416  0.0796
32004W        W48478   6.484   5.862   2.587  0.1718  0.0308 -0.3165
32005W        W48479   6.768  16.422   1.794 -0.1367  0.1784  0.2854
32006W        W48480  10.239   3.492   0.646  0.1944 -0.1250  0.0596
32007W        W48481   2.281   7.665   3.592  0.1754  0.2332  0.0959
32008W        W48482   9.750   5.626   4.586 -0.0097 -0.1200  0.1449
32009W        W48483   9.499  17.705   1.816  0.1013  0.0702  0.1622
32010W        W48484  12.769  12.793   2.569  0.1529  0.3423  0.1429
32011W        W48485  14.142   9.709  16.452  0.3340 -0.0970 -0.0664
32012W        W48486   1.210  13.768  14.505  0.0831  0.0319 -0.0289
32013W        W48487   3.388   7.808  12.216  0.0330 -0.2830  0.0752
32014W        W48488  17.411   3.919  13.568  0.0164 -0.2258  0.0200
32015W        W48489   4.491  12.470   3.089 -0.0412 -0.0130  0.1584
32016W        W48490  16.863  15.892   4.274  0.1572 -0.1296 -0.2180
32017W        W48491  12.498  10.955  15.691 -0.1702  0.1560 -0.0682
32018W        W48492  16.941  12.014  12.477 -0.1184 -0.0747  0.2104
32019W        W48493   9.700   0.762  12.947 -0.0759  0.2209  0.0143
32020W        W48494   3.113   3.350   0.543 -0.0855  0.1932  0.0725
32021W        W48495  13.040   6.664  13.893  0.1742 -0.2443  0.1016
32022W        W48496   7.680  17.006  13.802 -0.2380 -0.1201 -0.1623
32023W        W48497  14.561   4.025   1.602 -0.0408 -0.0584 -0.1826
32024W        W48498   9.398  13.744  11.588  0.2346 -0.2088  0.0944
32025W        W48499  16.294  12.658   4.472 -0.1778  0.2279  0.2635
32026W        W48500   0.340   4.674  16.194 -0.0541 -0.0455 -0.0496
32027W        W48501  12.945   4.872  14.795  0.1335 -0.0239  0.3451
32028W        W48502  13.841   4.238   0.374  0.0655  0.0421 -0.0665
32029W        W48503  11.612   1.792  12.832 -0.1214  0.1428 -0.1797
32030W        W48504   5.923   3.711   3.666  0.0914 -0.1085 -0.0590
32031W        W48505  15.062  10.700  14.387  0.2561  0.3386  0.0979
32032W        W48506   6.033  14.308   1.183  0.0679 -0.1875  0.2106
32033W        W48507   0.666  16.670  16.024  0.0218  0.0630 -0.0389
32034W        W48508  10.877   1.792   0.523 -0.1687  0.0173 -0.1326
32035W        W48509   1.711   7.258  16.563  0.0575  0.2785 -0.1732
32036W        W48510  13.041  12.771   5.507 -0.0098  0.1783 -0.1723
32037W        W48511  17.667  14.291  15.172 -0.3417  0.2401 -0.0771
32038W        W48512   9.031  13.435  16.476 -0.0249 -0.1090 -0.0097
32039W        W48513   1.924  11.227  12.160  0.2387  0.0255 -0.0898
32040W        W48514  15.282   3.032  13.874 -0.1776 -0.1338 -0.0374
32041W        W48515   2.595   7.875  15.722  0.1588 -0.0781  0.1898
32042W        W48516  16.696  15.989  12.805  0.1103 -0.3536 -0.1642
32043W        W48517   9.147  16.483   3.690 -0.0668 -0.1344  0.0636
32044W        W48518   2.989   7.629   4.412  0.1535 -0.0771  0.0244
32045W        W48519  12.326   4.543  14.920 -0.3083  0.2531  0.2434
32046W        W48520  15.005   2.042  11.766  0.0649 -0.2485 -0.1802
32047W        W48521  11.250  16.591   2.186  0.0162 -0.1813 -0.0296
32048W        W48522  11.465   1.987  16.061 -0.1299  0.0926 -0.0939
32049W        W48523  16.153  14.574  11.620 -0.3084 -0.0924  0.0145
32050W        W48524   6.822  10.620   0.195 -0.2141 -0.2042 -0.1060
32051W        W48525   0.061   9.573   4.633 -0.4103  0.0053 -0.0580
32052W        W48526  13.300   0.583   4.795 -0.0059 -0.2178  0.0798
32053W        W48527  17.705  15.821   0.081 -0.0118  0.0148  0.1590
32054W        W48528  11.096   5.434   3.820 -0.0195  0.0442  0.0447
32055W        W48529   5.176   4.542  14.869 -0.1673  0.1788  0.2616
32056W        W48530  10.404   7.192   2.250  0.1073 -0.1042 -0.2567
32057W        W48531   3.794   5.202   4.809 -0.0220 -0.0097 -0.1715
32058W        W48532  11.556  13.831   4.828  0.0565 -0.0681  0.2630
32059W        W48533   9.884  16.357   2.461 -0.1046  0.0310  0.0824
32060W        W48534   4.008   1.518  14.882  0.1710 -0.4727 -0.0840
32061W        W48535  15.459  10.236   3.713  0.1222 -0.2762  0.3374
32062W        W48536   6.094  12.438  16.695 -0.3854  0.1915 -0.0522
32063W        W48537  10.001   5.774  12.539  0.4967 -0.0408 -0.1474
32064W        W48538   1.726   8.902  15.841 -0.1663  0.1270  0.0006
32065W        W48539   0.793   4.150  13.980 -0.0710  0.0946  0.3615
32066W        W48540  13.428   1.913   0.361  0.1090 -0.0179 -0.1556
32067W        W48541   6.029   9.013   5.197 -0.1584  0.2225  0.0933
32068W        W48542   0.073   0.024  14.039  0.3122 -0.0585 -0.0045
32069W        W48543   1.778  16.283   0.647 -0.1947  0.0114  0.3429
32070W        W48544  14.561   9.339  16.396 -0.0079 -0.0876 -0.0961
32071W        W48545   7.039  11.353  13.320 -0.0025  0.1480 -0.1012
32072W        W48546   1.428   2.933   6.460  0.0820 -0.2833 -0.0866
32073W        W48547  10.344   7.532   1.737 -0.0878  0.4519 -0.1318
32074W        W48548   3.362   9.835  15.311  0.0695 -0.1542  0.2164
32075W        W48549   5.716  15.760   2.811  0.0059 -0.0438 -0.0580
32076W        W48550  14.461  13.102  12.753 -0.2199 -0.0132  0.0896
32077W        W48551   2.161   7.178   0.568 -0.1501  0.0920 -0.0725
32078W        W48552  11.367   4.581  14.150  0.0886 -0.1289  0.0468
32079W        W48553   4.039   0.503  14.217 -0.0258  0.1679 -0.1467
32080W        W48554  14.778   3.720   0.168  0.0453  0.4951 -0.1814
32081W        W48555  10.079   3.190   5.327  0.2034  0.1871 -0.1640
32082W        W48556   7.503   8.203   4.510  0.1266 -0.2184  0.2652
32083W        W48557   2.186   7.161   5.377 -0.0248 -0.0953 -0.1175
32084W        W48558   7.206   8.446   3.568 -0.4741 -0.0919  0.0375
32085W        W48559  12.008  17.015   4.297 -0.0017  0.2662 -0.1863
32086W        W48560  17.209   5.207   3.680  0.0558  0.2309  0.0848
32087W        W48561   8.169   0.607   3.247 -0.1686 -0.2138 -0.3368
32088W        W48562  11.148  14.572  15.267  0.0773 -0.1475 -0.4684
32089W        W48563   1.243   3.825   4.374 -0.2152  0.0295  0.1276
32090W        W48564  14.861  12.964   2.434 -0.0098 -0.0450  0.2389
32091W        W48565   4.518  11.050  10.816 -0.2079  0.0804 -0.1157
32092W        W48566   2.611   0.341   0.254  0.1282 -0.0763  0.0771
32093W        W48567   6.975  13.490  13.308  0.1356 -0.0000 -0.1019
32094W        W48568  12.583  15.137   3.640  0.2703  0.1408  0.3070
32095W        W48569   4.445   0.437   4.469 -0.0990  0.2568 -0.0067
32096W        W48570   2.897  17.409   3.536  0.0434 -0.3823 -0.0203
32097W        W48571   8.090   5.476   0.609 -0.0061  0.4064 -0.2020
32098W        W48572   5.353   3.251   6.068  0.0824  0.0108  0.2958
32099W        W48573  11.933   5.085  12.649 -0.0053  0.1783  0.1211
32100W        W48574   9.104   7.473  15.295 -0.0936 -0.0906  0.2460
32101W        W48575   4.827   2.724  16.072 -0.0257 -0.0668  0.2427
32102W        W48576   4.062   9.579   2.838  0.0601  0.0388 -0.0454
32103W        W48577  12.947  13.492  16.840 -0.0786  0.0002  0.0853
32104W        W48578   3.729  10.569  15.928 -0.1040  0.0258  0.1482
32105W        W48579  10.700  16.249   2.022 -0.3131 -0.0245  0.0319
32106W        W48580  11.067  16.797  15.522  0.0596  0.2076  0.3399
32107W        W48581   3.158   4.708  16.403 -0.2896 -0.2168 -0.0593
32108W        W48582   1.989   1.297   2.636  0.0637 -0.0822 -0.0213
32109W        W48583  11.655   9.265   3.739  0.1739 -0.0700 -0.0626
32110W        W48584   0.688   0.207  10.831 -0.2485  0.1034  0.1527
32111W        W48585  16.398   1.093   4.709  0.1022 -0.2358  0.0238
32112W        W48586   8.029  15.808  16.205  0.1403 -0.2626  0.0685
32113W        W48587   6.068   5.607  11.494  0.0465  0.1034 -0.1964
32114W        W48588  17.411  10.196  12.552  0.1931 -0.3315  0.4353
32115W        W48589  16.489  13.974   3.577 -0.3771  0.1183 -0.3019
32116W        W48590  11.570   3.616   5.137  0.1013 -0.1172 -0.0013
32117W        W48591  15.241  14.898  13.564 -0.4077  0.4310 -0.0701
32118W        W48592   9.231  10.617   1.252 -0.3460  0.0740 -0.1899
32119W        W48593   6.633   1.676  13.825 -0.0922 -0.0182  0.0571
32120W        W48594  11.143  13.175   4.533 -0.1364 -0.1908  0.4063
32121W        W48595  10.101   4.766   2.249  0.2261  0.4253 -0.2151
32122W        W48596   7.435   8.329  15.807 -0.1758 -0.4611  0.1922
32123W        W48597  13.659  15.447   5.531 -0.2785  0.0083 -0.5089
32124W        W48598  13.889  13.563  11.421  0.2302  0.0114  0.0427
32125W        W48599  17.719  15.575  14.650  0.0007 -0.3708 -0.3296
32126W        W48600  16.106  10.647   2.389  0.1195  0.0515 -0.0855
32127W        W48601  15.015  12.212   1.607  0.1226  0.0673  0.2941
32128W        W48602  17.217  10.783  15.905 -0.0238  0.3416  0.0680
32129W        W48603  12.840  13.473   1.325 -0.0445 -0.2606  0.2403
32130W        W48604   9.417  13.613   1.677  0.0323 -0.0375 -0.1456
32131W        W48605   3.696   4.671  11.416 -0.1022  0.1413  0.0967
32132W        W48606   8.041   5.009  15.052  0.1465 -0.0397 -0.1801
32133W        W48607  14.168  17.148   0.326  0.1163 -0.1893 -0.2032
32134W        W48608  16.380  16.568   0.546 -0.2253  0.1431 -0.0927
32135W        W48609  10.868  16.806   2.488  0.0455 -0.2465  0.1315
32136W        W48610  12.012  15.417  15.840 -0.2249  0.0385  0.1377
32137W        W48611   0.255  11.006   5.369  0.0382 -0.0519 -0.4972
32138W        W48612  15.565   3.491  12.438  0.2620 -0.1092 -0.1224
32139W        W48613   8.310   6.836  16.044  0.0450 -0.0330  0.1435
32140W        W48614  17.711  11.905   5.006 -0.2056 -0.1102 -0.0520
32141W        W48615  14.779   6.448  14.227 -0.3866  0.1787 -0.0897
32142W        W48616  13.367  13.800   1.444 -0.0427  0.1282  0.2458
32143W        W48617  13.645   8.754  15.894 -0.2716  0.2066 -0.0949
32144W        W48618   6.972   7.249   1.356  0.1700 -0.1271  0.1012
32145W        W48619   3.811   9.432   4.878  0.0210 -0.0984  0.1914
32146W        W48620   3.581   9.848   4.654 -0.0475 -0.1290 -0.1009
32147W        W48621   3.246  13.778   2.826 -0.1114 -0.2898  0.0438
32148W        W48622  13.915  15.023  14.486  0.2748  0.1993 -0.0079
32149W        W48623   0.294  15.935  11.735  0.0931  0.2818 -0.0309
32150W        W48624  14.206  11.168  15.029  0.1870  0.0890  0.1609
32151W        W48625  12.272   6.100   3.453 -0.2948 -0.1699 -0.1973
32152W        W48626  15.138   7.224  14.226  0.1199  0.0095  0.1585
32153W        W48627  10.183  12.569  13.419 -0.0086  0.0760  0.2623
32154W        W48628   3.889   8.243   3.287  0.0582  0.1005 -0.2525
32155W        W48629  12.230   4.227   3.420 -0.1607 -0.0757  0.0883
32156W        W48630   4.148  17.198   1.738 -0.1798 -0.1434  0.1079
32157W        W48631  12.276   0.521   2.255 -0.1374 -0.0124  0.2201
32158W        W48632   5.465   5.158   0.508 -0.2335  0.0657 -0.3475
32159W        W48633   9.424  12.231  14.114 -0.2373 -0.4184  0.0316
32160W        W48634   6.660  10.574   3.181 -0.1450  0.1489 -0.0012
32161W        W48635  17.380  14.487  14.790  0.3872  0.2487 -0.2170
32162W        W48636   0.413   9.325   0.827  0.0368 -0.2138 -0.2074
32163W        W48637  11.332   4.556   5.179  0.3204  0.1001  0.2357
32164W        W48638   3.407  12.662   4.850 -0.2208 -0.3450 -0.0907
32165W        W48639  15.679   9.758  15.542  0.1273  0.2571 -0.0664
32166W        W48640   9.567   0.395  13.322 -0.0377 -0.1736  0.0084
32167W        W48641   4.549   2.229  15.797  0.2986 -0.0223 -0.1010
32168W        W48642   9.164  11.947  12.302  0.0872  0.2537  0.0854
32169W        W48643   8.902  11.142   0.598  0.0374 -0.0103 -0.1235
32170W        W48644   7.786   6.163   0.067 -0.5007 -0.1979  0.0849
32171W        W48645  15.187   5.275   0.438 -0.1923 -0.2616 -0.0640
32172W        W48646   3.605  10.010   3.835  0.2646  0.3333  0.4212
32173W        W48647   6.237   3.591  12.256  0.0209  0.2064 -0.1256
32174W        W48648   4.222   5.526   1.465 -0.1711  0.1631 -0.0418
32175W        W48649  17.705  10.238  16.453  0.2256 -0.2071  0.0360
32176W        W48650  11.875  15.002  14.972  0.2203 -0.1617  0.2401
32177W        W48651   3.759   4.347   3.265 -0.1827 -0.1226 -0.1275
32178W        W48652   6.155   2.455  16.120 -0.0315 -0.3112  0.0402
32179W        W48653   9.377  14.352   3.340 -0.3984 -0.1677 -0.0783
32180W        W48654   5.219  11.319  15.567 -0.2191 -0.2769  0.0949
32181W        W48655  12.383  17.560   4.825  0.1248  0.0471 -0.1024
32182W        W48656   7.222  11.535   4.831  0.1670  0.0188 -0.1052
32183W        W48657   4.202   4.059   3.267 -0.2082  0.0263 -0.0472
32184W        W48658  16.569   5.074   0.730  0.1032 -0.1196  0.0311
32185W        W48659   4.453   8.362   0.457  0.0838  0.0674  0.1051
32186W        W48660   0.992  10.284  10.965  0.1087 -0.2598 -0.1609
32187W        W48661   3.361  11.073   5.231 -0.1144  0.0361  0.1781
32188W        W48662   0.416   3.875   3.623 -0.1358  0.0094 -0.1050
32189W        W48663  13.498  11.532  13.004  0.0165 -0.3321 -0.1876
32190W        W48664  15.675  12.345  14.039  0.3023  0.3485 -0.2563
32191W        W48665   7.114   3.673   3.152  0.1694  0.2039  0.0975
32192W        W48666  12.466   2.245   1.946  0.2969  0.0664  0.3155
32193W        W48667   1.130   4.891   5.486  0.1304 -0.1887  0.1712
32194W        W48668   5.156   0.084  13.583  0.1372  0.1354  0.0202
32195W        W48669  15.607  11.603   3.735 -0.1039 -0.1872  0.0505
32196W        W48670  11.855   6.969  16.173 -0.1524 -0.4840 -0.0816
32197W        W48671  11.726  14.842   2.365 -0.1957 -0.1488  0.3435
32198W        W48672   4.860  10.128   6.217 -0.2919 -0.1658  0.1615
32199W        W48673   6.579   2.344  16.395 -0.1774  0.0389 -0.2311
32200W        W48674  15.247   7.125  12.160 -0.1149 -0.0226  0.2190
32201W        W48675  16.576   9.160  14.835 -0.1912  0.1979  0.2916
32202W        W48676   8.394   5.038   0.420  0.1106 -0.1527 -0.0021
32203W        W48677   3.681  12.341  15.843  0.2457 -0.1024 -0.0326
32204W        W48678  17.518   9.332   1.419  0.3219  0.1469  0.1377
32205W        W48679   0.193   5.224  12.664  0.1727 -0.1413  0.1916
32206W        W48680   4.336   6.674   2.992  0.2525 -0.0149  0.0200
32207W        W48681   3.654  13.850   0.455 -0.0308  0.0510  0.4460
32208W        W48682  16.284   9.127   4.202  0.1523 -0.1186 -0.1673
32209W        W48683  12.504   7.720  12.345 -0.0269 -0.0459  0.0429
32210W        W48684   8.739  16.642  13.387 -0.1738 -0.1473  0.0386
32211W        W48685  15.327   8.207   2.528  0.0926  0.0537 -0.0833
32212W        W48686  14.851  10.988   3.338  0.0749  0.3216 -0.2682
32213W        W48687  16.315  15.357  15.801 -0.0023 -0.0236 -0.3870
32214W        W48688   6.754   6.395   6.346 -0.0507  0.1257 -0.0396
32215W        W48689   7.367   5.459  12.214  0.1792  0.3025  0.2321
32216W        W48690  12.959  16.567  13.536  0.0575  0.0792 -0.0558
32217W        W48691   1.755   9.988   1.603  0.0150 -0.0686 -0.1981
32218W        W48692   1.000   8.740  14.927  0.0576  0.0547  0.0181
32219W        W48693   9.105  11.931  16.914  0.0673 -0.0109 -0.0531
32220W        W48694   8.607   1.733   4.691  0.1619  0.0120  0.1194
32221W        W48695  15.329   3.576   4.425 -0.0019  0.0583 -0.0908
32222W        W48696  10.937   1.659   2.708 -0.0089  0.3148  0.2705
32223W        W48697   9.027  17.319  16.815 -0.0265  0.2693  0.1155
32224W        W48698   4.686   5.559   4.424 -0.0905  0.0459  0.1569
32225W        W48699  13.370   5.600  14.972  0.2534 -0.2400  0.2066
32226W        W48700  12.956   5.286  15.090 -0.4298  0.3880 -0.4207
32227W        W48701  13.141  15.658  14.233  0.1890  0.0460  0.1083
32228W        W48702   8.662  10.520   4.431 -0.0710 -0.1137 -0.4074
32229W        W48703  13.276  14.184   6.099 -0.0717 -0.0678  0.2252
32230W        W48704   8.977  12.958   3.409 -0.0229  0.2765 -0.0528
32231W        W48705  16.213  17.260   2.513  0.0232 -0.1036 -0.0734
32232W        W48706  12.898  17.255  13.478 -0.1989 -0.0399  0.0214
32233W        W48707  14.663  16.672  13.696  0.0194 -0.1568 -0.1754
32234W        W48708   5.020  12.875  14.020  0.1118 -0.0995  0.0051
32235W        W48709   2.130   7.370  11.743 -0.0696 -0.2041  0.0909
32236W        W48710  12.926   8.650  13.149  0.1126 -0.1824 -0.1899
32237W        W48711   2.084   2.643  16.316 -0.0063 -0.4839 -0.2128
32238W        W48712  14.136  13.426  14.916  0.1393  0.0451  0.1139
32239W        W48713  15.684  12.667   4.603  0.1756 -0.1272 -0.0178
32240W        W48714   5.004   1.256  16.730 -0.0838 -0.0963 -0.0685
32241W        W48715   4.765   0.860   6.660 -0.0738 -0.0971 -0.2245
32242W        W48716   5.623   0.565  15.213 -0.2004  0.0167  0.0466
32243W        W48717  13.284   9.326   3.513  0.0886  0.1732 -0.1663
32244W        W48718  13.058   3.814  12.493 -0.0168 -0.2421 -0.2035
32245W        W48719   3.614   8.740  11.777 -0.0706  0.3495  0.2635
32246W        W48720   9.739   3.249   6.075  0.0401  0.0267 -0.2626
32247W        W48721  14.194  17.065  13.244  0.2709  0.0962  0.0845
32248W        W48722   0.949  13.374  15.296 -0.2240  0.3342 -0.0098
32249W        W48723  15.875  11.897   1.524 -0.0707  0.1303 -0.0221
32250W        W48724  14.825   2.494  15.630 -0.1879 -0.1294  0.0770
32251W        W48725  17.587  14.839   1.160  0.2698  0.1718  0.0753
32252W        W48726   9.337   8.099  13.989 -0.0035  0.1147  0.0652
32253W        W48727  13.870  13.745   4.830 -0.0225  0.0206 -0.1078
32254W        W48728   2.239  15.009   1.951  0.2436  0.0096 -0.0914
32255W        W48729   4.189  13.203   0.566  0.0066 -0.1424 -0.1008
32256W        W48730   6.198   1.697   4.072  0.1826  0.1095  0.2450
32257W        W48731   4.951  11.921   4.707 -0.2693 -0.2470  0.2046
32258W        W48732  13.582  11.172  16.685 -0.0731 -0.0482 -0.1169
32259W        W48733  13.052  13.014   2.027  0.2495 -0.1383  0.1100
32260W        W48734   1.989   2.920   5.794  0.1081  0.2926  0.0613
32261W        W48735   4.340   9.687  15.913  0.0312  0.0606 -0.3679
32262W        W48736   9.060  10.279   3.206  0.1931 -0.0206 -0.1446
32263W        W48737  14.780   4.579  12.430  0.0950  0.3443 -0.0113
32264W        W48738  15.885  14.187   3.019 -0.0733 -0.0580  0.0019
32265W        W48739   4.585  13.673   4.470  0.0280 -0.0228 -0.0363
32266W        W48740  17.011  12.297   0.900 -0.2328 -0.0737 -0.0919
32267W        W48741   6.061  15.929  16.399  0.1114  0.2017 -0.2146
32268W        W48742   1.872  16.934  14.687  0.0610 -0.2864 -0.0818
32269W        W48743   9.371  17.417  11.781 -0.2122 -0.1536  0.4940
32270W        W48744   9.732  17.250  15.016  0.0181  0.2074  0.0252
32271W        W48745  11.405  15.159  14.508 -0.1194 -0.0405 -0.0564
32272W        W48746  11.093   5.212  14.926 -0.0484  0.1473 -0.3602
32273W        W48747   6.832   4.143   0.786  0.1399  0.1220 -0.2650
32274W        W48748  13.185  17.742   3.334 -0.1037  0.0357 -0.1840
32275W        W48749  11.835   9.697   2.170 -0.2957 -0.1659  0.0774
32276W        W48750  11.873  15.644  16.849  0.2110  0.0125  0.2100
32277W        W48751   5.172  13.926  13.023 -0.0755 -0.1624 -0.0899
32278W        W48752  17.674   9.773   2.666  0.1824 -0.1520 -0.0430
32279W        W48753   4.049   3.536   2.912 -0.0909 -0.2335  0.2142
32280W        W48754   6.384  12.273  11.686  0.1868  0.1759 -0.0872
32281W        W48755  16.564  12.342  13.561 -0.0084  0.0141  0.1062
32282W        W48756   9.970   5.865  11.515  0.0983 -0.0660  0.0706
32283W        W48757   5.194  13.939   2.963  0.2366  0.0847  0.1231
32284W        W48758   2.397  15.469   0.396  0.3557  0.3278  0.0289
32285W        W48759  13.052  14.857  16.397 -0.1387 -0.0700 -0.2682
32286W        W48760  15.752   7.947  16.917  0.1778  0.0074  0.1669
32287W        W48761   1.444   7.122  12.870  0.1876  0.0178  0.1248
32288W        W48762  16.097   5.438   0.854  0.3707  0.1176  0.0765
32289W        W48763   7.984   9.538  16.386 -0.1146 -0.0698 -0.2155
32290W        W48764   6.881   6.709  14.753 -0.0841 -0.0863 -0.1679
32291W        W48765   6.965   2.097   0.123  0.3561 -0.2003 -0.0901
32292W        W48766  14.866   6.820   0.439  0.2740  0.1683 -0.1249
32293W        W48767  16.512   6.568  12.211 -0.1083  0.3330  0.0645
32294W        W48768  17.472  13.465  11.684 -0.3865  0.3360  0.0230
32295W        W48769   1.289   5.394   5.554  0.1081 -0.0075  0.0894
32296W        W48770   1.579   3.091   5.506 -0.1148  0.0465  0.0580
32297W        W48771  13.464   6.211   5.740  0.3211  0.1364  0.1153
32298W        W48772  12.005  12.744  13.631 -0.1575  0.3125 -0.1311
32299W        W48773  12.095  13.575  16.317  0.0565  0.5090 -0.0311
32300W        W48774  17.714   1.474   3.985 -0.0483 -0.3275 -0.3334
32301W        W48775   3.033  15.892   4.289  0.2849 -0.2324  0.0933
32302W        W48776  16.872  16.985  16.656  0.0344 -0.0672  0.2855
32303W        W48777   5.346   4.981   3.299 -0.0990 -0.2420  0.0300
32304W        W48778  13.687  16.718  13.543  0.1797 -0.1690 -0.1158
32305W        W48779   2.080   9.510  15.069 -0.0784  0.1881  0.1187
32306W        W48780   5.702   5.573  12.647 -0.0172  0.0045 -0.2385
32307W        W48781   5.947  12.884   2.383 -0.0728  0.2298 -0.0004
32308W        W48782   6.911   1.592  13.124 -0.0521  0.0101  0.0206
32309W        W48783   8.575   3.521   0.782 -0.0854  0.1510 -0.1479
32310W        W48784  10.090   3.060   2.405 -0.0938  0.1009  0.3051
32311W        W48785   9.082   1.976  16.855 -0.1616 -0.0143 -0.3152
32312W        W48786  10.552   7.678  14.106 -0.0065  0.3026  0.0072
32313W        W48787  16.267   9.757   5.664  0.1237 -0.0837  0.2638
32314W        W48788   2.032   2.826   1.235  0.1960  0.1658 -0.1649
32315W        W48789   7.290   2.315  15.227  0.0199  0.0870  0.1005
32316W        W48790   0.383   0.213  16.464  0.1007  0.2833 -0.0680
32317W        W48791   5.238  12.289   1.763  0.0044  0.0248 -0.0831
32318W        W48792  11.806   1.525   1.626  0.0176  0.0517  0.1336
32319W        W48793  11.119   1.176  15.007 -0.0700 -0.0868  0.0156
32320W        W48794   4.153   8.027   5.188  0.1252  0.1323  0.3681
32321W        W48795  14.586  11.975  12.809  0.0456  0.0794  0.0322
32322W        W48796   5.962   0.598   1.644  0.2056 -0.0204  0.0978
32323W        W48797   3.891  12.064   0.658  0.2043  0.0163 -0.0236
32324W        W48798   4.263  10.842   4.913  0.0559 -0.0844  0.0573
32325W        W48799  10.400  17.026   0.162 -0.1624 -0.2119  0.1181
32326ION     NA48800  10.643  11.536  10.912  0.0100  0.1424 -0.0325
32327ION     NA48801  16.942   1.566   6.571 -0.1158 -0.0599 -0.1630
32328ION     NA48802   2.525  15.085  13.096  0.1275  0.0639  0.0843
32329ION     NA48803   5.809  16.774  10.828 -0.1093 -0.2033  0.0034
32330ION     NA48804  17.116   3.887   0.218  0.0082 -0.0506  0.0178
32331ION     NA48805  14.249  10.528  10.855 -0.0009  0.1931 -0.1612
32332ION     NA48806   5.112  16.185  11.273  0.0093  0.0715  0.0374
32333ION     NA48807  13.201  14.033  10.788  0.2676  0.1527  0.2694
32334ION     NA48808   6.715   2.300  10.704 -0.3047 -0.1286 -0.0668
32335ION     NA48809  10.152  11.289   2.060  0.0627 -0.0243  0.0288
32336ION     NA48810   1.865   6.879  10.612  0.1035  0.0943  0.0240
32337ION     NA48811  13.178   1.120  10.902 -0.1846 -0.0110 -0.0291
32338ION     NA48812   3.021  13.196  10.277 -0.2099  0.0705  0.0671
32339ION     NA48813   3.077   9.365   5.028  0.1947 -0.0943  0.1410
32340ION     NA48814   9.273  10.762   5.922 -0.1319 -0.2296  0.1336
32341ION     NA48815  17.701  11.827  10.306 -0.2305 -0.0700 -0.1396
32342ION     NA48816   1.916   0.214   2.972 -0.1844 -0.1098 -0.0795
32343ION     NA48817   7.638  16.369  14.655  0.1229 -0.5741 -0.0045
32344ION     NA48818  12.244   5.906  10.893 -0.0925 -0.2092 -0.2155
32345ION     NA48819   5.682   5.803  10.760 -0.1317  0.0550  0.0135
32346ION     NA48820  10.139   3.914  14.727  0.0673  0.0608  0.2068
32347ION     NA48821  13.732   7.695   5.952  0.0921 -0.0265 -0.0045
32348ION     NA48822  11.255  13.137  10.743  0.0959 -0.2769  0.1776
32349ION     NA48823   6.436  13.875  10.751  0.2198 -0.1900 -0.3404
32350ION     NA48824   8.793  14.402  12.722 -0.1734  0.1369 -0.0075
32351ION     NA48825   5.180  17.325  11.175 -0.2095  0.0322  0.0047
32352ION     NA48826  15.393  10.685   6.096 -0.0870  0.1126 -0.3277
32353ION     NA48827  16.255  14.613   5.940 -0.0311 -0.2193 -0.0917
32354ION     NA48828   0.626  13.161   5.817  0.3453 -0.3574  0.1090
32355ION     NA48829  12.185   6.857  11.046 -0.1187 -0.1888 -0.0161
32356ION     NA48830   7.952  14.762  10.712  0.0528  0.2873 -0.0694
32357ION     NA48831  12.851   6.403  11.124  0.2475  0.0591 -0.1974
32358ION     NA48832   6.050   3.146  11.888  0.3291  0.1139 -0.1508
32359ION     NA48833  15.060   6.197   4.097  0.0515  0.2560  0.0442
32360ION     NA48834   4.224  15.600  10.847 -0.1621  0.2739 -0.1344
32361ION     NA48835  13.689  17.552   6.142 -0.0137  0.2256  0.0989
32362ION     NA48836   5.222  13.306  16.217  0.1095 -0.0732  0.1624
32363ION     NA48837   1.990  16.196  10.615 -0.1987 -0.0507  0.0225
32364ION     NA48838   6.758   0.134  11.285  0.2682 -0.0951 -0.0833
32365ION     NA48839   9.977  12.278  10.718 -0.0692 -0.0077  0.0256
32366ION     NA48840   2.439   0.919  10.899 -0.2052 -0.0904 -0.1796
32367ION     NA48841   9.865  13.487  11.464 -0.0130  0.0566 -0.0329
32368ION     NA48842  17.288   4.654  10.961  0.0920 -0.3400  0.0599
32369ION     NA48843  14.137  15.416  11.887 -0.0123 -0.1850 -0.2845
32370ION     NA48844   1.388  17.119   6.353  0.3472  0.0758  0.0932
32371ION     NA48845  15.997   9.928   0.393  0.0134  0.0351  0.1912
32372ION     NA48846  13.160  11.431  13.430  0.2559  0.1567 -0.0465
32373ION     NA48847   5.341  13.037   5.589 -0.1353 -0.0993 -0.0890
32374ION     NA48848  12.292   2.519   6.072  0.0108 -0.1298 -0.0742
32375ION     NA48849   8.896   5.022  10.969 -0.0210 -0.1838 -0.2006
32376ION     NA48850  17.222   5.413   1.621 -0.1194 -0.0136  0.0269
32377ION     NA48851   0.117  17.541  11.355  0.1776 -0.3715  0.2847
32378ION     NA48852   5.775  15.274  10.737 -0.0304  0.0789 -0.1827
32379ION     NA48853  14.147   3.967  16.530  0.2611  0.1284  0.0265
32380ION     NA48854  10.176   3.195  12.386 -0.0091  0.1940  0.1311
32381ION     NA48855   3.836   6.825   5.895 -0.1514  0.0505  0.3505
32382ION     NA48856   5.257   1.800  11.095 -0.1454 -0.1396  0.2044
32383ION     NA48857   1.226   9.580  10.332 -0.3006 -0.1780 -0.2383
32384ION     NA48858  17.419  16.799  16.034 -0.1035  0.0932 -0.1830
32385ION     NA48859  14.144  13.494   3.492 -0.0164  0.0608  0.0902
32386ION     NA48860   2.717   9.657   0.050 -0.0753  0.3178  0.1728
32387ION     NA48861   2.984   8.985  10.518 -0.1080  0.0436  0.1379
32388ION     NA48862   4.106  13.811  10.835 -0.0076 -0.1243 -0.3771
32389ION     NA48863   8.712   3.315   6.330  0.1437 -0.1763 -0.1363
32390ION     NA48864  12.381   1.103   1.040  0.2777 -0.0848 -0.0930
32391ION     NA48865  10.291  13.270  10.612 -0.0708 -0.1733  0.0239
32392ION     NA48866   6.480  16.109  10.588  0.2731  0.2726  0.1682
32393ION     NA48867  12.063  17.746  10.706  0.0363 -0.0476 -0.0742
32394ION     NA48868   7.319  17.285  10.628 -0.0667 -0.0385  0.0474
32395ION     NA48869  10.125  14.225   5.910 -0.2207  0.0224  0.0980
32396ION     NA48870   0.407  13.447   2.632 -0.0820 -0.1810 -0.0118
32397ION     NA48871   6.173   3.003  11.015 -0.0816  0.1084 -0.2991
32398ION     NA48872  10.460   5.925  10.803 -0.0379 -0.3932 -0.1240
32399ION     NA48873   6.731   6.122  16.781 -0.0886 -0.1250  0.0228
32400ION     NA48874  17.127  17.468  10.868  0.1156  0.0068  0.1153
32401ION     NA48875  13.982   5.835  11.536  0.2744  0.2314  0.2683
32402ION     NA48876   6.620  16.899  10.541  0.2761  0.2213 -0.0518
32403ION     NA48877  17.401   6.336  10.986  0.1436 -0.2438 -0.0615
32404ION     NA48878  14.485   0.907   2.341  0.0546  0.4043  0.1041
32405ION     NA48879   1.764   8.755   2.020 -0.2038  0.1497  0.0121
32406ION     NA48880  12.992   6.531   4.044  0.1204 -0.0296 -0.1195
32407ION     NA48881  14.443   2.466   5.134  0.3244  0.0086  0.0068
32408ION     NA48882  14.393   0.937   6.482 -0.4528  0.0912 -0.1983
32409ION     NA48883   8.933   4.499   5.832 -0.1328  0.0112  0.5014
32410ION     NA48884   8.118   6.473   6.009 -0.0283 -0.1328  0.0115
32411ION     NA48885   9.165  12.026   3.931  0.2194  0.3074 -0.2157
32412ION     NA48886  10.202  10.750  10.767  0.1995  0.1011  0.0090
32413ION     NA48887   4.261  17.277  10.950 -0.3994  0.0230  0.2163
32414ION     NA48888   3.637   6.086  12.770  0.0118 -0.0394 -0.1104
32415ION     NA48889   8.386  17.464  10.600 -0.1649  0.1634 -0.1720
32416ION     NA48890  17.086   7.051   3.550 -0.4372  0.3053 -0.3527
32417ION     NA48891   9.646   4.623  11.040  0.0221  0.0998  0.2508
32418ION     NA48892   1.801   4.452  10.864 -0.0881 -0.1907  0.0509
32419ION     NA48893   2.646   3.801  11.048  0.2715  0.2709 -0.0222
32420ION     NA48894  14.837   1.987  11.307  0.0283  0.0088 -0.2977
32421ION     NA48895   3.512   1.034  11.186  0.2231  0.1575 -0.0995
32422ION     NA48896  12.285   7.741  15.188 -0.1389  0.0168  0.0896
32423ION     NA48897   3.779  14.646   5.516  0.1866 -0.0544  0.0933
32424ION     NA48898   9.074  12.092  10.815  0.1829  0.0437 -0.2448
32425ION     NA48899  14.211   3.598   5.830  0.2105  0.1246  0.0974
32426ION     NA48900   9.353   8.322   1.323  0.1423  0.0346 -0.3849
32427ION     NA48901  17.367   8.690  10.840 -0.2818 -0.0483  0.0604
32428ION     NA48902   2.621  15.651  10.786 -0.1039 -0.0980 -0.0572
32429ION     NA48903  17.506   9.796  10.686 -0.0149 -0.1239 -0.0311
32430ION     NA48904   0.234  13.305  10.406 -0.0449 -0.0070  0.1067
32431ION     NA48905  12.983  11.766  11.187 -0.3110 -0.0571  0.1144
32432ION     NA48906  16.306   7.316  12.991 -0.0264  0.1234  0.2222
32433ION     NA48907   6.926   0.361  14.942 -0.0705 -0.1729  0.0722
32434ION     NA48908   1.348   9.074  10.457 -0.0816 -0.0656 -0.1972
32435ION     NA48909  15.939   2.926  11.116  0.0316  0.0639  0.1070
32436ION     NA48910  13.253   4.606   6.386 -0.2852 -0.1142  0.3517
32437ION     NA48911   1.403  11.767  10.137 -0.0606  0.1452  0.3990
32438ION     NA48912  17.228  15.438  10.616 -0.0484  0.3283 -0.0108
32439ION     NA48913   9.876   1.923   6.198 -0.0259 -0.3539  0.1222
32440ION     NA48914  14.088   1.498  11.218 -0.0260  0.0795  0.2828
32441ION     NA48915   4.816  11.921  12.604  0.2266  0.1861 -0.1104
32442ION     NA48916  15.394   2.133   6.067  0.0002 -0.1229 -0.0990
32443ION     NA48917  10.790   7.693  11.040 -0.2747  0.0985  0.0243
32444ION     NA48918   3.222   3.252  16.875  0.0904  0.1081  0.0391
32445ION     NA48919   5.993  11.365  10.762  0.1266  0.3712 -0.1508
32446ION     NA48920   0.710  17.368   4.715  0.3282 -0.1883  0.1645
32447ION     NA48921  15.425  15.024  10.759  0.0866  0.0252 -0.0612
32448ION     NA48922  14.275   5.105  10.970 -0.0061 -0.2586 -0.1408
32449ION     NA48923   3.857   7.713   5.911 -0.1464 -0.1858 -0.2830
32450ION     NA48924   7.269  15.810   5.728  0.2916  0.0509  0.0842
32451ION     NA48925  15.565  17.318  10.892 -0.0450 -0.0206  0.0701
32452ION     NA48926  12.718  12.203  11.080 -0.3786 -0.0802 -0.1696
32453ION     NA48927   7.887   5.090  11.023  0.0350  0.1023 -0.1036
32454ION     NA48928  15.937   4.501  11.118 -0.0779  0.1582  0.1691
32455ION     NA48929  16.663  13.202  10.602 -0.0561  0.0229 -0.0473
32456ION     NA48930   5.757   1.390  10.797  0.0480 -0.0099 -0.0362
32457ION     NA48931  10.552   8.454   5.986  0.1023  0.2538  0.1176
32458ION     NA48932   7.290  14.198  16.802 -0.1533  0.2240  0.3773
32459ION     NA48933   4.085  17.516  13.048 -0.0642  0.0251 -0.0417
32460ION     NA48934  12.387  14.310  10.647  0.0623  0.0359  0.0739
32461ION     NA48935   5.616   2.386  12.342  0.1688 -0.3715 -0.0904
32462ION     NA48936  11.967   5.102  10.965  0.0193 -0.0967 -0.0863
32463ION     NA48937   5.481  12.861  13.051 -0.0184  0.1944 -0.3055
32464ION     NA48938  16.276   0.001  11.028 -0.4005  0.1203  0.0397
32465ION     NA48939   1.485  15.451   2.449 -0.0888 -0.0338 -0.1439
32466ION     NA48940   2.928   0.622   3.578  0.3286  0.0837 -0.0117
32467ION     NA48941   3.449  15.235  11.885  0.3601 -0.1958 -0.2316
32468ION     NA48942  16.499   4.797  11.185 -0.1717  0.0860  0.0670
32469ION     NA48943  16.102  11.466  10.829  0.1583 -0.2929 -0.0713
32470ION     NA48944  15.756  11.140  10.579  0.2681 -0.0051  0.1220
32471ION     NA48945   0.073  15.486   6.092  0.3965  0.1245 -0.1953
32472ION     NA48946   4.504  17.157   6.334 -0.1625  0.2413  0.1409
32473ION     NA48947  16.304   6.706   4.999  0.0209 -0.0724  0.0979
32474ION     NA48948  14.315  12.932  10.845  0.0083 -0.1120 -0.1020
32475ION     NA48949  12.354   8.580  10.904  0.1126 -0.1749 -0.1102
32476ION     NA48950  11.119   1.853  11.016 -0.1250  0.0269  0.0582
32477ION     NA48951   6.317   8.311   6.212  0.0607 -0.3204 -0.3666
32478ION     NA48952   0.565  11.275  10.236  0.3578  0.0230  0.1855
32479ION     NA48953   2.563   5.752  10.867 -0.0068 -0.0770  0.1194
32480ION     NA48954   6.445   7.076   5.875  0.0966 -0.0719 -0.2735
32481ION     NA48955   5.876   3.953  10.793 -0.1513  0.3298  0.0302
32482ION     NA48956  10.118  15.628  10.642  0.4828 -0.1033  0.1330
32483ION     NA48957   5.181  12.795  15.255 -0.1528  0.0147 -0.0640
32484ION     NA48958   6.931   4.054  14.561 -0.1540  0.1155  0.1851
32485ION     NA48959  15.449  12.061  10.793  0.0733 -0.0301  0.1302
32486ION     NA48960  15.128   3.060   1.222  0.0900  0.0770 -0.3397
32487ION     NA48961   6.596   1.288  10.585  0.0784 -0.1094 -0.1293
32488ION     NA48962   4.657   4.460  11.409 -0.1195 -0.1400 -0.1635
32489ION     NA48963   3.319   2.966  11.623  0.0594 -0.1727 -0.0926
32490ION     NA48964   8.293   0.862  10.562 -0.1985  0.1333 -0.0162
32491ION     NA48965   0.162   4.034  12.940 -0.0808  0.0291  0.0612
32492ION     NA48966   0.284   4.394  10.895 -0.0656  0.1698 -0.2193
32493ION     NA48967   3.361  10.082  10.126  0.1173  0.0436 -0.0312
32494ION     NA48968  17.486   0.508  10.847  0.0194  0.0629  0.2814
32495ION     NA48969   8.316   8.196   5.912  0.1000 -0.0550 -0.2894
32496ION     NA48970   1.645   5.428  10.926  0.0926  0.1763  0.1613
32497ION     NA48971   2.502   6.860  12.957  0.1798 -0.0581  0.2315
32498ION     NA48972  13.859   6.508  13.761  0.1166  0.1243 -0.0262
32499ION     NA48973   3.450   3.472  10.928  0.2121 -0.5309 -0.0493
32500ION     NA48974   2.650  11.795  10.046 -0.2399 -0.2227 -0.0266
32501ION     NA48975  14.936   5.626  11.064  0.2228  0.3307  0.3992
32502ION     NA48976  12.492  17.310   0.616 -0.1358  0.2688  0.2901
32503ION     NA48977   2.555   0.761   6.315  0.3841  0.1113  0.0596
32504ION     NA48978   7.385   7.713   1.724 -0.0021  0.3056  0.0260
32505ION     NA48979  13.847  14.821  10.800  0.4322  0.0507  0.2083
32506ION     NA48980  15.633   7.070  11.864 -0.1592 -0.1879 -0.1527
32507ION     NA48981   6.599   1.117  11.113 -0.3391 -0.0976 -0.0530
32508ION     NA48982  15.394   5.416   6.492  0.2488  0.0140  0.0751
32509ION     NA48983   6.925  16.463   1.225 -0.2342  0.0016  0.0155
32510ION     NA48984  17.316   8.932  12.607  0.1327  0.3479 -0.1287
32511ION     NA48985   5.280  12.002  10.439  0.1797 -0.0483 -0.1199
32512ION     NA48986   6.923  12.533  10.699 -0.3705 -0.0760  0.1261
32513ION     NA48987  16.732  11.377   5.858 -0.3671  0.0069  0.1694
32514ION     NA48988  13.537   0.674   0.406 -0.1056 -0.0119 -0.0470
32515ION     NA48989   3.436  16.150  10.713  0.3117 -0.3259 -0.0757
32516ION     NA48990   2.524   6.208   5.773 -0.2250  0.0971 -0.0433
32517ION     NA48991   8.015  13.210  12.559 -0.0503 -0.0619 -0.0468
32518ION     NA48992   7.225   2.871  10.881 -0.1386  0.1176 -0.1919
32519ION     NA48993  17.318   2.183  11.281 -0.0365  0.1364 -0.1151
32520ION     NA48994  17.480  13.640  10.701 -0.0942 -0.1617  0.0757
32521ION     NA48995   9.636  10.343  10.554 -0.0120 -0.0214 -0.1241
32522ION     NA48996   1.820  11.913   2.944 -0.0549  0.1879 -0.2813
32523ION     NA48997  13.229   4.731  11.209  0.1826  0.2405 -0.0437
32524ION     NA48998   7.427   0.884  10.787  0.5901  0.0477 -0.2006
32525ION     NA48999   5.799  10.589  10.745  0.1636 -0.3635  0.0205
32526ION     NA49000  13.991   4.121  11.256 -0.1451  0.0322 -0.2430
32527ION     NA49001  13.198  15.387  10.619  0.1515  0.3192  0.0312
32528ION     NA49002  16.162   6.202  11.020  0.1220  0.0438  0.2093
32529ION     NA49003  12.180   1.789   3.723 -0.2473  0.1903  0.1410
32530ION     NA49004   2.828   4.841  11.037  0.1170  0.0527 -0.1155
32531ION     NA49005   0.095   5.780   5.478  0.2664 -0.0606  0.0375
32532ION     NA49006   8.943   6.085  10.754  0.0607 -0.0983 -0.1200
32533ION     NA49007  12.838  16.204  10.423 -0.3095  0.0895  0.1267
32534ION     NA49008  11.587   7.468   5.279  0.0498 -0.0180 -0.0833
32535ION     NA49009  14.695  16.909  11.131 -0.1711  0.2290  0.1627
32536ION     NA49010   6.640  14.529  11.205  0.0153 -0.1420  0.1408
32537ION     NA49011   4.286   3.564  15.937 -0.1774 -0.3495  0.1067
32538ION     NA49012   3.040   9.736  10.325  0.1493 -0.1724  0.1132
32539ION     NA49013   5.313  17.669  14.600 -0.0302  0.0943 -0.0645
32540ION     NA49014   4.785   9.185  10.682  0.0278 -0.1697 -0.1879
32541ION     NA49015  12.205  14.604   3.491 -0.2185 -0.1365  0.1234
32542ION     NA49016  10.490   3.234  10.950 -0.2131 -0.3780 -0.0414
32543ION     NA49017  12.961   0.543   5.192  0.2120  0.1816 -0.2543
32544ION     NA49018   1.596   0.215  10.996 -0.0885  0.2371 -0.1455
32545ION     NA49019  17.426   3.842  11.057 -0.1449  0.1755  0.0223
32546ION     NA49020  15.690  15.691  11.015 -0.3081 -0.1947 -0.1874
32547ION     NA49021   6.169   6.675  10.833 -0.1781 -0.0070  0.5240
32548ION     NA49022  17.144  13.702  11.934  0.3416 -0.0108  0.0268
32549ION     NA49023  16.440   1.448  11.023  0.0183  0.0983 -0.2032
32550ION     NA49024   6.434  11.696  13.454  0.3159 -0.4519 -0.2616
32551ION     NA49025   1.627   0.712  11.077 -0.3855 -0.2457 -0.0256
32552ION     NA49026   6.990   3.289   6.015  0.0171  0.0931  0.0244
32553ION     NA49027  10.659  15.538   3.942 -0.1432 -0.2706 -0.0930
32554ION     NA49028   4.504  15.781  16.302 -0.0453 -0.3171 -0.0629
32555ION     NA49029   8.993  14.754  10.433  0.0547 -0.0668 -0.2018
32556ION     NA49030  15.481   2.736  11.373 -0.2163 -0.1605  0.0224
32557ION     NA49031  16.055  15.499   1.639  0.0991  0.0689 -0.0467
32558ION     NA49032  13.619  16.322   3.853  0.3627  0.0405  0.0731
32559ION     NA49033   4.910   8.373  10.703 -0.1877 -0.2341 -0.1433
32560ION     NA49034   3.601  12.286   2.832  0.1044 -0.1347 -0.1813
32561ION     NA49035   5.393  12.829  10.301  0.1751 -0.2334 -0.1195
32562ION     NA49036   7.867  10.669  10.646 -0.1520  0.3347 -0.0735
32563ION     NA49037  14.561  14.890  10.868  0.2057  0.1448 -0.0907
32564ION     NA49038  15.673   2.112   4.187  0.1261  0.1430  0.3124
32565ION     NA49039  15.536   9.628  10.726 -0.0370  0.0468  0.0104
32566ION     NA49040   3.346   6.995   6.096  0.0707  0.0249 -0.1167
32567ION     NA49041  15.258   7.572   5.967 -0.2269  0.0771  0.1172
32568ION     NA49042  14.043   6.947  10.855 -0.0632  0.0026  0.2097
32569ION     NA49043  16.192   9.936  10.458  0.0296 -0.0710  0.0315
32570ION     NA49044   0.008   1.795  11.320  0.0611 -0.2500  0.2949
32571ION     NA49045  13.818  12.208  10.869  0.2883 -0.0553  0.1688
32572ION     NA49046  15.082  10.407  10.733  0.0925 -0.1966  0.2529
32573ION     NA49047  10.383   2.891   6.207  0.0378  0.0036  0.0110
32574ION     NA49048   0.156  15.877  10.759  0.2834  0.4193 -0.0357
32575ION     NA49049  16.905   8.411  10.857 -0.1274  0.1116  0.1271
32576ION     NA49050   8.253   3.895  10.758 -0.1263 -0.1193 -0.0774
32577ION     NA49051   5.870   8.123  10.635  0.0991  0.0188 -0.1988
32578ION     NA49052   4.809  10.128  10.539  0.0181  0.4865 -0.2288
32579ION     NA49053   6.969   5.144  10.919  0.0685  0.1515 -0.1247
32580ION     NA49054  16.438   7.712  11.248  0.0513  0.0999 -0.3824
32581ION     NA49055   4.578  13.374  10.386 -0.1302 -0.0468 -0.2609
32582ION     NA49056  10.915   3.642   3.923 -0.2039  0.1654  0.1033
32583ION     NA49057   8.483  14.781  11.747 -0.0691  0.3263 -0.0870
32584ION     NA49058   3.171   3.840  11.723  0.1451 -0.0816  0.0790
32585ION     NA49059  17.413  10.919  10.308 -0.1886 -0.0933  0.2027
32586ION     NA49060   2.925  17.027   5.729 -0.0771  0.0387 -0.1206
32587ION     NA49061  12.212  16.804  10.626 -0.1169 -0.1002 -0.3231
32588ION     NA49062   0.820  15.466  11.291 -0.1471 -0.1247  0.0021
32589ION     NA49063   9.661  17.674  10.388  0.2113 -0.1726 -0.0689
32590ION     NA49064   0.278  10.885  12.843  0.0364 -0.0739 -0.0710
32591ION     NA49065  12.952  10.426  10.786 -0.0618 -0.1761 -0.1646
32592ION     NA49066  10.508   5.736  13.712  0.2532 -0.1960 -0.1921
32593ION     NA49067  12.952   3.130   2.069  0.2375 -0.1468 -0.0928
32594ION     NA49068   4.890  15.012  10.812  0.1138  0.0049  0.2964
32595ION     NA49069   2.113   2.115  16.038  0.1736  0.0894  0.0914
32596ION     NA49070  16.465  16.006  10.802  0.1663  0.0361 -0.3354
32597ION     NA49071  12.998  13.731   6.129  0.0657 -0.1360 -0.1545
32598ION     NA49072   7.587  15.646  10.623  0.3051  0.2599  0.2362
32599ION     NA49073   5.863   2.979   6.029 -0.0392 -0.3027  0.2738
32600ION     NA49074  12.237  14.111   5.449  0.1057 -0.1375 -0.0110
32601ION     NA49075   4.124   2.732  11.182 -0.2430  0.2296 -0.0586
32602ION     NA49076   0.865   9.433   3.593  0.4473  0.0829  0.0468
32603ION     NA49077   9.001   0.008   1.740  0.0478 -0.1579  0.1373
32604ION     NA49078   7.243  14.315  10.481 -0.0946 -0.1908  0.0940
32605ION     NA49079  17.136   1.914   4.444 -0.2482 -0.2251 -0.3193
32606ION     NA49080  10.619   6.641  14.176  0.0014 -0.0936 -0.1334
32607ION     NA49081   1.244   7.389  11.435 -0.1518 -0.1410 -0.1141
32608ION     NA49082  15.452  16.457  10.863 -0.1602 -0.1813 -0.3028
32609ION     NA49083   0.155  11.464  10.532  0.0311  0.3341 -0.0350
32610ION     NA49084   4.329   0.782  11.170 -0.0139  0.3431  0.0872
32611ION     NA49085   0.253   7.408  14.266 -0.0540 -0.0254 -0.1395
32612ION     NA49086   3.384   0.703   5.798  0.0783  0.4056  0.0521
32613ION     NA49087  14.016   3.827   0.668 -0.3479 -0.1396 -0.1876
32614ION     NA49088   6.835   7.768  10.872 -0.0644 -0.0898  0.1915
32615ION     NA49089  13.177   3.542  11.109  0.2783 -0.1077 -0.1689
32616ION     NA49090  10.156   7.047   3.511  0.1155  0.2398  0.3349
32617ION     NA49091  16.939  17.229   0.831  0.1875 -0.2115  0.4098
32618ION     NA49092   7.597  17.409   3.924 -0.0542  0.2296  0.0993
32619ION     NA49093   3.427  17.354   3.530 -0.4833 -0.2794 -0.1630
32620ION     NA49094   8.666  10.332  10.624 -0.0381  0.3144  0.0670
32621ION     NA49095   1.256   5.017   2.164 -0.5017 -0.0078  0.4146
32622ION     NA49096  15.895   7.013  10.797 -0.2646  0.0496  0.2794
32623ION     NA49097   2.757  13.889  10.309 -0.0221 -0.0381  0.0667
32624ION     NA49098   1.473  11.171   0.529  0.3563  0.2101  0.1752
32625ION     NA49099  13.319  16.919  10.970 -0.1834  0.1180  0.1906
32626ION     NA49100   8.184   4.029  16.686 -0.2148 -0.1541  0.1688
32627ION     NA49101  10.537  17.467   5.676  0.2300  0.1831  0.1003
32628ION     NA49102   7.978  13.755  10.729  0.1314 -0.2156 -0.0190
32629ION     NA49103   8.704   4.117  14.103  0.0644 -0.0249  0.0092
32630ION     NA49104   4.920   6.635  13.233  0.1405 -0.0460  0.0200
32631ION     NA49105   7.822   3.348   6.008  0.0792  0.1934 -0.3403
32632ION     NA49106   4.995  10.152  16.776  0.0079 -0.2291  0.0222
32633ION     NA49107  14.021  13.689  16.462  0.3888  0.1307  0.4660
32634ION     NA49108   5.777   2.116   1.249 -0.1632  0.0792 -0.0445
32635ION     NA49109  13.798  12.703   1.743 -0.3225 -0.2010  0.1246
32636ION     NA49110   5.609   7.378  10.820  0.1416 -0.1347 -0.1653
32637ION     NA49111  10.952   9.303  10.725 -0.0931  0.1366  0.0481
32638ION     NA49112  10.626   4.130  10.997 -0.1978  0.0528 -0.0528
32639ION     NA49113   0.194  14.132  10.383 -0.0476 -0.2614  0.0114
32640ION     NA49114   1.058   0.940   3.120 -0.0125  0.2708  0.1348
32641ION     NA49115  11.617  12.134  13.506  0.0619  0.0670  0.1472
32642ION     NA49116   4.797  14.764   5.847 -0.3984 -0.4634  0.0695
32643ION     NA49117  17.143   5.878   0.895  0.1476  0.1828  0.1439
32644ION     NA49118  12.835  16.537   5.750 -0.0038 -0.3106  0.0041
32645ION     NA49119   9.983   9.008   0.323  0.0365 -0.0221  0.0039
32646ION     NA49120  11.726   7.667  11.034 -0.3299  0.3875 -0.2655
32647ION     NA49121   6.956  10.514  10.615  0.0989  0.1444  0.0639
32648ION     NA49122  15.718   7.292   0.407  0.0284  0.0666 -0.0511
32649ION     NA49123   1.742   2.033  12.151  0.1579  0.0224  0.1347
32650ION     NA49124  15.793  14.292  11.331 -0.0743  0.3373  0.1800
32651ION     NA49125   7.345  11.263  10.715  0.0416  0.0790 -0.0732
32652ION     NA49126  12.744   7.812  11.051 -0.0173  0.1469 -0.1450
32653ION     NA49127   3.872   3.973  16.698  0.0997 -0.2533 -0.1213
32654ION     NA49128   3.658  12.189   4.763  0.3658  0.1876 -0.0337
32655ION     NA49129   9.704   6.387  10.929  0.0859 -0.1563 -0.0639
32656ION     NA49130   6.403  15.100   3.626 -0.0648 -0.0787 -0.1494
32657ION     NA49131  15.946   4.947   6.291  0.1500 -0.2810  0.1239
32658ION     NA49132  16.379   3.789  11.271 -0.0187 -0.1563 -0.0324
32659ION     NA49133  13.991  17.381  10.980 -0.0705  0.3426 -0.0263
32660ION     NA49134  17.397  13.816   4.030  0.2026  0.1565  0.2118
32661ION     NA49135   7.507   9.467  10.689  0.2693 -0.1992 -0.1547
32662ION     NA49136  14.437   1.686   6.322  0.1090  0.2236 -0.0434
32663ION     NA49137  17.804   8.341   5.886  0.3265  0.3393 -0.0190
32664ION     NA49138  12.992  13.811  13.114 -0.2062 -0.2308 -0.0172
32665ION     NA49139   4.903  16.497  10.891  0.0176 -0.2297 -0.0144
32666ION     NA49140   0.265   5.137  10.728  0.0817 -0.1147 -0.0860
32667ION     NA49141   5.509   4.829  11.126 -0.3005  0.0389 -0.0868
32668ION     NA49142   8.144   7.425  11.433  0.2465 -0.0304 -0.0126
32669ION     NA49143  15.568   9.077  10.765  0.0959  0.2894  0.1031
32670ION     NA49144   1.190   3.046  11.027 -0.0832 -0.1079 -0.0004
32671ION     NA49145   5.447   6.553  10.706 -0.1546 -0.0421 -0.0293
32672ION     NA49146  16.677  10.803  10.532  0.3840 -0.1025  0.1686
32673ION     NA49147   8.003  12.928  10.765 -0.2146 -0.4604  0.2701
32674ION     NA49148   9.547   4.455   6.312  0.0693  0.0584  0.0305
32675ION     NA49149  12.556   7.551   0.160 -0.4844  0.1851  0.0979
32676ION     NA49150   7.305   4.308  10.852  0.1207 -0.3091 -0.2148
32677ION     NA49151  11.216  17.750  10.812 -0.0095 -0.0289 -0.0110
32678ION     NA49152  16.760   4.759   2.988  0.2044  0.0846 -0.4135
32679ION     NA49153   3.952   4.723  11.008 -0.0458  0.1155  0.4169
32680ION     NA49154  11.598   1.039  10.714 -0.0358  0.2377  0.0494
32681ION     NA49155   0.464   8.616  12.055  0.1039  0.0520 -0.0206
32682ION     NA49156  14.883  10.888  15.890 -0.2252  0.1935  0.1278
32683ION     NA49157  15.457   0.487  14.784  0.0994  0.0149  0.0569
32684ION     NA49158  10.306   1.566  10.955  0.4230 -0.2496  0.2801
32685ION     NA49159   7.924  12.924  14.367 -0.0547  0.0906  0.0970
32686ION     NA49160  11.705   0.933   5.982 -0.2691  0.0612 -0.0885
32687ION     NA49161   3.205  14.119  10.523 -0.0972  0.1365 -0.2327
32688ION     NA49162  17.646   4.496  16.054  0.0173  0.3156  0.0507
32689ION     NA49163   6.610   5.504  11.063  0.2538  0.1711  0.4052
32690ION     NA49164  11.301  12.608   0.591 -0.0026 -0.1037  0.1194
32691ION     NA49165  11.908   7.311   4.218 -0.1576 -0.1806 -0.0231
32692ION     NA49166   2.917  10.972   9.923 -0.1090 -0.1835  0.1053
32693ION     NA49167   7.495   3.389  10.792  0.0983  0.2512  0.0190
32694ION     NA49168  16.749  14.124  10.628 -0.3124 -0.0359 -0.0376
32695ION     NA49169  12.844   5.672   1.967 -0.1779 -0.0230 -0.1544
32696ION     NA49170   8.885  11.212   3.935  0.1420 -0.1244  0.0713
32697ION     NA49171  14.351   0.706   0.879 -0.1548  0.0471  0.1145
32698ION     NA49172  10.069   9.241  10.715  0.2162 -0.0740 -0.0718
32699ION     NA49173   9.574  11.372  10.689 -0.0203 -0.0997 -0.1933
32700ION     NA49174  11.133  10.796  10.919 -0.0486 -0.0369 -0.1510
32701ION     NA49175   2.577  11.616  14.416  0.2199  0.2245 -0.0011
32702ION     NA49176   6.333  15.221  11.860 -0.0245 -0.1345  0.4307
32703ION     NA49177   2.001  13.277  10.273 -0.0315 -0.0008  0.1695
32704ION     NA49178  14.357   1.703  12.618  0.2450  0.1227  0.0516
32705ION     NA49179   8.309  16.660  10.339  0.0681 -0.1729 -0.3698
32706ION     NA49180  11.275  12.272  10.932 -0.0460 -0.1366  0.0020
32707ION     NA49181   1.836   8.471   5.935  0.0579  0.0568  0.2554
32708ION     NA49182   3.409  17.373   0.624  0.1828 -0.0789  0.1831
32709ION     NA49183  17.468  15.996   2.423 -0.0218 -0.1185 -0.0590
32710ION     NA49184  15.030   7.217  10.900 -0.1411 -0.3543 -0.1532
32711ION     NA49185   0.173   3.018  11.076 -0.4235 -0.1228 -0.1159
32712ION     NA49186  17.529  15.345  12.754  0.1114 -0.0656  0.1174
32713ION     NA49187  12.329   8.827   5.549 -0.3768  0.2091  0.0059
32714ION     NA49188  14.313   0.498  11.202  0.0636 -0.0898 -0.0396
32715ION     NA49189   4.429  13.415   3.606  0.0157  0.0656  0.3601
32716ION     NA49190   2.030  15.146  10.596  0.1069 -0.1139 -0.0139
32717ION     NA49191   5.447   0.262  10.839  0.2566  0.1093  0.0159
32718ION     NA49192   8.560  10.312   5.905 -0.1197 -0.1124  0.0417
32719ION     NA49193   0.892   2.366  11.083  0.1025 -0.1130  0.0277
32720ION     NA49194   9.140   4.047  10.866  0.2537  0.0416 -0.0376
32721ION     NA49195  10.576  11.460  14.247 -0.4287 -0.1415  0.2633
32722ION     NA49196  16.155  10.384  10.611  0.1526 -0.1881  0.0897
32723ION     NA49197   9.531   1.533  11.166 -0.0136  0.1576  0.1801
32724ION     NA49198   4.050   0.520   0.728  0.1404  0.2065  0.4368
32725ION     NA49199  13.643   7.722  11.081  0.3322 -0.0552 -0.2334
32726ION     NA49200   7.163  13.315  10.652  0.0247  0.2132 -0.0647
32727ION     NA49201   4.072   4.881   2.515  0.1441  0.0257 -0.0064
32728ION     NA49202   4.995   7.381  15.873  0.3009  0.2165 -0.0273
32729ION     NA49203   0.405   3.480  10.956 -0.0052  0.1694 -0.0483
32730ION     NA49204  15.718   5.416  11.047  0.0339 -0.0375 -0.4633
32731ION     NA49205  17.121  17.788   6.061 -0.1383 -0.0348 -0.2049
32732ION     NA49206  11.363   3.764  10.899 -0.2402  0.2336  0.0153
32733ION     NA49207   8.428   3.102   2.374  0.1021 -0.1741 -0.1677
32734ION     NA49208  10.972  13.950  10.635 -0.4126  0.0966  0.3679
32735ION     NA49209  15.400  15.626  16.390  0.1311  0.0939  0.2649
32736ION     NA49210   4.955  14.123  10.674 -0.3171  0.0801  0.0343
32737ION     NA49211  16.241   1.104  11.867  0.2643  0.0622  0.0805
32738ION     NA49212   2.642  17.464  10.983 -0.0431 -0.0170 -0.0940
32739ION     NA49213   3.616  16.335  16.142 -0.0586  0.1783 -0.2241
32740ION     NA49214   2.364  15.738  16.355  0.2560 -0.1042  0.2295
32741ION     NA49215   5.764   3.500  11.047 -0.0144  0.0937 -0.2219
32742ION     NA49216  14.234   8.406  10.913  0.0082 -0.1485 -0.0483
32743ION     NA49217  13.793   9.836  10.741 -0.0592  0.0878  0.1227
32744ION     NA49218   2.624  16.612  10.776  0.0759 -0.2669 -0.0004
32745ION     NA49219   8.234   2.710  10.885  0.0436  0.0628 -0.1568
32746ION     NA49220  12.567  11.253  10.956 -0.0411 -0.1654 -0.5392
32747ION     NA49221   3.128  12.393  10.070 -0.2306  0.0095 -0.2952
32748ION     NA49222  15.916  14.764  10.659 -0.0268  0.0755 -0.0145
32749ION     NA49223   8.891   2.163  10.876  0.2040  0.5347  0.1143
32750ION     NA49224  14.998  14.160  10.869 -0.0370 -0.1196  0.1802
32751ION     NA49225  15.485   7.921  10.710  0.0413  0.0969  0.3737
32752ION     NA49226  15.669  15.189   6.150 -0.1228  0.0045  0.0388
32753ION     NA49227   8.184   8.933  10.697  0.1641  0.0527 -0.2816
32754ION     NA49228  11.443   2.938  11.041 -0.1228 -0.2983 -0.1669
32755ION     NA49229  16.955  12.339   5.744  0.1067 -0.2584  0.3001
32756ION     NA49230   4.856   1.108  11.033 -0.1343  0.3158 -0.1339
32757ION     NA49231   9.555   6.889   1.329 -0.1290 -0.0880  0.0083
32758ION     NA49232  11.807  13.786  10.858  0.4131 -0.2108 -0.1965
32759ION     NA49233  12.358   1.579  10.880  0.1964 -0.0031  0.0534
32760ION     NA49234  13.338  17.805  14.584  0.1108 -0.1701 -0.0314
32761ION     NA49235   4.049  15.946  12.145  0.1890 -0.0803  0.6772
32762ION     NA49236   6.725  12.966  12.213 -0.1499  0.1038 -0.1523
32763ION     NA49237  11.694   8.479  11.572 -0.0523  0.0453 -0.0983
32764ION     NA49238  13.816   5.911   6.035  0.0311  0.1810 -0.2876
32765ION     NA49239   7.843  17.733  11.295 -0.0602  0.2847  0.1372
32766ION     NA49240   0.267  16.681  10.951 -0.2592 -0.1335  0.0964
32767ION     NA49241   9.317   9.634  11.007 -0.2334 -0.0559  0.1545
32768ION     NA49242   4.151   3.449  11.121  0.3285 -0.2305  0.0985
32769ION     NA49243   1.031  15.532   3.243  0.0503  0.3038  0.1354
32770ION     NA49244  11.684  15.144  10.533  0.0640  0.1774  0.1176
32771ION     NA49245  10.438  12.270  11.517  0.1364  0.0242  0.2009
32772ION     NA49246   6.095  12.104  10.557 -0.2410 -0.0229  0.0134
32773ION     NA49247  16.141  12.343  10.487 -0.1245  0.0629  0.3354
32774ION     NA49248  13.167   1.514   1.924 -0.1904  0.1208 -0.1120
32775ION     NA49249   8.977   6.895  10.907  0.1789 -0.0885 -0.1241
32776ION     NA49250   1.115  10.573  10.182 -0.0412 -0.1160 -0.1879
32777ION     NA49251  10.036  12.526   6.383 -0.0377 -0.0371 -0.1060
32778ION     NA49252  14.320  13.625   0.319  0.1500  0.1314  0.3024
32779ION     NA49253   3.278   1.215  13.366 -0.0423 -0.0305  0.3164
32780ION     NA49254   5.579  13.566  10.821 -0.1089  0.3061 -0.4164
32781ION     NA49255  14.278   2.669  11.310 -0.0011  0.3574  0.0090
32782ION     NA49256   9.685  10.497  12.939  0.1706 -0.1945 -0.0948
32783ION     NA49257  14.109  15.691  10.690 -0.0520 -0.0876  0.0953
32784ION     NA49258   1.024  16.367  10.772  0.0828  0.1027 -0.1341
32785ION     NA49259  16.821   2.081   6.438  0.1518  0.0558  0.0355
32786ION     NA49260  17.254   7.577  11.044 -0.2298 -0.3305 -0.1788
32787ION     NA49261  17.043  16.230   3.185  0.0864  0.3755  0.0922
32788ION     NA49262   4.635   7.478   0.132  0.0371  0.0973 -0.3631
32789ION     NA49263  10.964   7.104  14.962  0.1127  0.1436  0.3071
32790ION     NA49264   0.353  14.789   5.726  0.0952 -0.2412 -0.2248
32791ION     NA49265  12.670   2.724  11.800  0.1169  0.2454  0.0799
32792ION     NA49266   6.547  10.670  10.977 -0.2421  0.1691  0.0104
32793ION     NA49267   0.990  12.135   3.988  0.0877 -0.2187 -0.1108
32794ION     NA49268  16.340   3.721  12.253  0.3163  0.1171 -0.0900
32795ION     NA49269  14.650  16.072  10.962  0.1354 -0.1573  0.0258
32796ION     NA49270  10.065  14.107  10.703  0.0946 -0.0070 -0.4020
32797ION     NA49271   4.109   8.428   5.963 -0.3329 -0.1162  0.0977
32798ION     NA49272  12.094   2.406   4.909 -0.2209  0.1894 -0.1217
32799ION     NA49273   6.306  13.040  10.763  0.0689  0.1086 -0.0686
32800ION     NA49274   2.053  14.598   5.122  0.0071  0.0207  0.1118
32801ION     NA49275   8.389  17.620   2.807 -0.0278  0.1809 -0.0008
32802ION     NA49276  17.122  11.711   6.092  0.3993  0.3281 -0.1189
32803ION     NA49277   7.017   4.369   1.821 -0.1513 -0.0425 -0.1122
32804ION     NA49278  14.617  11.694   6.110  0.0604 -0.1980  0.1848
32805ION     NA49279  15.622  16.363   1.452  0.0542 -0.0146 -0.2378
32806ION     NA49280  17.516   5.846   3.031 -0.0204 -0.1389 -0.0380
32807ION     NA49281   6.273   9.312  14.864 -0.1923  0.1297 -0.1659
32808ION     NA49282  16.463   8.173   4.678 -0.0310  0.2881  0.1684
32809ION     NA49283   8.043  11.989   0.152 -0.4111  0.1436 -0.0940
32810ION     NA49284   9.768  11.609   6.296  0.0422 -0.0699 -0.0149
32811ION     NA49285  12.883  17.785  10.858  0.1412 -0.2505 -0.2981
32812ION     NA49286  12.436   2.694   3.338  0.0310 -0.1531  0.1297
32813ION     NA49287   0.428   6.082  11.011 -0.0739 -0.0294 -0.1012
32814ION     NA49288   2.281  13.365  11.557 -0.0517  0.1574 -0.1211
32815ION     NA49289  17.224  16.414  10.906 -0.2525  0.0660  0.4413
32816ION     NA49290   7.359   7.896   5.397  0.0244  0.0310  0.1817
32817ION     NA49291  16.857  11.664  10.650  0.1792  0.0398  0.0211
32818ION     NA49292   9.636   5.496  10.707  0.4243 -0.0720  0.1802
32819ION     NA49293   9.562  10.461  11.523 -0.1153  0.3235 -0.0050
32820ION     NA49294  15.371   6.325  11.130  0.0178 -0.4959  0.4607
32821ION     NA49295   0.203  16.400   5.783 -0.1447  0.0689 -0.0614
32822ION     NA49296  12.475   2.482  10.996  0.1344 -0.0222 -0.1488
32823ION     NA49297   8.709  16.327   1.964 -0.1570 -0.0705 -0.1366
32824ION     NA49298   0.118  12.068  11.230  0.0338 -0.0284  0.1689
32825ION     NA49299   1.262  14.899  10.422  0.0604 -0.1446  0.1510
32826ION     NA49300  11.594  13.453  14.592  0.1647 -0.1067  0.2550
32827ION     NA49301  11.331   7.934   6.101  0.1790 -0.2267  0.3465
32828ION     NA49302   1.395  17.337  10.825  0.1024  0.0062  0.3750
32829ION     NA49303   7.000   0.504   4.154  0.0083  0.0607 -0.2198
32830ION     NA49304   9.371   9.352  12.055 -0.0130 -0.7038  0.0456
32831ION     NA49305   3.642  10.574  10.137  0.1934 -0.0119 -0.3057
32832ION     NA49306   9.213  15.657  10.449 -0.0826 -0.0515  0.2086
32833ION     NA49307  12.031  12.639  10.992  0.0378  0.1554  0.1486
32834ION     NA49308   2.179   2.929  10.989 -0.3636  0.0418  0.0202
32835ION     NA49309   9.693   2.685  10.770  0.1521 -0.1674 -0.1604
32836ION     NA49310   9.254   7.355  10.923  0.1297 -0.0736 -0.0332
32837ION     NA49311  15.585   9.622  13.536  0.1170  0.2879  0.1025
32838ION     NA49312   1.450   4.837  10.972 -0.2691 -0.1561  0.0585
32839ION     NA49313   2.087  14.250  10.538  0.2538  0.1107 -0.0408
32840ION     NA49314  15.110  11.331  10.715  0.1070  0.0756 -0.1042
32841ION     NA49315  17.006  12.800   0.391  0.1151  0.0561  0.0321
32842ION     NA49316  11.466  16.949  10.506  0.0009  0.3172  0.1180
32843ION     NA49317   5.078  10.991  10.617  0.1773 -0.1320  0.0492
32844ION     NA49318   3.876  12.850  10.217  0.0832 -0.2757 -0.0465
32845ION     NA49319   4.248  10.960  10.424 -0.1651 -0.0916 -0.1653
32846ION     NA49320  14.103  11.384   3.407  0.1764 -0.1175  0.0693
32847ION     NA49321   8.548  13.761  10.621  0.0757 -0.0669 -0.1011
32848ION     NA49322   1.438  12.693  10.001 -0.1264  0.0585  0.1273
32849ION     NA49323   5.690   4.892  12.096  0.1059 -0.4081 -0.1409
32850ION     NA49324  14.803   6.641   5.546  0.2145 -0.2776 -0.2856
32851ION     NA49325  13.585  12.584  15.054  0.3219  0.0263  0.0682
32852ION     NA49326   6.378   9.135   6.079 -0.1302  0.0866 -0.0327
32853ION     NA49327  16.069   8.471  11.011  0.0849 -0.2582  0.4085
32854ION     NA49328   0.412   1.086  10.838 -0.1848  0.0942 -0.2699
32855ION     NA49329   0.889   9.118   0.947 -0.2288 -0.0765  0.0088
32856ION     NA49330   3.628   2.395   6.086  0.0214 -0.2044 -0.0929
32857ION     NA49331   4.963   3.842  11.105  0.0685  0.0063  0.2039
32858ION     NA49332  15.248  12.909   5.858 -0.1424 -0.1334 -0.0170
32859ION     NA49333  11.186   4.576  10.883  0.3233  0.1679  0.2237
32860ION     NA49334   3.673   6.836  10.847 -0.1522 -0.1133  0.1321
32861ION     NA49335   0.027  15.041  10.446  0.1955  0.0900  0.0237
32862ION     NA49336   2.708   9.407   4.097  0.1992 -0.2923 -0.1633
32863ION     NA49337   4.456  12.552   5.745 -0.1986  0.1763  0.0828
32864ION     NA49338   2.798   8.089  10.690  0.0464  0.5291  0.1785
32865ION     NA49339   1.992   6.844   5.029  0.0114  0.0361  0.1542
32866ION     NA49340  13.690   8.798  10.932  0.1588 -0.1630  0.1440
32867ION     NA49341  11.940   9.099  10.770  0.1127  0.0747 -0.3344
32868ION     NA49342   5.241  12.473  11.682  0.3986 -0.0797  0.2107
32869ION     NA49343   3.814   9.479   5.953 -0.1936  0.3114  0.0263
32870ION     NA49344  12.463  13.669  11.374 -0.0424 -0.0477  0.0447
32871ION     NA49345   0.710  14.947  10.542  0.3912 -0.2380  0.0252
32872ION     NA49346   4.848   7.292   5.986  0.0003 -0.0643 -0.0827
32873ION     NA49347  16.393  16.897  10.897 -0.5417  0.1408 -0.0421
32874ION     NA49348   1.127   3.974  10.989  0.0407  0.3693 -0.0177
32875ION     NA49349   0.581   8.543  15.167  0.0066 -0.0405  0.1514
32876ION     NA49350   8.974   0.245  10.761 -0.1167 -0.0997  0.0948
32877ION     NA49351   5.423   2.065   2.960 -0.1103 -0.2885  0.1605
32878ION     NA49352  16.926  15.032  10.496  0.0754  0.2698 -0.1294
32879ION     NA49353   5.289  11.314   5.783  0.1414 -0.0468 -0.0809
32880ION     NA49354  14.284  16.584   6.051 -0.0379  0.0959  0.0416
32881ION     NA49355  12.986  14.956  10.661  0.3990  0.0238  0.0378
32882ION     NA49356   2.448   5.147  11.134  0.0495  0.0263 -0.2618
32883ION     NA49357   3.427  15.093  10.793 -0.1695 -0.1535 -0.0637
32884ION     NA49358  11.498   4.795   5.963 -0.2949  0.1990  0.2786
32885ION     NA49359   4.631  13.437   5.833  0.0892 -0.1927 -0.2770
32886ION     NA49360  14.406   5.351   2.058 -0.1202  0.1510  0.0398
32887ION     NA49361   4.698   4.477  16.368 -0.0655 -0.1663  0.3453
32888ION     NA49362   5.482  11.504  15.062 -0.3907  0.1207 -0.1580
32889ION     NA49363   0.572  12.361  10.322 -0.0820  0.0526  0.1009
32890ION     NA49364  12.247   3.279  10.999  0.1770  0.2242  0.1637
32891ION     NA49365   8.677   8.105  11.094 -0.1736  0.0015 -0.1986
32892ION     NA49366  10.565   6.963   5.794  0.3122  0.0745 -0.0086
32893ION     NA49367  11.032   2.842  13.561 -0.0372  0.0304 -0.2128
32894ION     NA49368   5.981  10.915   5.858 -0.0607  0.0227 -0.0628
32895ION     NA49369   3.673   8.400  10.600 -0.0957  0.2355 -0.2516
32896ION     NA49370  16.663   6.973  10.777 -0.1667  0.0430  0.0641
32897ION     NA49371   3.993   6.006  10.987  0.0383 -0.1366  0.1089
32898ION     NA49372   1.463  17.787  16.549 -0.1120 -0.0366 -0.0017
32899ION     NA49373   6.273   6.683   2.046  0.1374  0.0991 -0.0185
32900ION     NA49374   0.666   5.240  11.074  0.0308  0.0902  0.0576
32901ION     NA49375   5.455  15.622   2.405  0.0940 -0.2392 -0.2334
32902ION     NA49376  12.335  13.038  10.887  0.0306  0.2297 -0.1078
32903ION     NA49377  10.343   0.353  10.562  0.2816  0.0271  0.2067
32904ION     NA49378  13.510  16.070  10.923 -0.1276  0.2106  0.0171
32905ION     NA49379  14.498   7.581  10.896 -0.1521  0.1341  0.0381
32906ION     NA49380  14.045   1.808   1.537  0.0390 -0.0074  0.3354
32907ION     NA49381   0.809   2.234  12.553 -0.0498  0.1617  0.5046
32908ION     NA49382   1.425   3.890   2.967 -0.1841 -0.1568 -0.0057
32909ION     NA49383   1.048  14.091  10.272  0.0085  0.1364 -0.1026
32910ION     NA49384  14.685   0.611   4.179  0.0372  0.0892 -0.0549
32911ION     NA49385   8.289   5.661  10.987  0.0366  0.0582 -0.1778
32912ION     NA49386   9.978   8.287  10.797  0.0540 -0.0972 -0.0519
32913ION     NA49387  11.819   6.120  11.005  0.1162 -0.0700  0.1292
32914ION     NA49388  10.414   5.080  10.988 -0.1589  0.0834  0.0015
32915ION     NA49389  10.731  14.865  10.394  0.1823  0.0841  0.0520
32916ION     NA49390   7.297   8.601   4.739  0.0847 -0.5067 -0.1191
32917ION     NA49391  13.365  12.902  10.887 -0.2827 -0.0909 -0.1133
32918ION     NA49392  16.345   9.108  10.501 -0.0942  0.0370  0.0984
32919ION     NA49393   7.206  10.536  14.000 -0.0420 -0.0032  0.0634
32920ION     NA49394   3.852   9.209  10.444 -0.2351  0.0246 -0.0925
32921ION     NA49395   8.488   9.781  10.756  0.0576 -0.1200  0.1687
32922ION     NA49396  11.335   8.514  10.745 -0.2555 -0.0322  0.2893
32923ION     NA49397   8.138  16.998  13.085  0.0502  0.1570  0.1168
32924ION     NA49398   4.067  11.721   5.674 -0.1789  0.0192  0.2677
32925ION     NA49399   1.424   9.199   5.759 -0.0187  0.0407 -0.2029
32926ION     NA49400  11.668   3.831  13.777  0.0363  0.0190  0.0652
32927ION     NA49401  11.904   8.525   5.695  0.2025 -0.1079  0.4210
32928ION     NA49402  17.227  12.419  10.405 -0.0931  0.0504  0.0150
32929ION     NA49403   8.573   3.708  14.845 -0.0810 -0.1605  0.1860
32930ION     NA49404  16.335   4.173   0.638  0.4064  0.1118  0.4406
32931ION     NA49405   4.818   5.890  10.781 -0.2893  0.0019 -0.0141
32932ION     NA49406   3.600  11.479   9.964  0.0025 -0.1841 -0.1018
32933ION     NA49407   6.895  10.986   3.025  0.1120  0.1155  0.0645
32934ION     NA49408  14.067  13.881  10.810  0.1963  0.2638 -0.2642
32935ION     NA49409   3.380  16.974  10.876  0.2378  0.5130  0.0730
32936ION     NA49410  16.851   1.967  11.278  0.1777 -0.0477 -0.1127
32937ION     NA49411   0.007   9.782  16.484 -0.1640  0.0709 -0.3656
32938ION     NA49412   3.581   8.647   6.042 -0.1609  0.0650  0.0116
32939ION     NA49413  14.666   5.703   6.376 -0.2247 -0.1914 -0.4301
32940ION     NA49414   9.832  14.900  10.394  0.3334  0.0946 -0.2500
32941ION     NA49415   9.540  16.497   6.108  0.0359 -0.0706 -0.1653
32942ION     NA49416   5.797   4.816   5.074 -0.2081  0.0484 -0.1502
32943ION     NA49417   7.583  12.217  10.855  0.1405  0.0223  0.0574
32944ION     NA49418   3.456   1.573  16.854 -0.0427 -0.1291  0.0738
32945ION     NA49419   0.994  14.240   5.733  0.0420  0.1416 -0.3214
32946ION     NA49420  12.318   0.694  10.712  0.0131  0.2225 -0.3317
32947ION     NA49421   8.419  12.414   6.058 -0.2182  0.1103  0.0032
32948ION     NA49422  10.243   4.801   4.192 -0.0047 -0.1341 -0.1917
32949ION     NA49423  14.727  14.042   5.977  0.0993 -0.3052  0.2037
32950ION     NA49424  17.010   3.033  11.250  0.1293 -0.1766 -0.1806
32951ION     NA49425   6.325   4.603  10.715  0.2774  0.0801  0.1747
32952ION     NA49426  12.244  13.260   6.327 -0.1412 -0.0330  0.0762
32953ION     NA49427   9.287  13.698   1.186 -0.1920  0.1360  0.5149
32954ION     NA49428   1.821  17.624   6.067 -0.0489 -0.2040  0.0817
32955ION     NA49429   2.763   7.280  10.618  0.2612  0.2614 -0.0946
32956ION     NA49430  12.789   9.347  10.901 -0.1547  0.0194  0.1573
32957ION     NA49431   8.174   2.998   3.806 -0.2116  0.1495  0.0630
32958ION     NA49432  13.457   7.871  12.888 -0.0693  0.0753  0.0506
32959ION     NA49433   0.297   4.094   6.322  0.3775 -0.1002  0.2071
32960ION     NA49434  15.873   2.109  11.309  0.0596 -0.2989  0.1842
32961ION     NA49435   0.848   0.247   4.037 -0.0948  0.0655 -0.1241
32962ION     NA49436   1.870   4.728   5.796  0.1722  0.1623 -0.1273
32963ION     NA49437   1.980  11.071   9.874 -0.0732 -0.0792 -0.2012
32964ION     NA49438  12.252   7.599   1.470 -0.4201  0.3296  0.0893
32965ION     NA49439  10.085   2.385  10.845 -0.2160 -0.3625  0.0765
32966ION     NA49440  14.508   4.204  11.161 -0.2136 -0.0250  0.1253
32967ION     NA49441   2.020  16.205   2.695  0.0185 -0.1552 -0.1020
32968ION     NA49442  12.550   4.088  11.236 -0.1883  0.3406  0.0896
32969ION     NA49443   9.504  13.967  10.691 -0.2122 -0.0851 -0.2955
32970ION     NA49444   5.077  12.362  13.830 -0.1485 -0.1200  0.1096
32971ION     NA49445  11.377  14.023   6.145  0.1448 -0.1255 -0.2379
32972ION     NA49446  14.420   5.404   5.244 -0.0626  0.2335 -0.1572
32973ION     NA49447   5.651   0.769  11.580 -0.0312  0.0162  0.1151
32974ION     NA49448   7.321   1.727  10.672 -0.0120 -0.0674 -0.0824
32975ION     NA49449   8.458  12.299  10.691  0.0881 -0.1456  0.0232
32976ION     NA49450  16.779   7.459   6.141  0.1607 -0.1897 -0.0346
32977ION     NA49451  14.432   6.604  11.068 -0.1105 -0.1204  0.2921
32978ION     NA49452  10.602  10.051  10.717  0.0072  0.0062  0.0521
32979ION     NA49453   8.905   3.074  10.842  0.3392  0.1171  0.0875
32980ION     NA49454   3.454   0.102  11.008 -0.1214  0.0241 -0.2560
32981ION     NA49455   6.884   8.782  11.044 -0.2141 -0.0014 -0.1714
32982ION     NA49456  11.917  13.262  15.762 -0.0806  0.2478 -0.3773
32983ION     NA49457  14.800   9.848  10.744  0.1288 -0.0626  0.1026
32984ION     NA49458   2.627  14.496  11.675 -0.3428 -0.1026 -0.0811
32985ION     NA49459   9.890   0.486  10.943  0.0328 -0.2617 -0.0348
32986ION     NA49460  10.455  16.412   4.232 -0.0345  0.0372 -0.1871
32987ION     NA49461  13.821   0.373  11.156 -0.3479 -0.0393 -0.1364
32988ION     NA49462   0.362  10.099  10.377  0.1228 -0.0922  0.0410
32989ION     NA49463   4.579   6.774  10.915  0.1609 -0.1484  0.2567
32990ION     NA49464   6.361  12.990   5.580  0.0486 -0.0725 -0.0969
32991ION     NA49465  15.051  14.460   6.056  0.1662 -0.1530 -0.0465
32992ION     NA49466  15.514   3.719  11.145  0.2384  0.1596 -0.1050
32993ION     NA49467   1.962   8.395  10.615  0.4822  0.2923 -0.1181
32994ION     NA49468  13.548  11.281  10.892  0.0884 -0.2138 -0.1650
32995ION     NA49469   8.688  17.316  15.284 -0.3191  0.0418 -0.0781
32996ION     NA49470  11.515   3.738  16.321 -0.1255  0.2206 -0.1305
32997ION     NA49471   6.637   3.752  10.802  0.1176  0.0872 -0.1914
32998ION     NA49472   6.730  10.878   5.887  0.0777 -0.0510  0.3198
32999ION     NA49473  17.230  13.200  10.610  0.1214 -0.2559  0.0966
33000ION     NA49474   4.076  14.719  10.688  0.0518  0.0865  0.0008
33001ION     NA49475  14.800  17.782  11.130 -0.1190 -0.3752  0.1843
33002ION     NA49476  11.387   6.891  10.847  0.4016  0.1958  0.3820
33003ION     NA49477   7.604  16.960   5.688  0.0467  0.3464  0.0840
33004ION     NA49478   0.331   9.358  10.620 -0.0430 -0.0909 -0.3804
33005ION     NA49479  11.503   9.925  10.709 -0.2084 -0.3637  0.1229
33006ION     NA49480  16.482   9.313   5.875 -0.2786  0.2891 -0.1925
33007ION     NA49481  11.495  14.763  10.817  0.0296  0.2891 -0.2597
33008ION     NA49482  16.306  15.221  10.536  0.3077  0.2051  0.1359
33009ION     NA49483  14.606   6.580   6.431  0.1232  0.1638  0.0861
33010ION     NA49484   4.752   5.505   2.860  0.0968 -0.3988 -0.1959
33011ION     NA49485   2.664   9.723   2.020  0.0875  0.2026  0.0171
33012ION     NA49486   8.856  16.600  10.423  0.0607  0.4064  0.0927
33013ION     NA49487   5.728   9.026  10.732  0.0189  0.1612  0.0132
33014ION     NA49488   0.261   7.467  10.715 -0.0089  0.2334 -0.2894
33015ION     NA49489  13.245   9.575  10.731 -0.2455 -0.0486  0.0172
33016ION     NA49490   1.206   1.481  10.792  0.0861  0.0510  0.1116
33017ION     NA49491   2.391  12.750   9.927  0.1015  0.1136  0.3294
33018ION     NA49492   4.786   5.283   6.238  0.0780  0.0778 -0.0271
33019ION     NA49493  14.757  12.145  10.594  0.0437 -0.0529  0.0970
33020ION     NA49494   0.919   8.145   1.016 -0.0260 -0.2896 -0.0408
33021ION     NA49495   1.719  12.630  11.127  0.1050 -0.1491  0.1827
33022ION     NA49496   3.518   1.930  11.013 -0.0865  0.0808  0.0878
33023ION     NA49497   4.090   3.758  14.913  0.1212 -0.1665 -0.0434
33024ION     NA49498   1.850  17.131  10.799  0.0603  0.4489 -0.0233
33025ION     NA49499  10.451   8.540  10.855 -0.1197 -0.2377  0.2292
33026ION     NA49500   1.330  15.642  10.840  0.1437 -0.0774  0.2123
33027ION     NA49501  12.339   4.529   5.471  0.2037 -0.1813 -0.3216
33028ION     NA49502  13.367   0.792   2.866 -0.1275  0.2232 -0.0795
33029ION     NA49503   9.534   3.524  11.709 -0.0007 -0.1787 -0.1959
33030ION     NA49504  11.982  11.795  11.078  0.3381  0.0748 -0.1176
33031ION     NA49505   9.153   1.819   6.224 -0.0810  0.2539  0.0561
33032ION     NA49506   8.943   0.038  13.681 -0.0192 -0.0684  0.1310
33033ION     NA49507  10.785   2.773   4.958 -0.0003 -0.4026  0.2300
33034ION     NA49508  16.437  17.045   6.004 -0.1836 -0.0875 -0.2591
33035ION     NA49509   1.892   4.045  13.411 -0.0612  0.1525  0.3170
33036ION     NA49510   9.014  13.148  10.949 -0.2027  0.2211  0.2039
33037ION     NA49511   9.554   3.683  10.859  0.0480  0.4193  0.2238
33038ION     NA49512   2.719   2.307  11.184  0.1539  0.1358 -0.1424
33039ION     NA49513  13.207   3.050  10.984 -0.0168  0.1319  0.3613
33040ION     NA49514   3.964  17.825   6.288 -0.0939  0.2564 -0.2287
33041ION     NA49515   2.310   6.560  10.717 -0.0569  0.1463 -0.3527
33042ION     NA49516   6.403  11.655   0.776  0.1372  0.1428  0.0322
33043ION     NA49517   4.362   8.170  10.659  0.0553 -0.1038 -0.0280
33044ION     NA49518   6.475  14.734  10.707  0.2089 -0.4013  0.1043
33045ION     NA49519   3.540   7.579  10.663 -0.1557 -0.1874  0.0499
33046ION     NA49520  10.524   6.767  10.696 -0.1010 -0.0057 -0.0431
33047ION     NA49521   6.727  15.160  10.615 -0.0453 -0.1168 -0.0035
33048ION     NA49522   2.845  17.527  11.489 -0.0275  0.0510  0.1778
33049ION     NA49523  13.564   3.528   4.176  0.0901 -0.0406  0.0447
33050ION     NA49524   6.306   7.152  15.007 -0.1071 -0.1737  0.0466
33051ION     NA49525   1.744   2.200  11.113  0.0098 -0.1684  0.1431
33052ION     NA49526  13.533   6.340  10.970 -0.1874 -0.0293 -0.0193
33053ION     NA49527   8.254  11.268  10.763 -0.0245 -0.1552  0.2687
33054ION     NA49528   7.488   6.197   5.758  0.0761 -0.2721  0.0618
33055ION     NA49529  15.987  13.740  10.696 -0.1629 -0.0874 -0.1450
33056ION     NA49530  14.285   7.185   1.599 -0.0292 -0.2912  0.1785
33057ION     NA49531  15.710  13.012  10.541 -0.0778 -0.2308 -0.1476
33058ION     NA49532   6.908  11.603  10.638 -0.3038 -0.2268  0.3356
33059ION     NA49533   8.670   4.633  10.867 -0.0860 -0.1124  0.0472
33060ION     NA49534  17.654  11.680   5.716  0.1223 -0.1540  0.0253
33061ION     NA49535   4.036   1.726  11.040 -0.0867  0.2090  0.1162
33062ION     NA49536  13.635  12.207  16.616  0.3640  0.2293 -0.1036
33063ION     NA49537   1.528   1.504   1.777 -0.0787 -0.0118  0.0488
33064ION     NA49538   4.949   2.984  11.066 -0.2380 -0.3678  0.2082
33065ION     NA49539   9.545  10.153   1.880  0.2752 -0.2496  0.2971
33066ION     NA49540   1.093   7.995  10.836 -0.1680 -0.0441 -0.0881
33067ION     NA49541  15.790   0.873  11.120 -0.2841  0.0989 -0.1578
33068ION     NA49542  11.587  16.086  10.423 -0.0017 -0.0557  0.4599
33069ION     NA49543   1.943   7.463  10.605 -0.1846 -0.4374  0.1581
33070ION     NA49544   9.225   3.319   6.202 -0.0983 -0.2315 -0.2212
33071ION     NA49545   7.937  17.690   6.279 -0.1042  0.0407  0.0285
33072ION     NA49546  15.109   7.732   4.475  0.1075 -0.1095  0.0189
33073ION     NA49547  14.685  13.318  10.776 -0.1228 -0.0569 -0.0953
33074ION     NA49548  15.008   1.061  11.129 -0.3320  0.0063  0.0731
33075ION     NA49549  10.464   6.526   6.144 -0.2129  0.0891 -0.3592
33076ION     NA49550   7.354  16.429  10.544 -0.0876  0.0590 -0.1689
33077ION     NA49551  13.839   2.919  11.186 -0.2849 -0.1699  0.2640
33078ION     NA49552   7.247  11.233  15.746 -0.0400 -0.0322  0.1091
33079ION     NA49553   2.712   0.434  13.670 -0.0358  0.0749 -0.0763
33080ION     NA49554   6.603   9.563  10.823 -0.2963 -0.0144  0.0379
33081ION     NA49555  15.633   9.207   6.006  0.0303  0.0518  0.1924
33082ION     NA49556   8.539  15.690  10.584  0.1605  0.0838  0.1153
33083ION     NA49557  16.715  16.600   2.101  0.1368 -0.1485  0.2189
33084ION     NA49558   3.812  11.905  10.115 -0.3123 -0.1520 -0.2077
33085ION     NA49559   8.765   8.905  10.995 -0.2869 -0.0748 -0.0058
33086ION     NA49560   9.566  10.406   3.047  0.2633 -0.1374 -0.1102
33087ION     NA49561   1.106   9.293   4.801  0.0850  0.3006 -0.1004
33088ION     NA49562   1.151   8.326  13.026 -0.1344 -0.2704 -0.2570
33089ION     NA49563   5.646   9.557  10.760  0.1771 -0.0544 -0.0586
33090ION     NA49564  12.492  14.852  10.638 -0.0825 -0.1859  0.0225
33091ION     NA49565   2.304   1.447  11.162  0.2661 -0.2249 -0.2259
33092ION     NA49566   7.460   4.750  13.728 -0.0463  0.1510  0.1886
33093ION     NA49567   7.457   7.086  11.060 -0.1027 -0.1898  0.2968
33094ION     NA49568   9.478  12.937  10.873 -0.0666 -0.0726 -0.2050
33095ION     NA49569  16.177  10.155   5.381 -0.1438 -0.1201  0.0886
33096ION     NA49570  10.218   7.518  11.014 -0.1218 -0.1476  0.1091
33097ION     NA49571   6.963   6.827  11.134  0.1486  0.1460  0.1283
33098ION     NA49572   6.432   9.407  11.837 -0.1376  0.2627 -0.0279
33099ION     NA49573  11.322  15.640  10.337  0.1143 -0.2147 -0.0306
33100ION     NA49574   8.103   8.269  11.183 -0.2269  0.2120 -0.1628
33101ION     NA49575   0.790  15.831   6.111  0.2562  0.3102  0.2426
33102ION     NA49576   5.848   2.352  10.878  0.0946  0.3221  0.3163
33103ION     NA49577  15.865  16.705   2.381  0.1269 -0.1047 -0.1880
33104ION     NA49578   0.633   6.693  10.871 -0.1044  0.1677  0.3255
33105ION     NA49579  17.793  10.191  15.444  0.1828 -0.0718 -0.1025
33106ION     NA49580  13.212   1.566   6.284 -0.0836  0.2910  0.0276
33107ION     NA49581   2.234   9.564  10.529  0.2123  0.0844 -0.2487
33108ION     NA49582  15.658   8.116   0.760 -0.0882  0.0339  0.0870
33109ION     NA49583  10.666  16.440  10.459 -0.1598 -0.1399 -0.1436
33110ION     NA49584  14.046   3.584  11.194 -0.0593  0.0641  0.0705
33111ION     NA49585   4.647  12.699   4.735  0.1150  0.1225 -0.1962
33112ION     NA49586  10.489  17.341  10.529  0.0220  0.1085  0.1151
33113ION     NA49587   5.736   1.326   6.166 -0.2478  0.1921  0.1800
33114ION     NA49588  12.988   5.546  11.230  0.0918 -0.1137 -0.3508
33115ION     NA49589   1.437   6.272  11.033 -0.0433  0.1750 -0.1809
33116ION     NA49590  10.124  11.665  13.588  0.3568  0.1366 -0.3514
33117ION     NA49591  17.702   9.261  11.528 -0.1697  0.1132 -0.0731
33118ION     NA49592   3.225   6.615  10.864 -0.0510  0.0542 -0.2454
33119ION     NA49593   5.385  15.943  10.853 -0.1355 -0.0343  0.1290
33120ION     NA49594  16.669   9.267  10.798 -0.3453 -0.2269  0.1513
33121ION     NA49595  11.134   9.976  16.442  0.0659  0.1960 -0.2947
33122ION     NA49596  12.077  10.612  10.670  0.0676 -0.3311 -0.0429
33123ION     NA49597   7.807  16.335   3.788  0.1608 -0.2210  0.2468
33124ION     NA49598   9.946   0.143  15.071 -0.2326 -0.0619  0.0648
33125ION     NA49599  14.850   3.346  11.280  0.1770  0.0465 -0.1593
33126ION     NA49600  10.989   1.028  10.726 -0.0968  0.3104  0.5144
33127ION     NA49601   7.339   8.131  10.965  0.0170  0.1493 -0.0414
33128ION     NA49602  15.072   8.273  10.883 -0.1512 -0.1160  0.2732
33129ION     NA49603   5.156   1.212  14.222 -0.0709 -0.1872 -0.1175
33130ION     NA49604  17.640  14.547  10.405  0.0100 -0.0527  0.2025
33131ION     NA49605  15.731   3.423  16.763  0.1256 -0.0411 -0.0180
33132ION     NA49606   2.378   7.612   5.025  0.1673  0.0046 -0.1032
  17.82918  17.82918  16.93029
