INSANE! Membrane UpperLeaflet>loPI:POPI:DPPI:PYPI:ERGO=180.0:5.0:3.0:2.0:10.0 LowerLeaflet>PSPI:POPI:POPS:YOPS:POPE:YOPE:POPC:YOPC:ERGO=6.0:14.0:21.0:9.0:9.0:21.0:12.0:48.0:60.0
49606
    1loPI    C1    1  14.124   1.907  10.558 -0.0220  0.0736 -0.1347
    1loPI    C2    2  14.060   2.136  10.879  0.1995  0.0603 -0.0793
    1loPI    C3    3  13.842   1.805  10.823  0.1614  0.0611  0.0585
    1loPI   PO4    4  14.015   2.060  10.360 -0.1546  0.1914  0.0037
    1loPI   GL1    5  13.666   2.185  10.050 -0.0249 -0.1597 -0.0930
    1loPI   GL2    6  13.826   2.378   9.875  0.1520 -0.2433 -0.2088
    1loPI   C1A    7  13.728   1.958   9.660 -0.2650  0.1675  0.1516
    1loPI   C2A    8  13.761   1.869   9.293  0.2042  0.1550  0.0118
    1loPI   C3A    9  13.665   1.865   8.921 -0.1851  0.4591 -0.0413
    1loPI   C4A   10  13.725   1.885   8.466  0.1520  0.0770 -0.3161
    1loPI   C5A   11  13.540   1.773   8.133 -0.1857  0.2004  0.3598
    1loPI   C6A   12  13.291   1.747   7.764  0.1303  0.1070 -0.0961
    1loPI   C1B   13  13.708   2.379   9.364 -0.0853  0.0447  0.3113
    1loPI   C2B   14  13.769   2.340   8.989 -0.1022  0.1051  0.0975
    1loPI   C3B   15  13.729   2.369   8.581 -0.2332 -0.0517 -0.0960
    1loPI   C4B   16  13.761   2.345   8.196 -0.1387 -0.0055 -0.0679
    2loPI    C1   17  15.470   4.118  10.357 -0.0862 -0.0421 -0.1815
    2loPI    C2   18  15.702   4.130  10.683 -0.0760  0.0680 -0.1925
    2loPI    C3   19  15.338   4.296  10.690 -0.1681 -0.1328 -0.1654
    2loPI   PO4   20  15.617   3.772  10.319 -0.1499 -0.2129  0.0142
    2loPI   GL1   21  15.530   3.519  10.015  0.0503 -0.1957 -0.1359
    2loPI   GL2   22  15.621   3.244  10.045  0.2205  0.1167 -0.3543
    2loPI   C1A   23  15.699   3.461   9.619  0.1664 -0.2283  0.0632
    2loPI   C2A   24  15.705   3.175   9.221 -0.4374  0.3420 -0.1205
    2loPI   C3A   25  15.754   3.058   8.799 -0.0404  0.1819 -0.2655
    2loPI   C4A   26  15.891   3.024   8.314  0.0592 -0.2817  0.1538
    2loPI   C5A   27  15.589   3.223   8.021  0.1902 -0.0884  0.0746
    2loPI   C6A   28  15.105   3.387   7.960 -0.2524  0.2344  0.1100
    2loPI   C1B   29  15.578   3.002   9.662 -0.0399 -0.1565 -0.1108
    2loPI   C2B   30  15.619   2.666   9.386 -0.3237  0.0511 -0.0721
    2loPI   C3B   31  15.736   2.506   8.986  0.3758 -0.1426  0.3007
    2loPI   C4B   32  15.861   2.563   8.529 -0.0977 -0.2318 -0.0569
    3loPI    C1   33   6.363  14.893  11.154  0.3195 -0.2359  0.0827
    3loPI    C2   34   6.204  15.102  11.455  0.2731 -0.1578  0.0042
    3loPI    C3   35   6.352  14.737  11.522 -0.0284 -0.2722  0.0602
    3loPI   PO4   36   6.325  15.033  10.878 -0.0290 -0.2361  0.2020
    3loPI   GL1   37   6.227  14.941  10.520  0.0627 -0.1075  0.0496
    3loPI   GL2   38   6.312  15.062  10.350 -0.1825  0.1241 -0.0595
    3loPI   C1A   39   5.969  14.746  10.124 -0.3052  0.2987  0.4372
    3loPI   C2A   40   5.954  14.744   9.674  0.2534 -0.0157 -0.2755
    3loPI   C3A   41   6.011  14.720   9.213 -0.0503  0.3232 -0.2386
    3loPI   C4A   42   6.009  14.740   8.751 -0.3003 -0.0985 -0.0201
    3loPI   C5A   43   5.874  14.904   8.444  0.1356  0.1313 -0.1496
    3loPI   C6A   44   5.743  15.025   8.103  0.0595  0.2118 -0.1356
    3loPI   C1B   45   6.402  15.491  10.127 -0.2245  0.2175 -0.2412
    3loPI   C2B   46   6.539  15.453   9.739 -0.0842  0.1518  0.1928
    3loPI   C3B   47   6.459  15.486   9.365 -0.2494  0.2849  0.1719
    3loPI   C4B   48   6.561  15.486   8.885  0.1422 -0.3788 -0.1025
    4loPI    C1   49  14.016   4.525   9.777 -0.3100  0.0371  0.0618
    4loPI    C2   50  13.985   4.133   9.851  0.1673 -0.0502 -0.1569
    4loPI    C3   51  14.275   4.347  10.024 -0.2246  0.2613  0.1361
    4loPI   PO4   52  13.975   4.472   9.463  0.1928  0.2568 -0.3277
    4loPI   GL1   53  14.080   4.620   9.143  0.1408  0.1557 -0.0239
    4loPI   GL2   54  14.353   4.561   9.023  0.5308  0.2231 -0.2446
    4loPI   C1A   55  13.875   4.642   8.780 -0.2190  0.0288  0.0924
    4loPI   C2A   56  13.757   4.525   8.382 -0.0913  0.1208 -0.1294
    4loPI   C3A   57  13.567   4.554   8.060 -0.1021 -0.0734  0.1214
    4loPI   C4A   58  13.403   4.746   7.639  0.2286 -0.2592 -0.0119
    4loPI   C5A   59  13.429   4.938   7.255 -0.0154 -0.3442 -0.1643
    4loPI   C6A   60  13.348   5.010   6.822 -0.1971 -0.0274  0.1205
    4loPI   C1B   61  14.379   4.531   8.631 -0.2641 -0.4319 -0.1766
    4loPI   C2B   62  14.239   4.458   8.166  0.4791 -0.3114  0.0062
    4loPI   C3B   63  14.131   4.321   7.760  0.1856  0.0034 -0.1687
    4loPI   C4B   64  13.740   4.294   7.545 -0.0704  0.1790  0.1088
    5loPI    C1   65   7.977  10.830  10.642  0.0262 -0.0767  0.0031
    5loPI    C2   66   8.314  10.640  10.743  0.2189  0.0999 -0.2923
    5loPI    C3   67   8.014  10.670  11.007  0.3361 -0.2702 -0.1104
    5loPI   PO4   68   7.961  10.711  10.296 -0.0450 -0.2588  0.1114
    5loPI   GL1   69   7.618  10.758  10.092 -0.2623 -0.3726  0.5057
    5loPI   GL2   70   7.329  10.716   9.923 -0.1036 -0.0669 -0.0817
    5loPI   C1A   71   7.672  10.367   9.692 -0.0473 -0.0225 -0.2712
    5loPI   C2A   72   7.764  10.391   9.176  0.2919 -0.2620  0.0389
    5loPI   C3A   73   7.646  10.457   8.819 -0.1049 -0.2444 -0.2015
    5loPI   C4A   74   7.739  10.472   8.454  0.5570 -0.1189  0.2535
    5loPI   C5A   75   7.743  10.705   8.098 -0.1197  0.1487 -0.0753
    5loPI   C6A   76   7.755  11.138   7.870  0.0515 -0.0090  0.1791
    5loPI   C1B   77   7.377  10.698   9.445  0.0188 -0.2488 -0.1185
    5loPI   C2B   78   7.343  10.831   9.099 -0.0193 -0.1422  0.1485
    5loPI   C3B   79   7.416  10.863   8.687 -0.1175  0.1093 -0.3863
    5loPI   C4B   80   7.405  10.978   8.291  0.2057 -0.0700  0.0650
    6loPI    C1   81  12.096   4.796  10.172 -0.2548 -0.2582 -0.2032
    6loPI    C2   82  12.314   4.665   9.863 -0.0147 -0.2043 -0.0592
    6loPI    C3   83  12.476   4.915  10.131 -0.3448  0.0731 -0.1114
    6loPI   PO4   84  11.802   4.846  10.076 -0.0570 -0.2105 -0.0076
    6loPI   GL1   85  11.438   4.843   9.666 -0.0456 -0.1956 -0.2720
    6loPI   GL2   86  11.355   4.645   9.757 -0.3400 -0.1782 -0.1079
    6loPI   C1A   87  11.338   5.017   9.320  0.1502 -0.2776 -0.1154
    6loPI   C2A   88  11.213   4.919   8.945  0.5613  0.1102 -0.1933
    6loPI   C3A   89  11.160   4.838   8.503 -0.0689  0.1109  0.1094
    6loPI   C4A   90  10.907   4.879   8.125 -0.3178 -0.0414  0.0757
    6loPI   C5A   91  11.156   5.008   7.722  0.3724  0.0651  0.0935
    6loPI   C6A   92  11.407   5.264   7.436 -0.1873  0.1617 -0.2129
    6loPI   C1B   93  11.595   4.459   9.378  0.1364  0.1342  0.2745
    6loPI   C2B   94  11.632   4.517   8.941 -0.1975 -0.0010  0.0520
    6loPI   C3B   95  11.652   4.506   8.521 -0.1177 -0.0141 -0.0600
    6loPI   C4B   96  11.496   4.604   8.043 -0.1716 -0.0931  0.1609
    7loPI    C1   97   8.393   9.869  10.561  0.0454 -0.0321 -0.0197
    7loPI    C2   98   8.347   9.474  10.603  0.1777 -0.0535 -0.0698
    7loPI    C3   99   8.691   9.648  10.710  0.2975 -0.0212 -0.4900
    7loPI   PO4  100   8.286   9.872  10.243  0.3401  0.1042  0.1681
    7loPI   GL1  101   8.087  10.254   9.981 -0.5499 -0.3060 -0.3669
    7loPI   GL2  102   8.513  10.224   9.902 -0.0224  0.0041 -0.2725
    7loPI   C1A  103   8.071   9.930   9.612 -0.3066 -0.2043  0.2145
    7loPI   C2A  104   8.124   9.559   9.383  0.2836  0.0350 -0.2077
    7loPI   C3A  105   8.040   9.599   8.965 -0.2624  0.3269  0.4020
    7loPI   C4A  106   7.916   9.590   8.499 -0.2351 -0.2530 -0.2292
    7loPI   C5A  107   8.167   9.620   8.109 -0.1475  0.1148 -0.1005
    7loPI   C6A  108   8.395   9.858   7.862 -0.0120  0.1564 -0.0208
    7loPI   C1B  109   8.389  10.296   9.492  0.3900 -0.0685  0.1498
    7loPI   C2B  110   8.251  10.338   9.067  0.0250  0.0179  0.1246
    7loPI   C3B  111   8.105  10.078   8.636  0.2125 -0.2837 -0.3488
    7loPI   C4B  112   7.988  10.122   8.165 -0.0052  0.1192  0.2981
    8loPI    C1  113   6.497  15.839  10.933 -0.0194  0.3224  0.1779
    8loPI    C2  114   6.651  15.863  11.301 -0.2265 -0.0196  0.2910
    8loPI    C3  115   6.272  15.973  11.235 -0.2421 -0.1182  0.2143
    8loPI   PO4  116   6.715  15.627  10.825 -0.1484 -0.0045 -0.0024
    8loPI   GL1  117   6.716  15.274  10.477  0.0212  0.0869  0.2970
    8loPI   GL2  118   6.823  15.577  10.347  0.2617 -0.2749  0.0683
    8loPI   C1A  119   6.849  15.109  10.099 -0.1841 -0.1596  0.0134
    8loPI   C2A  120   6.954  15.081   9.618 -0.0938 -0.2133 -0.0656
    8loPI   C3A  121   6.873  15.192   9.183  0.1843 -0.1700 -0.0578
    8loPI   C4A  122   6.917  15.185   8.819  0.1608 -0.0456  0.0923
    8loPI   C5A  123   6.878  14.931   8.406 -0.0909 -0.3623  0.1546
    8loPI   C6A  124   6.941  14.536   8.202 -0.1377  0.1006 -0.1970
    8loPI   C1B  125   6.958  15.582   9.995  0.1803  0.0043  0.1454
    8loPI   C2B  126   7.003  15.598   9.485  0.3920  0.0204 -0.0097
    8loPI   C3B  127   7.002  15.737   9.094  0.0609 -0.0015 -0.0432
    8loPI   C4B  128   6.987  15.757   8.594  0.0517 -0.0801  0.0153
    9loPI    C1  129   0.174  11.356  10.663 -0.1906 -0.2301  0.1651
    9loPI    C2  130  -0.043  11.547  10.940  0.0155 -0.0871  0.2310
    9loPI    C3  131   0.283  11.341  11.048 -0.0220 -0.2065  0.1192
    9loPI   PO4  132   0.311  11.630  10.526 -0.2141 -0.1516  0.1851
    9loPI   GL1  133   0.377  11.693  10.145 -0.1390  0.3929  0.1615
    9loPI   GL2  134   0.297  11.994  10.172  0.1449 -0.0438 -0.0189
    9loPI   C1A  135   0.468  11.597   9.668  0.1744 -0.0719 -0.1584
    9loPI   C2A  136   0.511  11.593   9.221 -0.0254  0.1473 -0.2133
    9loPI   C3A  137   0.459  11.637   8.843  0.2117 -0.0338 -0.2687
    9loPI   C4A  138   0.464  11.734   8.480  0.0065 -0.0780 -0.3764
    9loPI   C5A  139   0.408  11.667   8.060  0.3012  0.0064  0.1143
    9loPI   C6A  140   0.348  11.537   7.575  0.2725 -0.1783 -0.2035
    9loPI   C1B  141   0.541  12.161   9.826 -0.4038 -0.3101  0.3689
    9loPI   C2B  142   0.532  12.062   9.422 -0.2420  0.1053 -0.1075
    9loPI   C3B  143   0.514  12.129   9.026  0.1729  0.1301  0.2354
    9loPI   C4B  144   0.505  12.253   8.596 -0.1492  0.1836 -0.1802
   10loPI    C1  145  12.437  12.543  10.505  0.1456  0.1549 -0.0766
   10loPI    C2  146  12.771  12.489  10.718  0.0771  0.0208 -0.0022
   10loPI    C3  147  12.452  12.257  10.784 -0.0430  0.1714 -0.0482
   10loPI   PO4  148  12.574  12.591  10.224 -0.1438  0.0910 -0.1943
   10loPI   GL1  149  12.404  12.676   9.813 -0.0818  0.4189 -0.1491
   10loPI   GL2  150  12.142  12.502   9.849 -0.1286 -0.1056  0.0615
   10loPI   C1A  151  12.361  12.694   9.429  0.1221  0.0849  0.3893
   10loPI   C2A  152  12.419  12.665   8.948  0.2034 -0.1367  0.4730
   10loPI   C3A  153  12.329  12.649   8.481  0.1687 -0.0408  0.3769
   10loPI   C4A  154  12.179  12.772   8.115  0.2408  0.0178 -0.0232
   10loPI   C5A  155  12.183  13.175   7.987 -0.0450 -0.0587 -0.0368
   10loPI   C6A  156  12.219  13.573   7.900 -0.2578  0.0498  0.1202
   10loPI   C1B  157  11.825  12.730   9.595  0.2274 -0.2966 -0.1074
   10loPI   C2B  158  11.852  12.935   9.279 -0.1925 -0.1734  0.1775
   10loPI   C3B  159  12.062  12.980   8.892  0.1979 -0.1356  0.1607
   10loPI   C4B  160  12.086  13.152   8.463 -0.1965  0.2005 -0.0819
   11loPI    C1  161  16.411  16.133  11.201 -0.3206  0.0443 -0.0716
   11loPI    C2  162  16.353  16.227  11.586 -0.1559 -0.0667 -0.0182
   11loPI    C3  163  16.528  15.881  11.489 -0.0858  0.0155 -0.1896
   11loPI   PO4  164  16.243  16.373  11.023  0.2742  0.1017 -0.1526
   11loPI   GL1  165  15.993  16.257  10.632  0.1320  0.2228 -0.4022
   11loPI   GL2  166  16.189  16.383  10.347  0.1109  0.2025 -0.2963
   11loPI   C1A  167  15.772  16.297  10.106 -0.2023 -0.0967 -0.2560
   11loPI   C2A  168  15.838  16.288   9.653 -0.2429 -0.3934 -0.0002
   11loPI   C3A  169  15.853  16.255   9.249 -0.0858  0.1645 -0.0974
   11loPI   C4A  170  15.831  16.192   8.860  0.0733 -0.0357  0.1080
   11loPI   C5A  171  15.652  16.254   8.451  0.2826 -0.0251  0.0511
   11loPI   C6A  172  15.351  16.552   8.379 -0.1070 -0.0918 -0.1461
   11loPI   C1B  173  16.232  16.489   9.857  0.0139 -0.1832 -0.1166
   11loPI   C2B  174  16.259  16.486   9.368 -0.2397  0.3418  0.1586
   11loPI   C3B  175  16.247  16.424   8.933 -0.1231 -0.4071  0.3735
   11loPI   C4B  176  16.101  16.364   8.422 -0.1266 -0.0494  0.0018
   12loPI    C1  177  16.576   6.261  10.530  0.0171  0.1181 -0.2655
   12loPI    C2  178  16.738   6.009  10.795  0.0861  0.0586 -0.3635
   12loPI    C3  179  16.601   6.365  10.915 -0.0610 -0.0465 -0.2149
   12loPI   PO4  180  16.685   6.442  10.294  0.0645 -0.1456  0.0063
   12loPI   GL1  181  16.463   6.494   9.925 -0.1097  0.0267 -0.1414
   12loPI   GL2  182  16.298   6.210   9.798  0.0865  0.1212 -0.1797
   12loPI   C1A  183  16.483   6.622   9.477  0.2150  0.3099  0.1530
   12loPI   C2A  184  16.626   6.468   9.034  0.2128  0.2949  0.2061
   12loPI   C3A  185  16.748   6.446   8.616  0.1802  0.1727 -0.1797
   12loPI   C4A  186  16.741   6.431   8.138  0.4011 -0.3206 -0.0167
   12loPI   C5A  187  16.767   6.281   7.818  0.1269 -0.0731 -0.3770
   12loPI   C6A  188  17.032   5.863   7.745  0.1908  0.0911  0.4655
   12loPI   C1B  189  16.340   5.898   9.451  0.1931  0.2150 -0.0380
   12loPI   C2B  190  16.519   5.917   9.054 -0.2443  0.2742  0.1090
   12loPI   C3B  191  16.662   5.924   8.615 -0.2528 -0.3543 -0.0845
   12loPI   C4B  192  16.607   5.820   8.103  0.1677 -0.2078  0.1288
   13loPI    C1  193  11.305   9.348  10.279  0.0687 -0.1106 -0.0907
   13loPI    C2  194  11.523   9.153  10.552  0.0316 -0.0725 -0.0338
   13loPI    C3  195  11.545   9.552  10.524 -0.0496 -0.0662 -0.0108
   13loPI   PO4  196  11.417   9.221  10.004 -0.0333  0.1430 -0.1749
   13loPI   GL1  197  11.235   9.315   9.626 -0.0591  0.3714 -0.0138
   13loPI   GL2  198  11.115   9.054   9.544 -0.2173 -0.0275 -0.3767
   13loPI   C1A  199  11.140   9.382   9.205  0.0213 -0.1531  0.0159
   13loPI   C2A  200  11.035   9.427   8.798  0.2404 -0.1133 -0.0347
   13loPI   C3A  201  11.179   9.687   8.341  0.0471 -0.0520  0.0538
   13loPI   C4A  202  11.461   9.926   8.028  0.0102  0.1517  0.1162
   13loPI   C5A  203  11.754   9.692   7.703  0.0122 -0.3004 -0.0520
   13loPI   C6A  204  11.838   9.406   7.425  0.1379  0.0809  0.0708
   13loPI   C1B  205  11.445   8.899   9.240  0.3686  0.0316  0.2004
   13loPI   C2B  206  11.465   8.773   8.781  0.1772 -0.2915 -0.1087
   13loPI   C3B  207  11.207   8.619   8.485  0.1099 -0.0829 -0.1668
   13loPI   C4B  208  11.114   8.479   8.095 -0.0590  0.0448  0.1178
   14loPI    C1  209  16.072   4.870   9.967  0.1683  0.1823  0.0054
   14loPI    C2  210  16.238   4.606  10.218  0.0082  0.2299  0.1632
   14loPI    C3  211  16.098   4.954  10.357 -0.0837  0.2560  0.0079
   14loPI   PO4  212  16.307   4.844   9.742 -0.0450 -0.0516  0.0276
   14loPI   GL1  213  16.442   4.498   9.390  0.2034 -0.1241 -0.0173
   14loPI   GL2  214  16.372   4.789   9.265  0.1228 -0.0201  0.0023
   14loPI   C1A  215  16.343   4.334   8.861 -0.0922 -0.0665 -0.1216
   14loPI   C2A  216  16.420   4.317   8.404  0.0459 -0.0817 -0.1175
   14loPI   C3A  217  16.611   4.297   7.960  0.0988  0.1579 -0.0927
   14loPI   C4A  218  16.817   4.027   7.698  0.2095  0.1035 -0.2989
   14loPI   C5A  219  17.178   4.012   7.628 -0.1171  0.0950 -0.0279
   14loPI   C6A  220  17.548   4.168   7.456  0.2153 -0.0911 -0.3133
   14loPI   C1B  221  16.416   4.855   8.946  0.2666 -0.2148  0.0841
   14loPI   C2B  222  16.510   4.799   8.512 -0.2357  0.0190 -0.0695
   14loPI   C3B  223  16.580   4.846   8.050  0.0622  0.5893  0.2902
   14loPI   C4B  224  16.427   4.726   7.744 -0.0619  0.3460  0.1265
   15loPI    C1  225  11.768  18.364  10.946  0.0800 -0.1652 -0.0553
   15loPI    C2  226  12.025  18.667  10.899  0.0849 -0.1741 -0.0868
   15loPI    C3  227  12.074  18.408  11.200  0.0851 -0.1481 -0.0644
   15loPI   PO4  228  11.655  18.271  10.683 -0.3754 -0.0572 -0.0887
   15loPI   GL1  229  11.618  18.234  10.320 -0.0219 -0.0475 -0.2621
   15loPI   GL2  230  11.444  18.499  10.041  0.0058  0.0279 -0.1492
   15loPI   C1A  231  11.436  18.018   9.920 -0.2260 -0.2373  0.0377
   15loPI   C2A  232  11.428  18.089   9.407 -0.1910 -0.0472 -0.2403
   15loPI   C3A  233  11.470  17.959   8.925  0.1036  0.1154 -0.0458
   15loPI   C4A  234  11.487  17.938   8.553  0.0810  0.1477  0.2179
   15loPI   C5A  235  11.484  17.797   8.082 -0.3687  0.0871 -0.2631
   15loPI   C6A  236  11.416  17.898   7.641  0.2012 -0.0087  0.0144
   15loPI   C1B  237  11.535  18.546   9.626 -0.4312 -0.2875  0.3431
   15loPI   C2B  238  11.562  18.483   9.125  0.0266  0.2301 -0.1659
   15loPI   C3B  239  11.636  18.432   8.725  0.2992 -0.0440  0.0472
   15loPI   C4B  240  11.625  18.620   8.305  0.3363  0.1820  0.2310
   16loPI    C1  241   8.252   7.484  10.000  0.1343 -0.2251 -0.0605
   16loPI    C2  242   8.495   7.351   9.711 -0.0554  0.1780 -0.4169
   16loPI    C3  243   8.100   7.287   9.687 -0.0118 -0.3779  0.1044
   16loPI   PO4  244   8.335   7.707  10.022  0.0049  0.1807  0.0809
   16loPI   GL1  245   8.518   7.883   9.674 -0.0063 -0.1179  0.0617
   16loPI   GL2  246   8.626   7.915   9.427  0.0431  0.0056  0.1854
   16loPI   C1A  247   8.303   7.599   9.374  0.1683  0.2217  0.0758
   16loPI   C2A  248   8.264   7.578   8.933 -0.0396  0.0545  0.0736
   16loPI   C3A  249   8.228   7.603   8.509  0.0522 -0.1229  0.1656
   16loPI   C4A  250   8.130   7.744   8.114  0.1927 -0.3752  0.3213
   16loPI   C5A  251   8.121   7.661   7.643 -0.2795  0.1321 -0.1762
   16loPI   C6A  252   8.264   7.737   7.284 -0.3848  0.1726  0.3630
   16loPI   C1B  253   8.665   7.813   9.055 -0.2070 -0.1652  0.0460
   16loPI   C2B  254   8.619   7.888   8.662  0.2098 -0.0336  0.0044
   16loPI   C3B  255   8.646   7.848   8.278 -0.0807 -0.0368 -0.0111
   16loPI   C4B  256   8.590   7.691   7.807  0.0823  0.2907 -0.0509
   17loPI    C1  257   4.765   0.995  11.143 -0.0097 -0.2501 -0.0025
   17loPI    C2  258   4.518   1.297  11.057  0.1429 -0.1838 -0.2189
   17loPI    C3  259   4.518   1.136  11.423  0.1589  0.1716 -0.0582
   17loPI   PO4  260   4.833   0.886  10.892  0.0414 -0.0139  0.0499
   17loPI   GL1  261   4.649   0.754  10.594  0.0609 -0.0401 -0.2859
   17loPI   GL2  262   4.514   0.511  10.596  0.0557  0.1590  0.0065
   17loPI   C1A  263   4.666   0.762  10.203  0.0856  0.0356 -0.1425
   17loPI   C2A  264   4.884   0.811   9.825 -0.0917 -0.2013  0.3755
   17loPI   C3A  265   4.841   0.792   9.380 -0.0159 -0.2098 -0.2988
   17loPI   C4A  266   4.891   0.767   8.927  0.0244 -0.2627  0.2094
   17loPI   C5A  267   4.850   0.998   8.561 -0.2188 -0.3865  0.0087
   17loPI   C6A  268   4.825   0.956   8.203 -0.1048 -0.4150 -0.0339
   17loPI   C1B  269   4.726   0.246  10.335 -0.1626  0.0164  0.3837
   17loPI   C2B  270   4.691   0.332   9.810  0.0615  0.0978  0.1403
   17loPI   C3B  271   4.673   0.210   9.419  0.0720 -0.0057  0.0718
   17loPI   C4B  272   4.797   0.282   9.055  0.1072  0.2503 -0.1586
   18loPI    C1  273  15.848   7.865  10.348 -0.3402 -0.0593 -0.3229
   18loPI    C2  274  15.765   7.477  10.404  0.0046 -0.1025 -0.0803
   18loPI    C3  275  15.720   7.737  10.705  0.1103 -0.0149 -0.1391
   18loPI   PO4  276  16.006   7.850  10.113 -0.0106 -0.1112  0.2566
   18loPI   GL1  277  16.184   7.770   9.760 -0.1471 -0.3535  0.2169
   18loPI   GL2  278  16.024   7.562   9.518 -0.0500  0.0853 -0.1350
   18loPI   C1A  279  16.486   7.669   9.463  0.0734  0.3647  0.0400
   18loPI   C2A  280  16.661   7.627   9.077 -0.1079 -0.0813  0.2999
   18loPI   C3A  281  16.812   7.488   8.739  0.1413  0.2050 -0.4475
   18loPI   C4A  282  16.936   7.591   8.407 -0.2512  0.2107 -0.2059
   18loPI   C5A  283  17.078   7.420   8.040 -0.1031  0.3414  0.1361
   18loPI   C6A  284  16.965   7.293   7.575  0.0726 -0.0208  0.1409
   18loPI   C1B  285  16.135   7.594   9.110 -0.0926 -0.0050  0.0842
   18loPI   C2B  286  16.322   7.614   8.681  0.2061  0.0597 -0.0541
   18loPI   C3B  287  16.476   7.711   8.293  0.0599  0.1223 -0.0139
   18loPI   C4B  288  16.652   7.677   7.896 -0.4414 -0.1281  0.2174
   19loPI    C1  289  14.769   3.731  10.544 -0.0224  0.2211 -0.0116
   19loPI    C2  290  15.128   3.879  10.641  0.1012  0.1161 -0.2960
   19loPI    C3  291  15.001   3.537  10.806 -0.0107  0.3193  0.0516
   19loPI   PO4  292  14.776   3.708  10.247  0.1726  0.3648 -0.2381
   19loPI   GL1  293  14.950   3.503   9.901  0.0566  0.3859  0.2467
   19loPI   GL2  294  15.162   3.267   9.746 -0.3210  0.2385  0.0567
   19loPI   C1A  295  14.832   3.559   9.501  0.1280 -0.2483 -0.0067
   19loPI   C2A  296  14.813   3.430   9.106  0.0821  0.0495  0.2876
   19loPI   C3A  297  14.891   3.665   8.690  0.0170  0.2607  0.0130
   19loPI   C4A  298  14.687   3.476   8.375 -0.0453  0.2513  0.0054
   19loPI   C5A  299  14.530   3.372   7.878  0.0662  0.1001  0.0475
   19loPI   C6A  300  14.447   3.381   7.408 -0.1507  0.2278  0.1049
   19loPI   C1B  301  15.108   3.015   9.464  0.0722 -0.2411  0.4642
   19loPI   C2B  302  15.325   2.922   9.104  0.0562  0.0522 -0.1468
   19loPI   C3B  303  15.398   2.787   8.621 -0.1623 -0.0710 -0.2385
   19loPI   C4B  304  15.177   2.958   8.180  0.0300  0.0466  0.2250
   20loPI    C1  305   8.503   8.101  10.375  0.1363  0.1143  0.1410
   20loPI    C2  306   8.216   7.875  10.539  0.0165  0.0993 -0.0850
   20loPI    C3  307   8.328   8.215  10.717 -0.1120  0.0844  0.0263
   20loPI   PO4  308   8.477   8.234  10.078  0.1990  0.1476 -0.0347
   20loPI   GL1  309   8.276   8.315   9.887  0.1523  0.2188  0.0379
   20loPI   GL2  310   7.950   8.476   9.896 -0.0062  0.1104  0.0818
   20loPI   C1A  311   8.304   8.550   9.533 -0.0184 -0.1187  0.1318
   20loPI   C2A  312   8.181   8.507   9.185  0.2326 -0.1212 -0.0897
   20loPI   C3A  313   8.178   8.670   8.785  0.0493  0.0917  0.0185
   20loPI   C4A  314   7.980   8.609   8.368  0.1701 -0.1951 -0.0813
   20loPI   C5A  315   7.785   8.832   8.025  0.0170  0.0500 -0.0604
   20loPI   C6A  316   7.715   9.020   7.630  0.1745  0.1139  0.0006
   20loPI   C1B  317   7.822   8.617   9.518  0.2302  0.1034 -0.3152
   20loPI   C2B  318   7.712   8.595   9.104  0.0930  0.0363 -0.0939
   20loPI   C3B  319   7.651   8.446   8.733 -0.1900 -0.3856  0.2079
   20loPI   C4B  320   7.495   8.549   8.424 -0.0078  0.0094  0.3066
   21loPI    C1  321  15.276   1.568  10.526 -0.0746  0.1042 -0.3027
   21loPI    C2  322  14.987   1.410  10.753 -0.1109  0.0977 -0.3532
   21loPI    C3  323  15.121   1.780  10.828  0.0266  0.0159 -0.1878
   21loPI   PO4  324  15.233   1.471  10.309  0.0083  0.1009 -0.0676
   21loPI   GL1  325  15.374   1.140  10.074 -0.1151  0.1691  0.0854
   21loPI   GL2  326  15.648   1.220  10.222  0.1681 -0.1518  0.1628
   21loPI   C1A  327  15.249   1.115   9.645  0.0786 -0.2044 -0.4644
   21loPI   C2A  328  15.434   1.071   9.350  0.3780  0.0433 -0.2894
   21loPI   C3A  329  15.373   1.035   8.881  0.2701  0.1347 -0.1042
   21loPI   C4A  330  15.420   1.018   8.459  0.0709  0.0480  0.2011
   21loPI   C5A  331  15.319   0.955   7.987 -0.0328  0.0467 -0.1641
   21loPI   C6A  332  15.427   1.043   7.588 -0.1928 -0.1754 -0.0189
   21loPI   C1B  333  15.750   1.234   9.777 -0.3471  0.0472 -0.0501
   21loPI   C2B  334  15.935   1.248   9.248  0.1603 -0.2431 -0.0600
   21loPI   C3B  335  15.884   1.218   8.853 -0.3746  0.3022  0.1497
   21loPI   C4B  336  15.913   1.276   8.438 -0.1533  0.0444 -0.0633
   22loPI    C1  337   7.386   6.310  10.680  0.1035 -0.0810  0.1081
   22loPI    C2  338   7.552   5.946  10.659  0.2166 -0.0148 -0.1935
   22loPI    C3  339   7.690   6.214  10.922  0.1791 -0.1648 -0.0188
   22loPI   PO4  340   7.243   6.325  10.422 -0.0834  0.2580 -0.0833
   22loPI   GL1  341   7.097   6.252   9.980 -0.2231  0.0504 -0.2036
   22loPI   GL2  342   6.988   5.976   9.915 -0.1521  0.0882 -0.2655
   22loPI   C1A  343   6.905   6.356   9.598  0.2300 -0.0877 -0.0822
   22loPI   C2A  344   6.832   6.637   9.235 -0.1451  0.0807  0.1415
   22loPI   C3A  345   6.497   6.933   9.049  0.1921 -0.1531 -0.1458
   22loPI   C4A  346   6.420   6.994   8.632 -0.0651 -0.1655 -0.2307
   22loPI   C5A  347   6.564   6.807   8.284  0.0382 -0.1493  0.0813
   22loPI   C6A  348   6.836   6.598   8.035  0.0543 -0.1225 -0.0879
   22loPI   C1B  349   6.904   5.843   9.528  0.1764  0.0234 -0.3841
   22loPI   C2B  350   6.833   5.665   9.103  0.0926  0.3082 -0.1021
   22loPI   C3B  351   6.937   5.555   8.757 -0.0964 -0.2535  0.2224
   22loPI   C4B  352   6.825   5.563   8.417  0.1769 -0.1516 -0.0508
   23loPI    C1  353   5.000  15.760  11.164 -0.0999  0.1134 -0.0355
   23loPI    C2  354   4.752  15.674  11.466 -0.0596  0.2348  0.0330
   23loPI    C3  355   5.017  15.970  11.504  0.1799  0.0271  0.0061
   23loPI   PO4  356   4.972  15.842  10.972 -0.0353  0.1579 -0.1638
   23loPI   GL1  357   5.179  15.764  10.616  0.0979 -0.3251  0.0491
   23loPI   GL2  358   5.350  15.415  10.458 -0.0991 -0.0671 -0.1823
   23loPI   C1A  359   5.216  16.017  10.307 -0.3787  0.0717 -0.2519
   23loPI   C2A  360   5.139  16.001   9.875 -0.0693 -0.5679 -0.2107
   23loPI   C3A  361   5.107  15.951   9.432  0.2674  0.0305  0.4062
   23loPI   C4A  362   5.141  15.943   9.054 -0.4218 -0.0120 -0.1382
   23loPI   C5A  363   5.193  15.959   8.584 -0.0710 -0.0931  0.2101
   23loPI   C6A  364   5.424  16.170   8.282  0.2362 -0.4129 -0.1185
   23loPI   C1B  365   5.150  15.529  10.127 -0.0174 -0.1211  0.0547
   23loPI   C2B  366   5.106  15.456   9.738  0.1513  0.0132 -0.2518
   23loPI   C3B  367   5.132  15.387   9.383 -0.0487  0.0291 -0.3530
   23loPI   C4B  368   5.227  15.427   8.998 -0.1828  0.0441  0.1408
   24loPI    C1  369  12.352   4.099  10.110  0.0159 -0.2404  0.1107
   24loPI    C2  370  12.074   4.293  10.323 -0.2137 -0.0447 -0.3504
   24loPI    C3  371  12.457   4.409  10.339 -0.1824 -0.1923  0.1384
   24loPI   PO4  372  12.287   4.077   9.861  0.1070  0.3500 -0.2865
   24loPI   GL1  373  12.140   4.356   9.487 -0.0398 -0.2648  0.1537
   24loPI   GL2  374  11.976   4.200   9.179 -0.0416 -0.0970  0.1756
   24loPI   C1A  375  12.127   4.611   9.078 -0.2577  0.0293  0.1716
   24loPI   C2A  376  12.196   4.602   8.614  0.0296  0.1830 -0.1068
   24loPI   C3A  377  11.986   4.596   8.108  0.2313 -0.4213 -0.1232
   24loPI   C4A  378  12.096   4.586   7.621  0.3370 -0.2600  0.0181
   24loPI   C5A  379  12.455   4.595   7.371  0.1575  0.2835 -0.0497
   24loPI   C6A  380  12.760   4.618   7.139 -0.0908  0.4300 -0.2699
   24loPI   C1B  381  11.972   4.176   8.795  0.0345  0.2798 -0.1042
   24loPI   C2B  382  11.986   4.118   8.368  0.0913  0.3006  0.1989
   24loPI   C3B  383  11.966   4.130   7.885  0.1356  0.0091 -0.1427
   24loPI   C4B  384  11.858   3.806   7.551 -0.2605 -0.0211  0.1571
   25loPI    C1  385   2.564   2.688  11.143 -0.0925  0.2471 -0.0775
   25loPI    C2  386   2.836   2.958  11.255 -0.0218  0.0379  0.2675
   25loPI    C3  387   2.451   3.012  11.349 -0.0439  0.1392  0.1213
   25loPI   PO4  388   2.586   2.653  10.875 -0.0554 -0.4675 -0.2286
   25loPI   GL1  389   2.666   2.855  10.581 -0.4522  0.0878  0.0434
   25loPI   GL2  390   2.826   2.586  10.456 -0.3436  0.2245  0.1590
   25loPI   C1A  391   2.753   3.032  10.183 -0.0463  0.4466  0.0698
   25loPI   C2A  392   2.802   3.019   9.839  0.1559 -0.0376  0.1607
   25loPI   C3A  393   2.731   2.940   9.437  0.0081 -0.0410  0.1709
   25loPI   C4A  394   2.808   2.884   9.103  0.2052 -0.1502  0.1643
   25loPI   C5A  395   2.881   2.733   8.700 -0.1602 -0.0713  0.2918
   25loPI   C6A  396   3.076   2.423   8.560  0.1708  0.0064  0.1124
   25loPI   C1B  397   2.712   2.570  10.034 -0.0616 -0.2313 -0.1804
   25loPI   C2B  398   2.685   2.465   9.669 -0.1116 -0.0525 -0.0602
   25loPI   C3B  399   2.762   2.372   9.278 -0.1574  0.0224 -0.3640
   25loPI   C4B  400   2.618   2.208   8.842 -0.0511 -0.3283 -0.1993
   26loPI    C1  401   5.929   9.244  10.463  0.0855  0.1025  0.0010
   26loPI    C2  402   6.146   9.065  10.747  0.0995 -0.0958 -0.1324
   26loPI    C3  403   5.822   8.883  10.599 -0.1980  0.2241  0.1088
   26loPI   PO4  404   6.069   9.399  10.154 -0.1451 -0.0722 -0.0017
   26loPI   GL1  405   6.016   9.155   9.706 -0.0111  0.0063  0.1559
   26loPI   GL2  406   6.096   9.449   9.497 -0.0230  0.0090  0.1466
   26loPI   C1A  407   6.093   9.015   9.254 -0.0444 -0.0913 -0.0952
   26loPI   C2A  408   6.217   9.022   8.731  0.0555 -0.1245  0.1661
   26loPI   C3A  409   6.475   9.204   8.397  0.0970 -0.0025 -0.0210
   26loPI   C4A  410   6.426   9.263   8.005  0.0092  0.0512 -0.1363
   26loPI   C5A  411   6.548   9.574   7.880 -0.0935  0.0454 -0.3626
   26loPI   C6A  412   6.404  10.048   7.723  0.2400  0.1001  0.0612
   26loPI   C1B  413   6.091   9.502   8.987  0.0055 -0.1894 -0.0835
   26loPI   C2B  414   6.191   9.594   8.534 -0.1560 -0.0679  0.0422
   26loPI   C3B  415   6.087   9.625   8.169  0.0999 -0.0538  0.0042
   26loPI   C4B  416   5.741   9.548   7.951  0.0934 -0.2149  0.0517
   27loPI    C1  417  16.539   9.420  10.010  0.0421 -0.1354  0.2150
   27loPI    C2  418  16.694   9.781   9.933 -0.4197  0.0130 -0.0654
   27loPI    C3  419  16.713   9.630  10.303  0.1123  0.1520 -0.0276
   27loPI   PO4  420  16.579   9.316   9.746  0.2954  0.4061  0.2087
   27loPI   GL1  421  16.430   9.584   9.350 -0.2747  0.0826  0.1111
   27loPI   GL2  422  16.139   9.583   9.169  0.0725 -0.0294 -0.1310
   27loPI   C1A  423  16.547   9.771   8.948 -0.1386 -0.1790 -0.0931
   27loPI   C2A  424  16.815   9.760   8.654  0.1144 -0.0491 -0.0957
   27loPI   C3A  425  17.019   9.629   8.304  0.2754 -0.0648 -0.1409
   27loPI   C4A  426  17.192   9.404   7.933  0.0019  0.1728 -0.4316
   27loPI   C5A  427  17.222   9.184   7.582  0.0995  0.2013  0.0466
   27loPI   C6A  428  17.312   9.419   7.268 -0.0950 -0.1610 -0.2726
   27loPI   C1B  429  16.084   9.645   8.697 -0.1667 -0.1309 -0.1390
   27loPI   C2B  430  16.330   9.665   8.321  0.2787 -0.0262 -0.1436
   27loPI   C3B  431  16.563   9.464   8.013 -0.2039  0.0973  0.2751
   27loPI   C4B  432  16.760   9.198   7.706  0.2568  0.0880  0.0341
   28loPI    C1  433  10.323   7.522  10.223  0.2240 -0.0668  0.1423
   28loPI    C2  434  10.265   7.918  10.215  0.1181 -0.0739  0.4555
   28loPI    C3  435  10.615   7.766  10.098 -0.0320  0.0653 -0.2168
   28loPI   PO4  436  10.166   7.328  10.029 -0.2873 -0.2881 -0.0733
   28loPI   GL1  437   9.811   7.364   9.791  0.2586  0.0262  0.4012
   28loPI   GL2  438   9.499   7.310   9.612 -0.0957 -0.1187  0.1003
   28loPI   C1A  439   9.920   7.369   9.317  0.0683  0.1659  0.2768
   28loPI   C2A  440   9.844   7.341   8.871 -0.0878  0.1623 -0.1311
   28loPI   C3A  441   9.960   7.260   8.421 -0.2232  0.0047 -0.2162
   28loPI   C4A  442   9.908   7.331   7.958 -0.1269  0.3510  0.0244
   28loPI   C5A  443   9.959   7.374   7.493 -0.2030 -0.1539 -0.0812
   28loPI   C6A  444   9.572   7.568   7.339 -0.2583 -0.0378  0.1364
   28loPI   C1B  445   9.448   7.294   9.151  0.0467  0.0337 -0.1007
   28loPI   C2B  446   9.452   7.097   8.728 -0.1340  0.0300  0.0507
   28loPI   C3B  447   9.448   7.049   8.310 -0.2538 -0.1116 -0.0422
   28loPI   C4B  448   9.527   6.790   7.947 -0.1429  0.1886  0.0629
   29loPI    C1  449   8.488  17.867  11.108 -0.0305 -0.0998 -0.0449
   29loPI    C2  450   8.803  18.054  11.269  0.0428 -0.3394  0.0948
   29loPI    C3  451   8.582  17.807  11.492 -0.2516 -0.1657 -0.0000
   29loPI   PO4  452   8.328  18.086  11.048  0.0146  0.0838  0.0529
   29loPI   GL1  453   8.206  18.186  10.623  0.1448  0.1424  0.0290
   29loPI   GL2  454   7.859  18.099  10.725  0.0838  0.3362 -0.3091
   29loPI   C1A  455   8.231  18.223  10.152 -0.1643  0.2066 -0.0743
   29loPI   C2A  456   8.176  18.129   9.658 -0.1763 -0.3745 -0.2359
   29loPI   C3A  457   8.360  18.160   9.274  0.0459 -0.1788 -0.3567
   29loPI   C4A  458   8.291  18.032   8.848 -0.1490  0.1014 -0.1355
   29loPI   C5A  459   8.302  17.610   8.631 -0.2956 -0.4786 -0.1999
   29loPI   C6A  460   8.468  17.320   8.333  0.2930 -0.1680  0.1396
   29loPI   C1B  461   8.003  17.814  10.442 -0.0978 -0.0273 -0.0013
   29loPI   C2B  462   8.190  17.599  10.153  0.4007 -0.0686 -0.1468
   29loPI   C3B  463   8.230  17.667   9.712  0.0931  0.0280  0.0758
   29loPI   C4B  464   8.312  17.656   9.252 -0.2295  0.3557 -0.1040
   30loPI    C1  465   7.990  15.399  11.227 -0.2357  0.0111 -0.0371
   30loPI    C2  466   8.102  15.023  11.306  0.0724  0.1579  0.2480
   30loPI    C3  467   7.852  15.214  11.553 -0.0503  0.1566  0.1262
   30loPI   PO4  468   8.100  15.395  10.951  0.1972  0.1273 -0.3635
   30loPI   GL1  469   8.114  15.316  10.523  0.0131  0.2572 -0.3012
   30loPI   GL2  470   8.345  15.140  10.378  0.1310  0.2624  0.1768
   30loPI   C1A  471   7.920  15.526  10.162  0.0599 -0.0654 -0.2236
   30loPI   C2A  472   7.953  15.479   9.722  0.1223 -0.0469 -0.0065
   30loPI   C3A  473   7.871  15.636   9.322  0.1531  0.1756 -0.1248
   30loPI   C4A  474   7.877  15.586   8.873 -0.0428 -0.0382 -0.2042
   30loPI   C5A  475   7.779  15.608   8.475 -0.2136  0.2987 -0.2446
   30loPI   C6A  476   7.681  15.881   8.241 -0.1319  0.3260 -0.0586
   30loPI   C1B  477   8.330  15.226   9.969  0.0344 -0.2333 -0.3543
   30loPI   C2B  478   8.427  15.237   9.543  0.2751  0.3980 -0.0172
   30loPI   C3B  479   8.317  15.294   9.112 -0.2996 -0.0161  0.0867
   30loPI   C4B  480   8.293  15.289   8.661  0.3466  0.2287 -0.0994
   31loPI    C1  481  18.057   2.036  11.000  0.1451  0.2480  0.0275
   31loPI    C2  482  17.778   2.226  11.215 -0.2442 -0.0928 -0.1620
   31loPI    C3  483  17.941   1.887  11.352 -0.0880 -0.0164 -0.1563
   31loPI   PO4  484  18.049   2.267  10.757 -0.1721  0.3025 -0.2426
   31loPI   GL1  485  18.198   2.418  10.312 -0.0427  0.1626  0.1819
   31loPI   GL2  486  18.460   2.454  10.228  0.0842  0.3541 -0.0859
   31loPI   C1A  487  18.218   2.270   9.868  0.0176  0.0100  0.0575
   31loPI   C2A  488  18.362   2.334   9.464  0.0530 -0.0119  0.2098
   31loPI   C3A  489  18.443   2.202   8.981  0.0477 -0.2612  0.0185
   31loPI   C4A  490  18.529   2.145   8.518  0.3240 -0.0408 -0.0539
   31loPI   C5A  491  18.873   2.185   8.224  0.1416 -0.3493  0.3955
   31loPI   C6A  492  19.406   2.323   8.131  0.1825 -0.1086  0.1661
   31loPI   C1B  493  18.749   2.470   9.886  0.0194 -0.3433  0.1780
   31loPI   C2B  494  18.822   2.411   9.439  0.3127 -0.1879 -0.1000
   31loPI   C3B  495  19.014   2.372   9.028  0.1081 -0.0653  0.0514
   31loPI   C4B  496  19.058   2.403   8.626 -0.2232  0.3714 -0.0191
   32loPI    C1  497  14.619   1.800  10.663 -0.0091  0.0126 -0.1593
   32loPI    C2  498  14.331   1.592  10.847 -0.0446  0.0860 -0.1315
   32loPI    C3  499  14.667   1.685  11.043  0.0523 -0.1076 -0.2029
   32loPI   PO4  500  14.651   1.558  10.398  0.1255 -0.0417 -0.3563
   32loPI   GL1  501  14.824   1.566  10.043  0.2750 -0.0796  0.0601
   32loPI   GL2  502  14.763   1.824   9.880 -0.1826 -0.1419 -0.0832
   32loPI   C1A  503  14.972   1.470   9.583  0.2784 -0.0331 -0.2212
   32loPI   C2A  504  15.031   1.425   9.199 -0.0902  0.0975 -0.0614
   32loPI   C3A  505  14.929   1.351   8.712 -0.0167 -0.0290  0.0564
   32loPI   C4A  506  14.977   1.386   8.277  0.0767 -0.0128  0.1054
   32loPI   C5A  507  15.044   1.715   7.960  0.0272  0.2163  0.1478
   32loPI   C6A  508  15.262   2.066   7.901 -0.0336 -0.0754 -0.0715
   32loPI   C1B  509  14.653   1.791   9.404  0.0822 -0.2334 -0.0326
   32loPI   C2B  510  14.523   1.720   8.995  0.0552  0.0871  0.1223
   32loPI   C3B  511  14.667   1.741   8.488  0.0791 -0.0712 -0.2444
   32loPI   C4B  512  14.844   2.044   8.255 -0.0811 -0.0670 -0.1320
   33loPI    C1  513  15.132   7.371  10.038  0.1620  0.0924  0.0614
   33loPI    C2  514  14.843   7.251  10.286  0.0151  0.0111 -0.1456
   33loPI    C3  515  15.223   7.259  10.411 -0.0534 -0.0512  0.0727
   33loPI   PO4  516  14.995   7.354   9.829  0.1861 -0.1516  0.1962
   33loPI   GL1  517  14.812   7.174   9.415 -0.0254 -0.1926 -0.2733
   33loPI   GL2  518  14.595   7.232   9.402  0.1464  0.0850 -0.1136
   33loPI   C1A  519  14.894   6.995   8.989 -0.0993 -0.1354  0.0734
   33loPI   C2A  520  15.062   6.812   8.684  0.0859 -0.3114 -0.0493
   33loPI   C3A  521  15.292   6.612   8.383 -0.1113 -0.0711  0.1814
   33loPI   C4A  522  15.319   6.264   8.120  0.2850 -0.0260  0.5151
   33loPI   C5A  523  15.270   6.325   7.633  0.1570 -0.0591  0.5215
   33loPI   C6A  524  15.415   6.148   7.176 -0.0840 -0.2576  0.2365
   33loPI   C1B  525  14.559   7.549   9.008 -0.0431 -0.1386 -0.0478
   33loPI   C2B  526  14.537   7.559   8.548  0.0238 -0.2221 -0.4550
   33loPI   C3B  527  14.265   7.436   8.228 -0.0462  0.1890  0.1830
   33loPI   C4B  528  13.988   7.400   7.827  0.1096  0.2048  0.1080
   34loPI    C1  529  11.158   8.647   9.952  0.2474 -0.0874 -0.1430
   34loPI    C2  530  11.183   8.843  10.300  0.1489  0.1166 -0.2491
   34loPI    C3  531  11.148   8.445  10.297  0.0124  0.1252 -0.0217
   34loPI   PO4  532  10.888   8.639   9.806 -0.0970  0.3255  0.1461
   34loPI   GL1  533  10.772   8.420   9.500 -0.0423 -0.0392  0.0742
   34loPI   GL2  534  10.881   8.249   9.446  0.2017  0.0632 -0.2508
   34loPI   C1A  535  10.944   8.705   9.188 -0.0002 -0.2148  0.0412
   34loPI   C2A  536  10.991   8.869   8.836  0.0423 -0.2069 -0.0929
   34loPI   C3A  537  10.865   8.939   8.329  0.4033  0.2168  0.2485
   34loPI   C4A  538  10.695   8.989   7.906  0.0281 -0.0289  0.1521
   34loPI   C5A  539  10.378   8.808   7.639 -0.0309 -0.1647  0.0520
   34loPI   C6A  540  10.110   8.494   7.694 -0.2280 -0.1918 -0.0984
   34loPI   C1B  541  10.848   8.251   8.993 -0.2716  0.1640  0.2125
   34loPI   C2B  542  10.768   8.267   8.551 -0.0716 -0.4201  0.0110
   34loPI   C3B  543  10.639   8.478   8.213  0.1868 -0.0283  0.0951
   34loPI   C4B  544  10.714   8.452   7.733 -0.0041  0.0727 -0.1435
   35loPI    C1  545   9.098  14.476  10.941  0.1189  0.0526  0.0235
   35loPI    C2  546   8.714  14.587  10.960  0.1064  0.0236 -0.0567
   35loPI    C3  547   8.889  14.418  11.277  0.0998  0.1874  0.0354
   35loPI   PO4  548   9.177  14.605  10.636 -0.3501  0.0087  0.1096
   35loPI   GL1  549   9.084  14.668  10.237  0.1164  0.1333  0.0140
   35loPI   GL2  550   9.250  14.949  10.235  0.1012 -0.1047 -0.1644
   35loPI   C1A  551   9.127  14.626   9.842 -0.0026  0.1798  0.0851
   35loPI   C2A  552   9.255  14.643   9.458 -0.4266 -0.1939 -0.1376
   35loPI   C3A  553   9.146  14.631   9.140 -0.2779  0.0305 -0.0185
   35loPI   C4A  554   9.137  14.622   8.742 -0.2361  0.0287 -0.0729
   35loPI   C5A  555   9.042  14.708   8.364  0.3486 -0.2572  0.4629
   35loPI   C6A  556   8.586  14.957   8.350 -0.0123 -0.0519 -0.0164
   35loPI   C1B  557   9.239  15.108   9.800  0.0645 -0.2221 -0.1258
   35loPI   C2B  558   9.375  15.136   9.381  0.1004 -0.1493  0.0716
   35loPI   C3B  559   9.208  15.122   8.986  0.0573 -0.0145 -0.0273
   35loPI   C4B  560   9.227  15.214   8.538 -0.0966 -0.0833 -0.0545
   36loPI    C1  561  12.569   2.845  10.260  0.0543  0.0402  0.1541
   36loPI    C2  562  12.787   2.666   9.977 -0.2357 -0.1858  0.0690
   36loPI    C3  563  12.946   2.962  10.194  0.0308 -0.0950 -0.2421
   36loPI   PO4  564  12.350   2.849  10.090  0.4113 -0.0888 -0.1402
   36loPI   GL1  565  12.255   2.553   9.872 -0.1598 -0.0076  0.1369
   36loPI   GL2  566  12.218   2.197   9.734  0.5067 -0.2862 -0.2075
   36loPI   C1A  567  12.597   2.454   9.553 -0.0474 -0.2755 -0.3027
   36loPI   C2A  568  12.430   2.270   9.205 -0.0369 -0.0032 -0.0177
   36loPI   C3A  569  12.278   2.221   8.742 -0.0892  0.0836  0.1186
   36loPI   C4A  570  12.221   2.300   8.327  0.1355  0.1783  0.1239
   36loPI   C5A  571  12.236   2.228   7.891  0.3457 -0.1286  0.1912
   36loPI   C6A  572  12.351   2.256   7.427  0.0406  0.0488 -0.1398
   36loPI   C1B  573  11.988   2.115   9.351 -0.2116 -0.1148 -0.2136
   36loPI   C2B  574  11.817   2.064   8.941  0.1229  0.1384  0.0073
   36loPI   C3B  575  11.737   2.094   8.561  0.0916  0.1089  0.2104
   36loPI   C4B  576  11.754   2.180   8.077 -0.1706  0.0559  0.2845
   37loPI    C1  577   3.079  18.381  11.176 -0.1820  0.0530 -0.0679
   37loPI    C2  578   2.768  18.413  11.427 -0.0310 -0.0447  0.1343
   37loPI    C3  579   3.141  18.400  11.571  0.0707  0.1123 -0.1094
   37loPI   PO4  580   3.138  18.556  11.008 -0.0913 -0.4624  0.1835
   37loPI   GL1  581   3.206  18.668  10.617  0.2371 -0.2470  0.1753
   37loPI   GL2  582   2.785  18.412  10.571  0.1889  0.0574 -0.1542
   37loPI   C1A  583   3.331  18.586  10.147 -0.0201  0.2459  0.1647
   37loPI   C2A  584   3.321  18.600   9.742  0.0594  0.0470 -0.1094
   37loPI   C3A  585   3.259  18.597   9.360  0.0241  0.0712  0.1857
   37loPI   C4A  586   3.430  18.509   8.886  0.1167 -0.3778 -0.0598
   37loPI   C5A  587   3.395  18.644   8.477 -0.0363  0.1667  0.2056
   37loPI   C6A  588   3.189  18.834   8.130 -0.2005  0.0143 -0.0272
   37loPI   C1B  589   2.726  18.408  10.082 -0.1091  0.0276 -0.2330
   37loPI   C2B  590   2.787  18.429   9.636  0.1830  0.1764 -0.0179
   37loPI   C3B  591   2.807  18.347   9.254 -0.3379  0.1279  0.1523
   37loPI   C4B  592   2.861  18.374   8.756  0.1599  0.2128  0.0620
   38loPI    C1  593   5.693  14.315  11.084 -0.2458 -0.1473  0.0123
   38loPI    C2  594   5.467  14.126  11.354 -0.1118 -0.1026  0.1571
   38loPI    C3  595   5.723  14.411  11.471  0.1023 -0.2318  0.0097
   38loPI   PO4  596   5.497  14.373  10.859  0.0114 -0.2765  0.0048
   38loPI   GL1  597   5.331  14.540  10.474 -0.0694 -0.4030  0.1718
   38loPI   GL2  598   5.565  14.481  10.381 -0.1250  0.0926 -0.0089
   38loPI   C1A  599   5.057  14.393  10.165 -0.0633 -0.1309 -0.3267
   38loPI   C2A  600   5.067  14.377   9.725 -0.0297  0.3305  0.0241
   38loPI   C3A  601   4.958  14.358   9.390 -0.0572  0.0640 -0.0007
   38loPI   C4A  602   5.038  14.395   9.009  0.0216 -0.0652 -0.0707
   38loPI   C5A  603   5.049  14.289   8.637 -0.0262 -0.2056 -0.0570
   38loPI   C6A  604   5.341  14.135   8.366  0.3094 -0.0529 -0.0113
   38loPI   C1B  605   5.468  14.632   9.944 -0.0486 -0.0407  0.3461
   38loPI   C2B  606   5.522  14.592   9.480 -0.0372 -0.0312 -0.1800
   38loPI   C3B  607   5.467  14.576   9.052 -0.0532  0.0473  0.1637
   38loPI   C4B  608   5.453  14.570   8.508 -0.1470 -0.0296 -0.1416
   39loPI    C1  609  15.092  10.154  10.027 -0.3359 -0.0999 -0.0904
   39loPI    C2  610  14.773  10.095  10.262  0.0226  0.0430  0.4517
   39loPI    C3  611  15.135   9.974  10.382  0.2278  0.1781 -0.0075
   39loPI   PO4  612  14.853  10.169   9.777  0.1679 -0.0438  0.0321
   39loPI   GL1  613  14.834  10.032   9.413  0.0208 -0.4039 -0.1106
   39loPI   GL2  614  14.554  10.134   9.262  0.0865  0.1262  0.1759
   39loPI   C1A  615  15.064  10.100   8.994  0.3720  0.0540 -0.0956
   39loPI   C2A  616  14.911   9.969   8.556  0.0059 -0.1719  0.0465
   39loPI   C3A  617  14.853   9.979   8.105 -0.1806  0.1940 -0.1881
   39loPI   C4A  618  15.012   9.938   7.780 -0.0779  0.0639  0.0821
   39loPI   C5A  619  14.992   9.658   7.429 -0.1063 -0.0117 -0.2326
   39loPI   C6A  620  14.682   9.397   7.397  0.2389  0.2570 -0.1449
   39loPI   C1B  621  14.521  10.107   8.835 -0.0192 -0.2399  0.3399
   39loPI   C2B  622  14.436  10.096   8.399 -0.1777 -0.0886 -0.1577
   39loPI   C3B  623  14.359  10.272   7.963  0.2803 -0.0051  0.1064
   39loPI   C4B  624  14.462  10.360   7.628 -0.0112  0.0970 -0.1107
   40loPI    C1  625   3.673   8.952  10.605  0.0568  0.2977 -0.0279
   40loPI    C2  626   3.399   9.096  10.858 -0.2292 -0.0314 -0.1413
   40loPI    C3  627   3.655   8.814  10.980 -0.2043 -0.0119 -0.1486
   40loPI   PO4  628   3.833   9.267  10.519  0.0348  0.1225  0.1606
   40loPI   GL1  629   3.992   9.285  10.120  0.0141 -0.2503 -0.1048
   40loPI   GL2  630   3.675   9.072  10.078  0.2244 -0.0396 -0.0016
   40loPI   C1A  631   4.167   9.274   9.743 -0.1066 -0.1439  0.2778
   40loPI   C2A  632   4.176   9.291   9.385  0.2083 -0.0663  0.0746
   40loPI   C3A  633   4.308   9.307   8.923  0.1500  0.3083 -0.1987
   40loPI   C4A  634   4.296   9.286   8.425  0.0373  0.0350 -0.1234
   40loPI   C5A  635   4.177   9.268   8.006  0.2888  0.1456 -0.1492
   40loPI   C6A  636   3.709   9.201   7.866  0.4055 -0.0041  0.2898
   40loPI   C1B  637   3.689   9.141   9.606 -0.2605  0.0289  0.0949
   40loPI   C2B  638   3.767   9.113   9.117  0.0092 -0.0746 -0.1295
   40loPI   C3B  639   3.899   9.059   8.722  0.1400 -0.0528 -0.1931
   40loPI   C4B  640   3.776   9.167   8.342 -0.1536  0.5089  0.2661
   41loPI    C1  641  16.306   1.188  10.882  0.0468 -0.0904  0.1326
   41loPI    C2  642  16.405   1.419  11.194 -0.1454  0.1331  0.0313
   41loPI    C3  643  16.084   1.180  11.215  0.0711 -0.1539  0.1472
   41loPI   PO4  644  16.285   1.370  10.614  0.0622  0.0494  0.0204
   41loPI   GL1  645  16.327   1.374  10.167  0.0989  0.1890 -0.0615
   41loPI   GL2  646  16.421   1.716   9.992  0.1949  0.1347 -0.0998
   41loPI   C1A  647  16.204   1.060   9.858 -0.0850  0.0997  0.3803
   41loPI   C2A  648  16.308   0.954   9.454  0.0302 -0.0294  0.0591
   41loPI   C3A  649  16.303   0.887   9.075  0.0075  0.1430 -0.0529
   41loPI   C4A  650  16.454   0.783   8.676  0.1395  0.0729 -0.3006
   41loPI   C5A  651  16.800   0.437   8.492 -0.1277 -0.3995 -0.1100
   41loPI   C6A  652  17.191   0.437   8.282 -0.1830  0.0838 -0.3002
   41loPI   C1B  653  16.406   1.607   9.689 -0.2565  0.1857 -0.3316
   41loPI   C2B  654  16.395   1.479   9.286  0.2275  0.1388  0.1062
   41loPI   C3B  655  16.482   1.384   8.935  0.2715 -0.0689 -0.3994
   41loPI   C4B  656  16.435   1.308   8.535 -0.4778 -0.2135  0.1587
   42loPI    C1  657   7.412   0.998  11.089  0.1662  0.1413  0.2370
   42loPI    C2  658   7.766   0.990  11.275  0.1558  0.2765  0.2640
   42loPI    C3  659   7.435   1.085  11.479  0.0486 -0.1982  0.3232
   42loPI   PO4  660   7.447   1.029  10.879  0.3179  0.0562  0.1268
   42loPI   GL1  661   7.248   1.048  10.498 -0.1135 -0.2109 -0.3276
   42loPI   GL2  662   7.008   0.976  10.252 -0.0091 -0.3314  0.0561
   42loPI   C1A  663   7.551   1.010  10.103  0.3524  0.0894  0.3914
   42loPI   C2A  664   7.523   1.050   9.746 -0.0286  0.0908 -0.1099
   42loPI   C3A  665   7.505   1.037   9.315  0.0881  0.4847 -0.1304
   42loPI   C4A  666   7.542   0.911   8.925 -0.3390 -0.1506  0.0507
   42loPI   C5A  667   7.673   0.758   8.480 -0.0729  0.0442  0.1894
   42loPI   C6A  668   7.549   0.761   8.085 -0.0316  0.1250 -0.1673
   42loPI   C1B  669   7.032   0.856   9.819  0.1097  0.0057 -0.1944
   42loPI   C2B  670   6.914   0.812   9.377  0.1809 -0.0547 -0.0650
   42loPI   C3B  671   7.067   0.780   9.009 -0.0122 -0.0359 -0.2752
   42loPI   C4B  672   7.203   0.660   8.548 -0.1521  0.0564  0.0103
   43loPI    C1  673  17.908   9.868   9.917  0.0181  0.0610  0.2271
   43loPI    C2  674  17.648   9.637  10.116  0.1129  0.0322  0.3187
   43loPI    C3  675  17.873   9.903  10.314  0.1076  0.1022  0.2317
   43loPI   PO4  676  17.973   9.733   9.716 -0.1596  0.1271  0.0766
   43loPI   GL1  677  18.033   9.733   9.418  0.3559  0.0418 -0.1682
   43loPI   GL2  678  17.715   9.584   9.261  0.0119 -0.0553 -0.0682
   43loPI   C1A  679  18.093   9.767   8.940  0.1470  0.0573  0.0722
   43loPI   C2A  680  18.178   9.864   8.565 -0.3623 -0.1273 -0.4291
   43loPI   C3A  681  18.265   9.960   8.198  0.3501  0.1711  0.0786
   43loPI   C4A  682  18.320  10.305   7.983  0.0940  0.1264 -0.1566
   43loPI   C5A  683  18.486  10.727   7.876 -0.3158  0.0915 -0.1618
   43loPI   C6A  684  18.957  10.650   7.518  0.3239 -0.0479 -0.2881
   43loPI   C1B  685  17.795   9.348   8.847  0.4274  0.3720  0.0228
   43loPI   C2B  686  18.049   9.302   8.472 -0.2024  0.1185  0.1743
   43loPI   C3B  687  18.126   9.454   8.008  0.0047  0.2597 -0.3819
   43loPI   C4B  688  18.110   9.860   7.694 -0.1808 -0.2258  0.1911
   44loPI    C1  689   1.017  10.462  10.411  0.3503 -0.2035 -0.0729
   44loPI    C2  690   1.054  10.117  10.610  0.0238 -0.0990  0.1788
   44loPI    C3  691   1.094  10.464  10.804 -0.1236  0.0050  0.0253
   44loPI   PO4  692   1.147  10.445  10.246  0.3096  0.0709  0.0807
   44loPI   GL1  693   1.245  10.518   9.823  0.0711 -0.0630 -0.2070
   44loPI   GL2  694   1.103  10.125   9.790  0.1136 -0.0667  0.2596
   44loPI   C1A  695   1.247  10.547   9.441 -0.0988 -0.1337 -0.0540
   44loPI   C2A  696   1.158  10.438   9.051 -0.0291  0.1373 -0.0482
   44loPI   C3A  697   1.229  10.522   8.595 -0.0011  0.0872 -0.0996
   44loPI   C4A  698   1.357  10.576   8.219 -0.2115  0.0637  0.3685
   44loPI   C5A  699   1.420  10.317   7.824 -0.0217  0.1615 -0.0457
   44loPI   C6A  700   1.200  10.238   7.402 -0.0929 -0.0338 -0.1604
   44loPI   C1B  701   1.175   9.985   9.276  0.3513 -0.2038 -0.0999
   44loPI   C2B  702   1.143   9.953   8.773  0.2770  0.0422  0.1425
   44loPI   C3B  703   1.231  10.020   8.387  0.0825  0.4627  0.0184
   44loPI   C4B  704   1.037  10.010   7.941 -0.1881 -0.1116  0.1747
   45loPI    C1  705  14.313  10.075  10.320 -0.2872  0.2114 -0.0850
   45loPI    C2  706  14.423  10.126  10.701 -0.0755  0.0297 -0.1197
   45loPI    C3  707  14.469   9.769  10.525 -0.2414  0.0924 -0.2938
   45loPI   PO4  708  14.312  10.346  10.236  0.1625 -0.1181  0.1621
   45loPI   GL1  709  14.175  10.451   9.882 -0.3866  0.0763  0.0061
   45loPI   GL2  710  14.427  10.415   9.707 -0.0668  0.3425  0.1896
   45loPI   C1A  711  13.801  10.439   9.514 -0.4798  0.1565  0.0956
   45loPI   C2A  712  13.813  10.581   9.140  0.3175  0.2791  0.2059
   45loPI   C3A  713  13.729  10.668   8.683 -0.0137  0.0037 -0.0061
   45loPI   C4A  714  13.694  11.009   8.481 -0.1257  0.0054  0.1121
   45loPI   C5A  715  13.580  11.269   8.095 -0.0047  0.3752  0.0432
   45loPI   C6A  716  13.302  11.362   7.754  0.2398  0.1998 -0.0126
   45loPI   C1B  717  14.289  10.581   9.251 -0.2292 -0.1085  0.0273
   45loPI   C2B  718  14.294  10.538   8.786 -0.2020 -0.0985 -0.2271
   45loPI   C3B  719  14.112  10.590   8.317  0.0380 -0.2872  0.0740
   45loPI   C4B  720  13.931  10.820   8.101 -0.1720 -0.2997 -0.1080
   46loPI    C1  721   6.498   8.455  10.467  0.1073  0.1849  0.0387
   46loPI    C2  722   6.217   8.199  10.593  0.1557  0.0780 -0.0695
   46loPI    C3  723   6.241   8.564  10.754 -0.0762  0.1049 -0.0931
   46loPI   PO4  724   6.495   8.429  10.224 -0.1167  0.0583 -0.1532
   46loPI   GL1  725   6.464   8.081   9.942  0.0911  0.2545  0.3038
   46loPI   GL2  726   6.474   7.747   9.824 -0.3003 -0.0751  0.2646
   46loPI   C1A  727   6.463   8.191   9.538 -0.0539 -0.2017  0.1639
   46loPI   C2A  728   6.397   8.185   9.131 -0.1102 -0.0049  0.3100
   46loPI   C3A  729   6.459   8.309   8.707  0.1472  0.0860 -0.1270
   46loPI   C4A  730   6.308   8.277   8.267 -0.0613  0.1870  0.1162
   46loPI   C5A  731   6.113   8.266   7.813  0.0561  0.1506 -0.2912
   46loPI   C6A  732   5.999   8.287   7.361 -0.1142 -0.0640 -0.2234
   46loPI   C1B  733   6.308   7.725   9.267  0.3018  0.0686 -0.1594
   46loPI   C2B  734   6.297   7.776   8.910  0.4487  0.3228 -0.1075
   46loPI   C3B  735   6.307   7.846   8.455 -0.2316 -0.0162 -0.0921
   46loPI   C4B  736   6.212   7.670   8.113 -0.0090  0.0149  0.0110
   47loPI    C1  737   5.075  15.292  11.344 -0.0142 -0.0445 -0.0198
   47loPI    C2  738   5.253  15.077  11.630 -0.0108 -0.1470 -0.0987
   47loPI    C3  739   5.011  15.379  11.729 -0.1504 -0.2948  0.0159
   47loPI   PO4  740   5.033  15.155  11.142  0.1738 -0.0861  0.0195
   47loPI   GL1  741   4.933  15.348  10.780  0.0011  0.0327  0.0229
   47loPI   GL2  742   4.958  15.096  10.631 -0.1322  0.0660 -0.1381
   47loPI   C1A  743   4.639  15.385  10.429  0.2126 -0.1224 -0.2457
   47loPI   C2A  744   4.614  15.268   9.940 -0.4698 -0.2495 -0.2584
   47loPI   C3A  745   4.635  15.284   9.524 -0.1801  0.2681 -0.0281
   47loPI   C4A  746   4.635  15.136   9.032 -0.2857  0.1054 -0.1946
   47loPI   C5A  747   4.634  15.234   8.640 -0.0841 -0.2504 -0.1146
   47loPI   C6A  748   4.892  15.224   8.305 -0.3299  0.3207  0.0618
   47loPI   C1B  749   5.072  14.972  10.220  0.0545  0.0852  0.1629
   47loPI   C2B  750   5.022  14.990   9.790 -0.1551 -0.3838  0.0502
   47loPI   C3B  751   4.974  14.856   9.363 -0.0160  0.3341 -0.4449
   47loPI   C4B  752   5.091  14.854   8.886 -0.1270  0.0531  0.0225
   48loPI    C1  753   2.924  17.830  11.519  0.1480  0.0086  0.0630
   48loPI    C2  754   2.916  18.078  11.832  0.0939 -0.1482  0.1874
   48loPI    C3  755   2.654  17.777  11.809  0.2191 -0.2505  0.0848
   48loPI   PO4  756   3.017  17.923  11.316  0.0144  0.1705 -0.1400
   48loPI   GL1  757   3.097  17.974  10.837 -0.3824  0.0503 -0.0628
   48loPI   GL2  758   3.065  17.753  10.606 -0.1129 -0.1249 -0.1809
   48loPI   C1A  759   3.218  18.142  10.394 -0.0009  0.2108 -0.0085
   48loPI   C2A  760   3.319  18.088   9.957 -0.1561  0.3333 -0.0694
   48loPI   C3A  761   3.261  18.033   9.548 -0.2710 -0.1712  0.2333
   48loPI   C4A  762   3.232  18.087   9.135 -0.0732  0.0062 -0.0009
   48loPI   C5A  763   3.282  18.076   8.707 -0.1050  0.1000  0.2693
   48loPI   C6A  764   3.117  17.703   8.459 -0.3197 -0.3125  0.2294
   48loPI   C1B  765   3.178  17.633  10.286  0.0056 -0.2431  0.0062
   48loPI   C2B  766   3.159  17.613   9.861 -0.1102  0.0841  0.3222
   48loPI   C3B  767   3.205  17.567   9.453 -0.2242 -0.1297  0.0804
   48loPI   C4B  768   3.231  17.546   9.011 -0.1055  0.3154  0.1403
   49loPI    C1  769  10.679  14.283  10.772 -0.0609  0.1440  0.3076
   49loPI    C2  770  10.784  13.934  10.938  0.2228 -0.0666 -0.2842
   49loPI    C3  771  11.056  14.224  10.893  0.0762  0.0990 -0.1242
   49loPI   PO4  772  10.539  14.256  10.552  0.1437 -0.0550  0.1756
   49loPI   GL1  773  10.445  14.384  10.119 -0.0704 -0.0770 -0.0393
   49loPI   GL2  774  10.411  14.022  10.154  0.0518  0.2795  0.2121
   49loPI   C1A  775  10.583  14.547   9.814 -0.2634 -0.1829  0.1702
   49loPI   C2A  776  10.522  14.700   9.451  0.1391  0.1904  0.0182
   49loPI   C3A  777  10.495  14.741   8.969  0.0467  0.1661  0.0427
   49loPI   C4A  778  10.474  14.750   8.484 -0.3114  0.3082 -0.1773
   49loPI   C5A  779  10.805  14.565   8.161  0.0074  0.0635  0.0501
   49loPI   C6A  780  10.658  14.310   7.820 -0.3384 -0.1162  0.1207
   49loPI   C1B  781  10.479  14.019   9.674  0.0567  0.0108 -0.0687
   49loPI   C2B  782  10.443  14.215   9.210  0.0355  0.2457  0.0471
   49loPI   C3B  783  10.473  14.237   8.798 -0.0845  0.3051 -0.1794
   49loPI   C4B  784  10.464  14.215   8.375  0.0000 -0.0617  0.0588
   50loPI    C1  785  13.017  18.055  10.812  0.2450 -0.0454  0.1815
   50loPI    C2  786  13.167  17.979  11.176  0.2828 -0.1988  0.1349
   50loPI    C3  787  13.326  17.804  10.854  0.1387 -0.1981  0.0621
   50loPI   PO4  788  12.836  18.031  10.754  0.1576  0.1127 -0.0444
   50loPI   GL1  789  12.774  17.958  10.386  0.0198 -0.3904 -0.0006
   50loPI   GL2  790  12.433  18.059  10.330  0.0268 -0.2403 -0.2388
   50loPI   C1A  791  12.834  17.679  10.057 -0.2159 -0.1065 -0.1946
   50loPI   C2A  792  12.818  17.550   9.586 -0.0104  0.0429  0.0138
   50loPI   C3A  793  12.756  17.525   9.114  0.0848 -0.0615 -0.2292
   50loPI   C4A  794  12.733  17.462   8.715  0.0876  0.0732 -0.0403
   50loPI   C5A  795  12.820  17.447   8.286  0.3120 -0.1033  0.0293
   50loPI   C6A  796  12.635  17.506   8.010  0.0886 -0.4398  0.1615
   50loPI   C1B  797  12.142  18.181  10.038 -0.0886  0.0426  0.0376
   50loPI   C2B  798  11.923  18.158   9.728  0.1699  0.2487 -0.1030
   50loPI   C3B  799  11.957  18.195   9.277  0.0823  0.2570  0.0337
   50loPI   C4B  800  11.965  18.118   8.787  0.1000 -0.2422  0.1219
   51loPI    C1  801   6.118  13.952  10.898  0.1485  0.0446  0.0611
   51loPI    C2  802   5.956  13.925  11.263  0.1043  0.0424  0.0415
   51loPI    C3  803   6.348  13.861  11.212  0.1587  0.2925  0.1281
   51loPI   PO4  804   6.036  14.038  10.771 -0.0138  0.0456  0.3046
   51loPI   GL1  805   5.826  14.061  10.373 -0.0792  0.0749  0.0229
   51loPI   GL2  806   5.744  13.768  10.456 -0.0436 -0.1071  0.2134
   51loPI   C1A  807   5.899  14.201   9.959  0.1959 -0.0764 -0.1497
   51loPI   C2A  808   5.856  14.253   9.575  0.0512  0.2826  0.3870
   51loPI   C3A  809   5.849  14.247   9.049  0.4408  0.0703  0.0275
   51loPI   C4A  810   5.876  14.294   8.609  0.0721 -0.0031 -0.0209
   51loPI   C5A  811   5.821  14.135   8.219  0.1435  0.1588  0.0694
   51loPI   C6A  812   5.873  14.120   7.779  0.1408  0.0495  0.2306
   51loPI   C1B  813   5.822  13.674   9.911  0.3015  0.1167  0.1323
   51loPI   C2B  814   5.829  13.757   9.387 -0.1595  0.0851  0.0854
   51loPI   C3B  815   5.715  13.676   9.047  0.2086 -0.1512  0.6536
   51loPI   C4B  816   5.777  13.747   8.641 -0.0199  0.0032 -0.1543
   52loPI    C1  817  16.979  15.177  10.816  0.0236  0.2071 -0.0886
   52loPI    C2  818  17.268  14.956  10.984  0.2098  0.2826 -0.3050
   52loPI    C3  819  17.208  15.333  11.105  0.0990  0.2172 -0.1535
   52loPI   PO4  820  17.131  15.128  10.457 -0.1734  0.4182 -0.2050
   52loPI   GL1  821  17.104  15.262  10.141  0.0436  0.0224 -0.1300
   52loPI   GL2  822  17.280  14.953  10.027  0.1962  0.2317  0.1624
   52loPI   C1A  823  17.028  15.367   9.826  0.1058  0.3009 -0.1823
   52loPI   C2A  824  17.077  15.375   9.388 -0.0855  0.0541 -0.1469
   52loPI   C3A  825  17.041  15.356   8.923  0.1327 -0.1602 -0.1706
   52loPI   C4A  826  17.036  15.304   8.464 -0.4062 -0.0803  0.0417
   52loPI   C5A  827  17.056  15.498   8.019  0.0500  0.0062  0.1862
   52loPI   C6A  828  16.865  15.813   7.826  0.0732 -0.0470  0.0408
   52loPI   C1B  829  17.344  14.897   9.503  0.0954  0.2784  0.1388
   52loPI   C2B  830  17.453  15.040   9.086 -0.0002 -0.2210  0.0535
   52loPI   C3B  831  17.444  15.080   8.665 -0.1719 -0.2088 -0.2283
   52loPI   C4B  832  17.474  15.213   8.249  0.2529  0.1811  0.2035
   53loPI    C1  833  15.740   0.480  11.012 -0.0587 -0.0512 -0.0030
   53loPI    C2  834  15.411   0.665  11.144 -0.0592 -0.0762  0.0310
   53loPI    C3  835  15.752   0.870  11.100 -0.0961 -0.0353 -0.0677
   53loPI   PO4  836  15.662   0.301  10.843  0.2473 -0.1024  0.0168
   53loPI   GL1  837  15.601   0.084  10.463  0.2222 -0.0094  0.4533
   53loPI   GL2  838  15.326   0.050  10.341 -0.0625  0.0852 -0.0959
   53loPI   C1A  839  15.637   0.234  10.053 -0.3556  0.0056 -0.0306
   53loPI   C2A  840  15.669   0.231   9.666  0.1684 -0.3013  0.1613
   53loPI   C3A  841  15.690   0.234   9.260 -0.0971 -0.0235  0.0091
   53loPI   C4A  842  15.771   0.262   8.799  0.0681 -0.2191  0.1799
   53loPI   C5A  843  15.897   0.178   8.347 -0.0836 -0.0905 -0.0570
   53loPI   C6A  844  15.942  -0.156   8.085 -0.3485  0.0808 -0.3563
   53loPI   C1B  845  15.097  -0.013   9.903  0.1356  0.0472  0.1256
   53loPI   C2B  846  15.183   0.045   9.408 -0.0843  0.1221  0.1211
   53loPI   C3B  847  15.334   0.019   8.961  0.2102  0.3137  0.1259
   53loPI   C4B  848  15.379   0.134   8.503  0.0298  0.1466 -0.2161
   54loPI    C1  849   1.167  17.575  11.587 -0.0336 -0.0751  0.1561
   54loPI    C2  850   1.183  17.963  11.683 -0.0075 -0.0856  0.1947
   54loPI    C3  851   1.087  17.691  11.961 -0.0537 -0.1041  0.1608
   54loPI   PO4  852   1.280  17.560  11.291 -0.0256  0.2780  0.1189
   54loPI   GL1  853   1.221  17.576  10.804  0.0643 -0.0145  0.1515
   54loPI   GL2  854   1.366  17.827  10.782  0.3717 -0.1569 -0.0648
   54loPI   C1A  855   0.955  17.676  10.466  0.3594  0.3893 -0.0305
   54loPI   C2A  856   0.881  17.659  10.044  0.2120 -0.3024 -0.3650
   54loPI   C3A  857   0.969  17.600   9.710  0.2064  0.0609 -0.4059
   54loPI   C4A  858   0.863  17.520   9.279 -0.1015 -0.0866  0.3714
   54loPI   C5A  859   0.868  17.491   8.815 -0.2060 -0.2053  0.1509
   54loPI   C6A  860   0.856  17.616   8.244 -0.1391 -0.0552 -0.1764
   54loPI   C1B  861   1.351  17.865  10.291 -0.0077  0.1620 -0.2218
   54loPI   C2B  862   1.451  17.800   9.882 -0.1107  0.0515 -0.3864
   54loPI   C3B  863   1.394  17.761   9.503 -0.1607 -0.1126  0.1031
   54loPI   C4B  864   1.464  17.661   9.120 -0.1461  0.0143  0.2576
   55loPI    C1  865   7.596   3.018  11.217 -0.0474 -0.0029  0.0748
   55loPI    C2  866   7.326   3.312  11.190 -0.1401 -0.1167 -0.3051
   55loPI    C3  867   7.316   3.060  11.500 -0.0801  0.2550  0.0067
   55loPI   PO4  868   7.668   2.927  10.989 -0.1394 -0.4125  0.0033
   55loPI   GL1  869   7.663   2.988  10.519  0.0871  0.0326  0.1129
   55loPI   GL2  870   7.575   2.639  10.543  0.0172 -0.3034 -0.1802
   55loPI   C1A  871   7.508   2.977  10.124  0.1995 -0.0907  0.0848
   55loPI   C2A  872   7.316   2.880   9.868 -0.0464 -0.2195  0.0756
   55loPI   C3A  873   7.383   2.785   9.428 -0.2757  0.0845 -0.3131
   55loPI   C4A  874   7.268   2.746   9.092 -0.5152  0.0321 -0.0814
   55loPI   C5A  875   7.414   2.725   8.714  0.2697 -0.1725  0.1409
   55loPI   C6A  876   7.152   2.799   8.317  0.0315 -0.1509  0.0757
   55loPI   C1B  877   7.347   2.474  10.102 -0.4610  0.2568  0.1188
   55loPI   C2B  878   7.212   2.373   9.769 -0.0407 -0.0165  0.1837
   55loPI   C3B  879   7.325   2.277   9.363 -0.2562 -0.0601 -0.1309
   55loPI   C4B  880   7.315   2.273   8.950 -0.0647  0.1564 -0.1267
   56loPI    C1  881  14.451   0.056  11.164 -0.2289  0.0349 -0.2401
   56loPI    C2  882  14.247  -0.287  11.142 -0.0730 -0.0738 -0.0216
   56loPI    C3  883  14.219  -0.059  11.469  0.0186 -0.0023 -0.0634
   56loPI   PO4  884  14.439   0.153  10.915  0.2618 -0.0378  0.1009
   56loPI   GL1  885  14.434  -0.234  10.618  0.2875  0.4018 -0.0214
   56loPI   GL2  886  14.160  -0.369  10.427 -0.1575  0.3491  0.2742
   56loPI   C1A  887  14.668  -0.198  10.197 -0.0915 -0.0975 -0.0986
   56loPI   C2A  888  14.784  -0.230   9.692  0.0577  0.3235 -0.1754
   56loPI   C3A  889  14.766  -0.176   9.211  0.3537  0.3483  0.2661
   56loPI   C4A  890  14.684  -0.203   8.814 -0.0142 -0.1861 -0.0197
   56loPI   C5A  891  14.684  -0.162   8.426 -0.1026 -0.0176  0.4652
   56loPI   C6A  892  14.636  -0.232   7.919  0.0656 -0.0778  0.0494
   56loPI   C1B  893  14.273  -0.328   9.947  0.0992  0.0926 -0.2442
   56loPI   C2B  894  14.161  -0.305   9.496  0.4592  0.0302 -0.2228
   56loPI   C3B  895  14.230  -0.358   9.019  0.0381  0.4289  0.1693
   56loPI   C4B  896  14.240  -0.283   8.601 -0.0340  0.0735 -0.1166
   57loPI    C1  897  17.248  14.311  10.460  0.1748 -0.0976 -0.1614
   57loPI    C2  898  17.403  14.679  10.446 -0.1206  0.0358 -0.0196
   57loPI    C3  899  17.369  14.490  10.797 -0.1301 -0.0566 -0.0701
   57loPI   PO4  900  17.317  14.079  10.265 -0.0352  0.2450 -0.3935
   57loPI   GL1  901  17.290  14.322   9.813  0.0876 -0.1096 -0.0938
   57loPI   GL2  902  17.108  14.447   9.964 -0.0378 -0.2819 -0.1564
   57loPI   C1A  903  17.326  14.385   9.412 -0.0809 -0.3217 -0.2538
   57loPI   C2A  904  17.395  14.432   9.055 -0.2936  0.0592  0.1455
   57loPI   C3A  905  17.469  14.387   8.655 -0.0120 -0.0115 -0.0721
   57loPI   C4A  906  17.550  14.603   8.244  0.1283  0.0617  0.2392
   57loPI   C5A  907  17.275  14.765   7.980 -0.1634  0.0006  0.1220
   57loPI   C6A  908  17.044  15.101   7.774 -0.0728  0.0656  0.0046
   57loPI   C1B  909  16.944  14.679   9.577 -0.0333  0.0388 -0.3293
   57loPI   C2B  910  16.994  14.728   9.094 -0.0522  0.0287 -0.1448
   57loPI   C3B  911  17.033  14.725   8.647 -0.1420 -0.1822 -0.0024
   57loPI   C4B  912  16.878  14.845   8.255 -0.0070  0.0030 -0.0651
   58loPI    C1  913   7.993   0.328  10.743  0.2072  0.1787 -0.3028
   58loPI    C2  914   8.081   0.152  11.091  0.0025 -0.0702 -0.3736
   58loPI    C3  915   7.865   0.489  11.086  0.1667  0.0386 -0.2515
   58loPI   PO4  916   7.848   0.224  10.654 -0.1895  0.2255 -0.0864
   58loPI   GL1  917   7.666   0.263  10.314  0.0265  0.0343  0.0685
   58loPI   GL2  918   7.799  -0.079  10.268  0.0619 -0.1138 -0.1407
   58loPI   C1A  919   7.730   0.139   9.854 -0.3453 -0.2018 -0.1317
   58loPI   C2A  920   7.979   0.148   9.403  0.1726 -0.1170  0.1960
   58loPI   C3A  921   7.971   0.072   8.998  0.0023  0.2949  0.2316
   58loPI   C4A  922   7.941  -0.037   8.581 -0.2344 -0.0163 -0.0359
   58loPI   C5A  923   7.805  -0.423   8.327 -0.1107  0.3124  0.0862
   58loPI   C6A  924   8.038  -0.799   8.148  0.3201  0.1459 -0.0876
   58loPI   C1B  925   7.792  -0.341  10.022  0.0576  0.5269  0.1592
   58loPI   C2B  926   7.703  -0.347   9.589  0.1804  0.3950  0.0619
   58loPI   C3B  927   7.892  -0.366   9.173  0.1604 -0.0060 -0.2424
   58loPI   C4B  928   7.823  -0.571   8.794 -0.1555 -0.0263 -0.0050
   59loPI    C1  929  16.672  15.770  11.003 -0.1204 -0.0004 -0.1005
   59loPI    C2  930  16.327  15.595  11.102  0.0145 -0.3321 -0.2019
   59loPI    C3  931  16.669  15.473  11.271  0.1020 -0.1062 -0.2123
   59loPI   PO4  932  16.651  15.682  10.696 -0.3382 -0.3687  0.1885
   59loPI   GL1  933  16.874  15.698  10.293 -0.4410  0.2375  0.1710
   59loPI   GL2  934  17.121  15.838  10.084 -0.1649  0.0428  0.5581
   59loPI   C1A  935  16.660  15.647   9.915  0.1369  0.1253 -0.0299
   59loPI   C2A  936  16.667  15.739   9.415  0.0014  0.0786 -0.0716
   59loPI   C3A  937  16.714  15.704   8.869  0.1901 -0.0773  0.2200
   59loPI   C4A  938  16.726  15.713   8.452  0.0232  0.1083  0.0049
   59loPI   C5A  939  16.467  15.859   8.195  0.0018 -0.0272  0.3247
   59loPI   C6A  940  16.300  15.725   7.842 -0.0894 -0.0510  0.1347
   59loPI   C1B  941  17.108  15.821   9.612 -0.0754  0.0796  0.0680
   59loPI   C2B  942  17.153  15.801   9.153  0.1472  0.1791  0.1678
   59loPI   C3B  943  17.146  15.954   8.696  0.0793 -0.0065  0.0882
   59loPI   C4B  944  17.127  15.984   8.198 -0.1659  0.2986 -0.1171
   60loPI    C1  945  15.484   4.855   9.864 -0.1466 -0.3527  0.0609
   60loPI    C2  946  15.249   5.049  10.123 -0.0955 -0.0245 -0.1326
   60loPI    C3  947  15.644   5.040  10.181 -0.1109 -0.1936 -0.0487
   60loPI   PO4  948  15.438   4.980   9.645 -0.2320  0.2374  0.0627
   60loPI   GL1  949  15.462   4.842   9.203 -0.2526  0.0689 -0.2877
   60loPI   GL2  950  15.364   4.570   9.172  0.1980  0.4901 -0.1796
   60loPI   C1A  951  15.515   4.961   8.788 -0.2515 -0.0963 -0.0341
   60loPI   C2A  952  15.628   4.932   8.358 -0.0565  0.2156 -0.1902
   60loPI   C3A  953  15.690   4.872   7.988 -0.1133  0.1067 -0.0891
   60loPI   C4A  954  15.633   4.736   7.505 -0.1394 -0.0787 -0.0543
   60loPI   C5A  955  15.355   4.803   7.130 -0.0705 -0.2432  0.2610
   60loPI   C6A  956  15.179   4.757   6.771  0.0894 -0.1378 -0.1304
   60loPI   C1B  957  15.419   4.451   8.819 -0.2813 -0.3431 -0.1223
   60loPI   C2B  958  15.304   4.582   8.481 -0.1368 -0.2930  0.1607
   60loPI   C3B  959  15.301   4.615   7.971 -0.0139 -0.1370 -0.2809
   60loPI   C4B  960  15.128   4.566   7.659  0.1487 -0.0230  0.2411
   61loPI    C1  961  17.325   1.742  10.589 -0.0320  0.1186 -0.1202
   61loPI    C2  962  17.527   1.974  10.845 -0.1023  0.0860 -0.0345
   61loPI    C3  963  17.360   1.634  10.973 -0.0249  0.0026 -0.1532
   61loPI   PO4  964  17.393   1.879  10.339 -0.0729  0.0583 -0.0568
   61loPI   GL1  965  17.127   1.832   9.998  0.1238 -0.0054 -0.1574
   61loPI   GL2  966  17.417   2.096   9.831  0.1475  0.0100 -0.0296
   61loPI   C1A  967  16.927   1.716   9.592 -0.2165  0.0507  0.1170
   61loPI   C2A  968  16.965   1.720   9.184  0.0278  0.1587  0.1550
   61loPI   C3A  969  16.924   1.550   8.740  0.0329 -0.2037  0.0486
   61loPI   C4A  970  16.931   1.515   8.272 -0.2804  0.2864  0.2995
   61loPI   C5A  971  17.152   1.361   8.028 -0.2827 -0.0623  0.1725
   61loPI   C6A  972  17.327   1.279   7.599  0.1875 -0.0354 -0.0112
   61loPI   C1B  973  17.437   1.897   9.375 -0.0585 -0.1136 -0.1118
   61loPI   C2B  974  17.492   1.847   8.962 -0.3618 -0.3516  0.0330
   61loPI   C3B  975  17.540   1.813   8.475 -0.2551  0.0591 -0.0672
   61loPI   C4B  976  17.558   1.665   7.976  0.0649  0.0431 -0.2058
   62loPI    C1  977   5.755  18.217  11.264 -0.1632 -0.1574  0.1475
   62loPI    C2  978   6.146  18.301  11.273 -0.1922  0.0173 -0.1223
   62loPI    C3  979   5.995  18.026  11.521  0.0933 -0.0210  0.0130
   62loPI   PO4  980   5.679  18.164  10.956  0.2075 -0.0993  0.2615
   62loPI   GL1  981   5.746  18.271  10.563 -0.0281 -0.1187  0.1882
   62loPI   GL2  982   5.461  18.081  10.449 -0.1389 -0.2273 -0.1063
   62loPI   C1A  983   6.006  18.347  10.266 -0.3109 -0.0351 -0.2499
   62loPI   C2A  984   6.015  18.385   9.834  0.0173 -0.1170 -0.0087
   62loPI   C3A  985   6.032  18.244   9.491  0.3640 -0.2208  0.1749
   62loPI   C4A  986   6.084  18.260   8.980  0.1334  0.0997  0.3015
   62loPI   C5A  987   6.078  18.309   8.547  0.3433  0.0614 -0.2115
   62loPI   C6A  988   5.738  18.491   8.395 -0.1070  0.1554 -0.1127
   62loPI   C1B  989   5.652  18.086  10.110  0.2991  0.2335  0.2860
   62loPI   C2B  990   5.536  18.097   9.691 -0.1267 -0.3909 -0.3207
   62loPI   C3B  991   5.582  18.051   9.291 -0.3981  0.0517  0.0989
   62loPI   C4B  992   5.594  18.076   8.937  0.2079  0.0049 -0.1979
   63loPI    C1  993  14.255  14.738  10.782 -0.0863 -0.1005  0.0884
   63loPI    C2  994  13.935  14.976  10.805 -0.2116 -0.2449 -0.1254
   63loPI    C3  995  13.889  14.578  10.801 -0.0088 -0.2741  0.1488
   63loPI   PO4  996  14.426  14.865  10.609 -0.1155 -0.2848 -0.1116
   63loPI   GL1  997  14.474  14.888  10.174  0.1285 -0.2908  0.1610
   63loPI   GL2  998  14.379  15.191   9.915  0.2048  0.0456  0.1169
   63loPI   C1A  999  14.649  14.757   9.843 -0.1566  0.0580 -0.0631
   63loPI   C2A 1000  14.614  14.734   9.371  0.1005  0.0276  0.0054
   63loPI   C3A 1001  14.657  14.752   8.877  0.2858 -0.0232 -0.1795
   63loPI   C4A 1002  14.728  14.892   8.507  0.1449  0.2916  0.1066
   63loPI   C5A 1003  15.204  14.870   8.269 -0.1285  0.1842  0.3315
   63loPI   C6A 1004  15.374  14.474   8.117 -0.1870 -0.0661  0.0388
   63loPI   C1B 1005  14.332  15.219   9.536 -0.0834 -0.3843  0.2048
   63loPI   C2B 1006  14.394  15.137   9.104  0.1471 -0.0588 -0.1364
   63loPI   C3B 1007  14.207  15.173   8.731  0.1689  0.3279  0.1100
   63loPI   C4B 1008  14.090  15.034   8.251  0.0675 -0.0530 -0.2271
   64loPI    C1 1009   0.651   2.778  10.713 -0.3024  0.1574  0.1621
   64loPI    C2 1010   0.844   2.707  11.057  0.0685 -0.0262 -0.0773
   64loPI    C3 1011   0.444   2.700  11.046  0.0545 -0.0857  0.3337
   64loPI   PO4 1012   0.753   2.949  10.593  0.1824  0.0818  0.0153
   64loPI   GL1 1013   0.515   3.207  10.356  0.2607  0.0769  0.0422
   64loPI   GL2 1014   0.296   2.942  10.321  0.4027  0.1433  0.1449
   64loPI   C1A 1015   0.826   3.205   9.987  0.2995  0.2018  0.0173
   64loPI   C2A 1016   0.991   3.212   9.659 -0.2170  0.0865 -0.2705
   64loPI   C3A 1017   1.048   3.130   9.418 -0.1378  0.1844  0.3447
   64loPI   C4A 1018   1.090   3.126   9.091  0.0524  0.1682 -0.0464
   64loPI   C5A 1019   1.061   3.094   8.660 -0.0646  0.2564  0.2493
   64loPI   C6A 1020   1.336   3.105   8.368 -0.0706 -0.2579 -0.2068
   64loPI   C1B 1021   0.345   3.010   9.910  0.1530  0.0818 -0.1741
   64loPI   C2B 1022   0.556   3.046   9.488 -0.0359  0.0678  0.1473
   64loPI   C3B 1023   0.579   3.034   9.039  0.3506 -0.2295  0.2562
   64loPI   C4B 1024   0.615   2.879   8.664 -0.2808  0.3039 -0.1450
   65loPI    C1 1025   9.304   7.692  10.260 -0.1500 -0.1240  0.2514
   65loPI    C2 1026   9.500   7.563  10.584  0.0124 -0.0146  0.1980
   65loPI    C3 1027   9.464   7.956  10.515  0.0376 -0.0381  0.0482
   65loPI   PO4 1028   9.388   7.555  10.040 -0.2111 -0.2309  0.0722
   65loPI   GL1 1029   9.092   7.572   9.700  0.2506 -0.1302 -0.1947
   65loPI   GL2 1030   9.136   7.914   9.701  0.0541 -0.0116  0.2140
   65loPI   C1A 1031   8.977   7.511   9.311 -0.0517  0.1611 -0.0684
   65loPI   C2A 1032   8.988   7.529   8.849 -0.3510 -0.2432  0.0038
   65loPI   C3A 1033   8.959   7.397   8.402 -0.0997 -0.1465 -0.0410
   65loPI   C4A 1034   9.002   7.515   7.954  0.0645 -0.2219 -0.0883
   65loPI   C5A 1035   9.218   7.773   7.672  0.1742 -0.0890  0.0432
   65loPI   C6A 1036   9.280   8.245   7.542  0.0381 -0.2513  0.1623
   65loPI   C1B 1037   9.072   8.090   9.278 -0.3710 -0.0377 -0.0878
   65loPI   C2B 1038   9.071   8.082   8.832 -0.0308 -0.2681 -0.0788
   65loPI   C3B 1039   9.161   7.911   8.488 -0.0208  0.0440 -0.0652
   65loPI   C4B 1040   9.485   7.988   8.263 -0.0039  0.0654 -0.0373
   66loPI    C1 1041   5.271   0.601  11.196  0.0936  0.0832 -0.1073
   66loPI    C2 1042   5.266   0.892  11.470 -0.0213  0.1370 -0.1656
   66loPI    C3 1043   5.343   0.515  11.580  0.0015  0.1690 -0.0704
   66loPI   PO4 1044   5.328   0.634  10.949  0.2691  0.0933 -0.0752
   66loPI   GL1 1045   5.098   0.520  10.550 -0.2808  0.0660  0.2861
   66loPI   GL2 1046   5.117   0.915  10.494 -0.1861 -0.1069 -0.2324
   66loPI   C1A 1047   5.229   0.543  10.147 -0.0331 -0.0462  0.2600
   66loPI   C2A 1048   5.152   0.458   9.613  0.3886  0.3279 -0.1641
   66loPI   C3A 1049   5.239   0.529   9.177  0.2017  0.0126  0.0627
   66loPI   C4A 1050   5.204   0.433   8.694 -0.4198  0.1313 -0.2379
   66loPI   C5A 1051   5.372   0.429   8.247  0.0968  0.0684  0.1128
   66loPI   C6A 1052   5.763   0.359   7.951 -0.1747  0.0955 -0.2202
   66loPI   C1B 1053   5.178   1.066  10.120 -0.3557  0.2326  0.3294
   66loPI   C2B 1054   5.327   1.006   9.824  0.4072 -0.4289  0.0083
   66loPI   C3B 1055   5.259   1.036   9.364  0.1511  0.1230  0.0968
   66loPI   C4B 1056   5.309   0.977   8.844 -0.4575 -0.3027  0.3073
   67loPI    C1 1057   9.921   8.372   9.972  0.2240 -0.2490 -0.1561
   67loPI    C2 1058   9.874   8.218  10.338 -0.0561  0.2094  0.0090
   67loPI    C3 1059  10.194   8.443  10.256  0.0430  0.0478 -0.0515
   67loPI   PO4 1060   9.912   8.153   9.829  0.1340 -0.0290  0.0713
   67loPI   GL1 1061   9.658   7.801   9.646 -0.1681 -0.0697  0.1171
   67loPI   GL2 1062   9.876   7.914   9.395 -0.2583 -0.3377 -0.0305
   67loPI   C1A 1063   9.478   7.763   9.302  0.1628  0.0641  0.0550
   67loPI   C2A 1064   9.550   7.739   8.873  0.3667  0.0925 -0.1604
   67loPI   C3A 1065   9.580   7.530   8.483 -0.1182 -0.2668  0.0445
   67loPI   C4A 1066   9.442   7.506   8.145 -0.1618 -0.0855  0.0029
   67loPI   C5A 1067   9.437   7.301   7.772 -0.1743  0.0980  0.0992
   67loPI   C6A 1068   9.569   6.975   7.451  0.1378  0.1747 -0.1674
   67loPI   C1B 1069  10.034   7.798   9.049  0.2514 -0.1292  0.6079
   67loPI   C2B 1070   9.987   7.894   8.615 -0.1314 -0.0422  0.3158
   67loPI   C3B 1071   9.932   7.842   8.128  0.2183 -0.0564  0.0919
   67loPI   C4B 1072   9.708   7.731   7.793 -0.1097  0.2455  0.1509
   68loPI    C1 1073  15.032  13.115  10.719 -0.1377  0.0745 -0.0735
   68loPI    C2 1074  15.418  13.173  10.808 -0.1398 -0.0683  0.0322
   68loPI    C3 1075  15.133  13.313  11.052 -0.1526 -0.0694  0.0180
   68loPI   PO4 1076  14.985  13.124  10.463  0.1576 -0.1221 -0.1764
   68loPI   GL1 1077  14.895  13.401  10.168  0.0910 -0.1618 -0.1649
   68loPI   GL2 1078  14.618  13.474  10.187  0.2854  0.1404  0.0665
   68loPI   C1A 1079  14.961  13.383   9.728  0.2429 -0.0361 -0.0998
   68loPI   C2A 1080  14.905  13.415   9.356 -0.2141 -0.2682  0.0596
   68loPI   C3A 1081  14.992  13.448   8.876 -0.4409 -0.0710  0.2500
   68loPI   C4A 1082  14.912  13.536   8.404  0.0544 -0.0757  0.2506
   68loPI   C5A 1083  14.766  13.605   7.972  0.0899  0.4170 -0.0556
   68loPI   C6A 1084  14.743  13.637   7.587  0.2297  0.0728 -0.0128
   68loPI   C1B 1085  14.491  13.687   9.766 -0.1243  0.3773  0.3249
   68loPI   C2B 1086  14.505  13.713   9.298 -0.0206 -0.1498  0.0239
   68loPI   C3B 1087  14.575  13.782   8.851 -0.0855 -0.1522 -0.1321
   68loPI   C4B 1088  14.538  13.828   8.516 -0.0572  0.0094 -0.1470
   69loPI    C1 1089  12.809   4.692   9.645 -0.0239  0.2911  0.0927
   69loPI    C2 1090  12.635   4.331   9.646  0.1713  0.1953  0.0209
   69loPI    C3 1091  12.761   4.493   9.989  0.1352  0.1700  0.0462
   69loPI   PO4 1092  13.089   4.678   9.582 -0.0349  0.3803 -0.0491
   69loPI   GL1 1093  13.146   4.468   9.201 -0.1520  0.1009  0.0649
   69loPI   GL2 1094  13.521   4.329   9.083 -0.1068 -0.0004 -0.0038
   69loPI   C1A 1095  12.890   4.423   8.801 -0.0362 -0.2921  0.0206
   69loPI   C2A 1096  12.752   4.396   8.444  0.1339  0.2010  0.1455
   69loPI   C3A 1097  12.432   4.292   8.169  0.0325 -0.0221  0.1621
   69loPI   C4A 1098  12.449   4.226   7.810 -0.1646 -0.0563 -0.0214
   69loPI   C5A 1099  12.662   4.118   7.409  0.2903 -0.2213  0.0984
   69loPI   C6A 1100  12.869   4.111   7.135  0.0301  0.0473 -0.1397
   69loPI   C1B 1101  13.366   4.333   8.667 -0.2061  0.1201  0.3300
   69loPI   C2B 1102  13.295   4.193   8.248 -0.1744 -0.0990  0.0610
   69loPI   C3B 1103  13.369   4.133   7.868 -0.1584  0.0154  0.1989
   69loPI   C4B 1104  13.368   4.032   7.385  0.1114  0.1613 -0.2078
   70loPI    C1 1105   7.857  13.730  10.961 -0.1435  0.0156 -0.1432
   70loPI    C2 1106   8.061  14.074  10.944 -0.2729  0.0918 -0.1611
   70loPI    C3 1107   8.056  13.860  11.283 -0.0738  0.0343 -0.1936
   70loPI   PO4 1108   7.864  13.643  10.779  0.1818  0.0431  0.3981
   70loPI   GL1 1109   7.866  13.671  10.418  0.0041  0.1864 -0.2729
   70loPI   GL2 1110   7.754  13.851  10.241  0.0400 -0.2549 -0.0538
   70loPI   C1A 1111   8.113  13.603  10.096 -0.1710 -0.1908  0.1122
   70loPI   C2A 1112   8.194  13.636   9.574 -0.0240 -0.0613  0.1614
   70loPI   C3A 1113   8.125  13.755   9.163  0.1158  0.1598 -0.2552
   70loPI   C4A 1114   8.096  13.762   8.605 -0.4092 -0.0420 -0.1938
   70loPI   C5A 1115   8.470  13.772   8.354 -0.2470  0.1751  0.1465
   70loPI   C6A 1116   8.715  14.135   8.338 -0.4418 -0.1071  0.0075
   70loPI   C1B 1117   7.750  14.015   9.851  0.0950 -0.2969  0.1057
   70loPI   C2B 1118   7.720  14.020   9.439  0.0978 -0.1812 -0.0513
   70loPI   C3B 1119   7.675  14.028   9.006 -0.2604  0.1747  0.1269
   70loPI   C4B 1120   7.761  14.139   8.578 -0.0238  0.2182  0.2286
   71loPI    C1 1121  11.409  10.055  10.135 -0.0991 -0.3417  0.2097
   71loPI    C2 1122  11.572   9.706  10.024  0.1630 -0.1540 -0.0078
   71loPI    C3 1123  11.743   9.924  10.313  0.1221 -0.1040 -0.0212
   71loPI   PO4 1124  11.362  10.163   9.970 -0.2061 -0.0439 -0.1926
   71loPI   GL1 1125  11.093  10.259   9.639 -0.1288 -0.0322 -0.0201
   71loPI   GL2 1126  11.345  10.321   9.405  0.0527  0.2086 -0.4560
   71loPI   C1A 1127  10.913  10.288   9.276  0.1504  0.0392 -0.4601
   71loPI   C2A 1128  10.987  10.316   8.828  0.2423 -0.0411 -0.0840
   71loPI   C3A 1129  10.996  10.536   8.519 -0.0615  0.3199  0.1481
   71loPI   C4A 1130  11.125  10.867   8.316 -0.1394 -0.1167 -0.1202
   71loPI   C5A 1131  10.967  11.245   8.133  0.1783 -0.2662 -0.0632
   71loPI   C6A 1132  10.752  11.509   7.948 -0.0908  0.0363  0.1266
   71loPI   C1B 1133  11.416  10.610   9.108  0.2493 -0.0117  0.2119
   71loPI   C2B 1134  11.452  10.698   8.615 -0.1000  0.0066 -0.2903
   71loPI   C3B 1135  11.655  10.736   8.164 -0.0922  0.0767 -0.1205
   71loPI   C4B 1136  11.530  10.702   7.740  0.0662  0.1320 -0.0435
   72loPI    C1 1137   5.026  16.854  11.477 -0.0478  0.1585 -0.1164
   72loPI    C2 1138   5.028  17.249  11.414  0.2595  0.1869  0.0551
   72loPI    C3 1139   4.904  17.103  11.765  0.3221  0.1433  0.0593
   72loPI   PO4 1140   4.842  16.743  11.290 -0.1164 -0.0020 -0.0030
   72loPI   GL1 1141   4.674  16.583  10.811  0.1109 -0.0159 -0.1632
   72loPI   GL2 1142   4.786  16.878  10.491 -0.2107  0.2675  0.0131
   72loPI   C1A 1143   4.749  16.365  10.454 -0.1406 -0.0578 -0.1981
   72loPI   C2A 1144   4.822  16.336  10.064  0.5033  0.3258  0.1669
   72loPI   C3A 1145   4.826  16.300   9.612 -0.0786  0.0980 -0.2784
   72loPI   C4A 1146   4.734  16.306   9.121 -0.1534  0.1509  0.3804
   72loPI   C5A 1147   4.807  16.439   8.603  0.0012  0.0457 -0.3391
   72loPI   C6A 1148   4.923  16.257   8.163 -0.2173 -0.0272 -0.1416
   72loPI   C1B 1149   4.851  16.802  10.090 -0.0856 -0.1155 -0.0791
   72loPI   C2B 1150   4.901  16.789   9.732 -0.0423  0.0566  0.1246
   72loPI   C3B 1151   4.847  16.739   9.350 -0.0231 -0.4118 -0.1318
   72loPI   C4B 1152   4.926  16.798   8.960  0.1312  0.1829  0.3011
   73loPI    C1 1153  15.609   7.935   9.716  0.2931  0.1619  0.0879
   73loPI    C2 1154  15.622   7.560   9.855  0.2142  0.0997 -0.0692
   73loPI    C3 1155  15.446   7.847  10.071 -0.2817 -0.0792 -0.2210
   73loPI   PO4 1156  15.800   8.016   9.602  0.0715  0.0505  0.1709
   73loPI   GL1 1157  15.934   8.018   9.262 -0.1177  0.2537  0.0808
   73loPI   GL2 1158  16.062   8.387   9.266 -0.0939 -0.0466 -0.0148
   73loPI   C1A 1159  16.077   8.056   8.800 -0.0378 -0.0329 -0.1727
   73loPI   C2A 1160  16.224   8.129   8.404 -0.0539 -0.0491 -0.2133
   73loPI   C3A 1161  16.388   8.143   8.034  0.2336  0.2261 -0.0200
   73loPI   C4A 1162  16.714   8.105   7.609  0.3213 -0.2628  0.0654
   73loPI   C5A 1163  17.041   8.179   7.334  0.0529 -0.1499  0.2596
   73loPI   C6A 1164  17.387   8.443   7.423 -0.0703 -0.0975  0.0306
   73loPI   C1B 1165  16.026   8.536   8.780 -0.2816  0.0942 -0.0096
   73loPI   C2B 1166  15.969   8.591   8.355  0.1173 -0.1896 -0.0964
   73loPI   C3B 1167  16.068   8.524   7.984  0.0122  0.5073  0.0797
   73loPI   C4B 1168  16.310   8.511   7.627  0.1958 -0.0487 -0.3393
   74loPI    C1 1169   8.990   4.680  10.377  0.0960 -0.1025  0.2268
   74loPI    C2 1170   8.940   4.965  10.652  0.0700 -0.1394  0.2605
   74loPI    C3 1171   8.870   4.583  10.746 -0.3118 -0.1149  0.0959
   74loPI   PO4 1172   8.905   4.669  10.114 -0.0611 -0.0226 -0.3192
   74loPI   GL1 1173   8.622   4.399   9.848  0.5653  0.1265 -0.1709
   74loPI   GL2 1174   9.047   4.349   9.783 -0.3832  0.2455 -0.3405
   74loPI   C1A 1175   8.530   4.309   9.381  0.4605 -0.0919 -0.0036
   74loPI   C2A 1176   8.411   4.231   8.865  0.3146  0.2285  0.0705
   74loPI   C3A 1177   8.424   4.187   8.418 -0.0280  0.1065  0.1893
   74loPI   C4A 1178   8.321   4.343   8.052 -0.0518 -0.1576 -0.1962
   74loPI   C5A 1179   8.333   4.225   7.605 -0.2059  0.0593 -0.1158
   74loPI   C6A 1180   8.300   3.910   7.261 -0.1347  0.1350 -0.2677
   74loPI   C1B 1181   9.031   4.407   9.392  0.1090  0.3640  0.1275
   74loPI   C2B 1182   8.927   4.405   8.912  0.2160 -0.0286  0.2991
   74loPI   C3B 1183   8.979   4.378   8.516 -0.2189  0.1033  0.0167
   74loPI   C4B 1184   8.838   4.307   8.156 -0.2118 -0.0275  0.1990
   75loPI    C1 1185   0.353  14.247  10.808 -0.4599 -0.0769 -0.1731
   75loPI    C2 1186   0.313  14.556  11.059  0.2522 -0.0086 -0.1224
   75loPI    C3 1187   0.362  14.187  11.203  0.1373 -0.0440 -0.1726
   75loPI   PO4 1188   0.454  14.335  10.547 -0.0793  0.2705 -0.0220
   75loPI   GL1 1189   0.612  14.634  10.248  0.2206  0.3813  0.1592
   75loPI   GL2 1190   0.261  14.454  10.095 -0.1090 -0.0717 -0.1671
   75loPI   C1A 1191   0.914  14.614  10.098 -0.1438 -0.0348  0.2586
   75loPI   C2A 1192   1.076  14.773   9.701  0.0705  0.0941 -0.3264
   75loPI   C3A 1193   0.972  14.699   9.226 -0.0665 -0.1606 -0.0820
   75loPI   C4A 1194   0.931  14.746   8.864  0.0495 -0.1370  0.0941
   75loPI   C5A 1195   0.829  14.963   8.479 -0.0710 -0.1197  0.0263
   75loPI   C6A 1196   0.581  15.081   8.173 -0.0042  0.2197  0.0390
   75loPI   C1B 1197   0.362  14.423   9.630 -0.3175 -0.3727 -0.1127
   75loPI   C2B 1198   0.449  14.541   9.137  0.2095  0.2299 -0.1010
   75loPI   C3B 1199   0.418  14.592   8.645  0.0679  0.4802 -0.1195
   75loPI   C4B 1200   0.265  14.633   8.159  0.2023 -0.0624  0.0360
   76loPI    C1 1201  12.007   2.226  10.582 -0.1441 -0.2607 -0.0078
   76loPI    C2 1202  11.687   2.127  10.801 -0.0936 -0.0120  0.1836
   76loPI    C3 1203  11.872   2.477  10.863  0.3155 -0.2227  0.1891
   76loPI   PO4 1204  11.921   2.190  10.216 -0.2114 -0.0324  0.0399
   76loPI   GL1 1205  11.842   1.925   9.944 -0.1668  0.1600 -0.2253
   76loPI   GL2 1206  11.609   2.066   9.825  0.2131 -0.1586 -0.2351
   76loPI   C1A 1207  11.865   1.647   9.743  0.2473 -0.2439  0.0417
   76loPI   C2A 1208  11.785   1.587   9.348  0.2823 -0.1261 -0.0766
   76loPI   C3A 1209  11.734   1.567   8.971 -0.2046 -0.5410  0.0002
   76loPI   C4A 1210  11.660   1.573   8.578  0.0249 -0.3229 -0.1733
   76loPI   C5A 1211  11.695   1.618   8.111  0.0195  0.2070 -0.0179
   76loPI   C6A 1212  11.882   1.817   7.702 -0.1973 -0.2237  0.0095
   76loPI   C1B 1213  11.380   1.920   9.468 -0.2655 -0.1799  0.1404
   76loPI   C2B 1214  11.321   1.941   8.967 -0.1431  0.1763 -0.0808
   76loPI   C3B 1215  11.253   1.946   8.533 -0.5198 -0.0549 -0.1834
   76loPI   C4B 1216  11.313   1.928   8.108 -0.2019  0.1180 -0.1695
   77loPI    C1 1217   9.354  18.170  10.956  0.1305  0.2073 -0.3452
   77loPI    C2 1218   9.059  18.410  10.833  0.0195  0.2717  0.0334
   77loPI    C3 1219   9.215  18.456  11.198  0.4015  0.1437 -0.1088
   77loPI   PO4 1220   9.245  17.810  11.025  0.0926 -0.3460 -0.0465
   77loPI   GL1 1221   9.169  17.424  10.645  0.2770 -0.0030  0.1009
   77loPI   GL2 1222   9.197  17.193  10.682  0.1249  0.3649  0.2990
   77loPI   C1A 1223   9.151  17.535  10.182  0.2386  0.0416  0.0764
   77loPI   C2A 1224   9.203  17.543   9.752  0.2816  0.1044 -0.1044
   77loPI   C3A 1225   9.206  17.608   9.299  0.2045 -0.0176 -0.1209
   77loPI   C4A 1226   9.184  17.546   8.930 -0.0315  0.0038 -0.0927
   77loPI   C5A 1227   8.903  17.458   8.595  0.0925 -0.2308 -0.1830
   77loPI   C6A 1228   8.957  17.336   8.239 -0.2141  0.2743  0.1307
   77loPI   C1B 1229   9.537  17.199  10.234  0.1838 -0.0490  0.1361
   77loPI   C2B 1230   9.603  17.250   9.753  0.1009  0.2071 -0.2342
   77loPI   C3B 1231   9.617  17.274   9.354 -0.0361  0.0830  0.0821
   77loPI   C4B 1232   9.595  17.266   8.930 -0.1741  0.1559  0.0741
   78loPI    C1 1233   6.938   4.656  10.593  0.2912 -0.0980  0.0840
   78loPI    C2 1234   7.335   4.607  10.601  0.3102  0.0623  0.1678
   78loPI    C3 1235   7.132   4.651  10.943  0.1966 -0.1952  0.1355
   78loPI   PO4 1236   6.933   4.602  10.254 -0.1706 -0.1248  0.1320
   78loPI   GL1 1237   7.042   4.345   9.939 -0.0083  0.0033 -0.1103
   78loPI   GL2 1238   7.309   4.229   9.818 -0.1297  0.0044 -0.0270
   78loPI   C1A 1239   6.724   4.314   9.704  0.0432 -0.0627  0.2731
   78loPI   C2A 1240   6.669   4.359   9.233  0.2376  0.2652 -0.1112
   78loPI   C3A 1241   6.703   4.370   8.812  0.1561  0.0432 -0.0531
   78loPI   C4A 1242   6.663   4.452   8.311  0.0257  0.0679 -0.0701
   78loPI   C5A 1243   6.856   4.609   8.060 -0.0739  0.3219 -0.2945
   78loPI   C6A 1244   7.119   4.815   7.888 -0.3197 -0.2077 -0.0248
   78loPI   C1B 1245   7.166   4.238   9.426 -0.2325 -0.2147  0.1826
   78loPI   C2B 1246   7.111   4.132   8.958  0.0669  0.1714 -0.1039
   78loPI   C3B 1247   7.077   4.199   8.591 -0.1118 -0.0663  0.0445
   78loPI   C4B 1248   7.079   4.032   8.203 -0.1572  0.1516  0.2843
   79loPI    C1 1249  17.819   8.734  10.171 -0.0374  0.4699 -0.2796
   79loPI    C2 1250  17.898   8.992  10.466 -0.0761 -0.1065  0.2538
   79loPI    C3 1251  17.519   8.914  10.365 -0.0707 -0.1095  0.2363
   79loPI   PO4 1252  18.053   8.885  10.000  0.0765  0.3133 -0.1186
   79loPI   GL1 1253  18.012   8.839   9.623  0.0458  0.0427  0.0569
   79loPI   GL2 1254  17.801   8.584   9.567 -0.0613 -0.0291 -0.0712
   79loPI   C1A 1255  18.333   8.715   9.277  0.0289  0.1094 -0.0778
   79loPI   C2A 1256  18.447   8.550   8.843 -0.0999 -0.1807 -0.1170
   79loPI   C3A 1257  18.524   8.594   8.344 -0.0425 -0.1413 -0.0443
   79loPI   C4A 1258  18.655   8.547   7.836  0.0420 -0.1843 -0.1105
   79loPI   C5A 1259  18.644   8.676   7.498  0.4022 -0.1680 -0.1608
   79loPI   C6A 1260  18.613   8.687   7.030 -0.0256 -0.0680  0.3030
   79loPI   C1B 1261  17.722   8.432   9.193 -0.1737 -0.0192 -0.2940
   79loPI   C2B 1262  17.896   8.360   8.755  0.7160  0.3087  0.0987
   79loPI   C3B 1263  18.032   8.418   8.354  0.1361 -0.0629 -0.0518
   79loPI   C4B 1264  18.247   8.325   8.000 -0.0243 -0.2581  0.0050
   80loPI    C1 1265   2.858   6.159  10.906 -0.2136  0.0136 -0.1303
   80loPI    C2 1266   3.091   6.199  11.229  0.2190  0.1238 -0.4468
   80loPI    C3 1267   2.693   6.202  11.267  0.2634  0.1907  0.0751
   80loPI   PO4 1268   3.051   6.261  10.702  0.0547  0.0540  0.0434
   80loPI   GL1 1269   3.032   6.379  10.260  0.0339  0.0889 -0.0515
   80loPI   GL2 1270   2.803   6.377  10.054 -0.4631  0.1202 -0.0819
   80loPI   C1A 1271   3.256   6.145   9.931  0.2863  0.1832 -0.1223
   80loPI   C2A 1272   3.286   5.993   9.559 -0.1743  0.2754  0.0053
   80loPI   C3A 1273   3.296   6.030   9.043 -0.2435 -0.1349 -0.1980
   80loPI   C4A 1274   3.331   5.997   8.621 -0.0621 -0.3495  0.0379
   80loPI   C5A 1275   3.515   5.928   8.200  0.3085  0.1209 -0.2706
   80loPI   C6A 1276   3.514   6.140   7.746 -0.1948  0.1730 -0.1072
   80loPI   C1B 1277   2.820   6.361   9.673 -0.1264 -0.0353 -0.0740
   80loPI   C2B 1278   2.864   6.393   9.191 -0.2548 -0.2601 -0.1107
   80loPI   C3B 1279   2.923   6.382   8.809 -0.1119  0.0664  0.3317
   80loPI   C4B 1280   2.945   6.290   8.410  0.0975 -0.2305 -0.0147
   81loPI    C1 1281   8.673   3.099  11.035 -0.1363  0.2131  0.0138
   81loPI    C2 1282   9.049   3.199  11.128 -0.1674  0.3048  0.0418
   81loPI    C3 1283   8.880   2.878  11.296 -0.0318  0.1433 -0.1265
   81loPI   PO4 1284   8.618   2.983  10.702 -0.0960 -0.1788  0.0868
   81loPI   GL1 1285   8.601   2.714  10.216  0.0718 -0.0592  0.0961
   81loPI   GL2 1286   8.406   2.984  10.212  0.0830  0.0431 -0.0175
   81loPI   C1A 1287   8.829   2.828   9.823 -0.0085 -0.0876  0.0507
   81loPI   C2A 1288   8.779   2.857   9.384 -0.0060  0.1754  0.0455
   81loPI   C3A 1289   8.783   2.866   8.894  0.2568 -0.0548  0.0525
   81loPI   C4A 1290   8.635   2.857   8.494  0.0415 -0.0539 -0.0501
   81loPI   C5A 1291   8.613   2.375   8.246 -0.0886 -0.1591  0.3369
   81loPI   C6A 1292   8.831   2.058   8.300  0.0293  0.0977  0.0372
   81loPI   C1B 1293   8.263   2.717   9.866  0.0611  0.0959  0.2833
   81loPI   C2B 1294   8.290   2.647   9.432  0.2247 -0.1151 -0.0901
   81loPI   C3B 1295   8.301   2.663   8.910  0.1911  0.0889  0.0773
   81loPI   C4B 1296   8.227   2.558   8.502  0.0966 -0.3136 -0.1173
   82loPI    C1 1297   6.912  11.028  10.683 -0.2838  0.2119 -0.0322
   82loPI    C2 1298   6.643  10.869  10.933 -0.1413  0.2108  0.1225
   82loPI    C3 1299   7.033  10.811  10.997 -0.1057  0.1145 -0.1663
   82loPI   PO4 1300   6.842  11.147  10.525  0.1748  0.2591  0.0747
   82loPI   GL1 1301   6.745  11.015  10.118  0.2497 -0.0640 -0.1525
   82loPI   GL2 1302   6.971  10.979   9.891 -0.3449 -0.1862  0.2743
   82loPI   C1A 1303   6.547  11.396   9.811  0.2035 -0.1614  0.3871
   82loPI   C2A 1304   6.377  11.645   9.411 -0.0082  0.1713  0.1543
   82loPI   C3A 1305   6.440  11.570   8.975  0.2758  0.0624 -0.2048
   82loPI   C4A 1306   6.563  11.685   8.627  0.0432 -0.1460  0.0859
   82loPI   C5A 1307   6.704  11.878   8.284  0.1481 -0.0816  0.0428
   82loPI   C6A 1308   6.853  11.880   7.918  0.2143  0.2060 -0.0989
   82loPI   C1B 1309   6.999  11.020   9.447 -0.0527 -0.0406  0.2500
   82loPI   C2B 1310   6.965  11.218   9.000 -0.1305  0.1480 -0.0606
   82loPI   C3B 1311   6.898  11.201   8.626  0.1580 -0.2780 -0.1284
   82loPI   C4B 1312   6.972  11.389   8.187  0.0957  0.0470 -0.2802
   83loPI    C1 1313  15.757  14.959  11.027 -0.1175 -0.1047  0.0695
   83loPI    C2 1314  15.945  15.304  11.101 -0.1880 -0.0677  0.0763
   83loPI    C3 1315  15.987  14.995  11.352 -0.2261 -0.0231  0.1377
   83loPI   PO4 1316  15.879  14.929  10.761 -0.3461  0.3346  0.4994
   83loPI   GL1 1317  15.802  15.059  10.294 -0.1083 -0.1466 -0.0649
   83loPI   GL2 1318  15.830  14.746  10.250  0.0498 -0.5549 -0.3046
   83loPI   C1A 1319  15.788  15.281   9.967 -0.0246  0.3451 -0.0511
   83loPI   C2A 1320  15.762  15.180   9.584 -0.0466  0.1650 -0.0028
   83loPI   C3A 1321  15.578  15.105   9.164 -0.3194 -0.0459 -0.0775
   83loPI   C4A 1322  15.710  15.170   8.758 -0.4713  0.2578  0.0046
   83loPI   C5A 1323  15.479  15.239   8.406  0.0285 -0.0355 -0.1731
   83loPI   C6A 1324  15.280  15.360   7.986  0.0031 -0.1588  0.0300
   83loPI   C1B 1325  15.661  14.714   9.912  0.0852  0.3682 -0.2057
   83loPI   C2B 1326  15.551  14.669   9.375  0.0459 -0.3677 -0.4309
   83loPI   C3B 1327  15.432  14.636   9.035  0.1839 -0.0724 -0.1503
   83loPI   C4B 1328  15.563  14.682   8.590 -0.4481 -0.3725 -0.3550
   84loPI    C1 1329   3.091   3.566  10.817 -0.0886  0.0223 -0.1514
   84loPI    C2 1330   3.060   3.938  10.671  0.1560  0.0593 -0.1126
   84loPI    C3 1331   3.334   3.687  10.523 -0.0203 -0.1128 -0.1510
   84loPI   PO4 1332   2.893   3.437  10.815  0.0070  0.1308  0.0513
   84loPI   GL1 1333   2.521   3.426  10.486  0.0985  0.0129 -0.0241
   84loPI   GL2 1334   2.803   3.569  10.355 -0.1143  0.4750  0.2154
   84loPI   C1A 1335   2.273   3.432  10.128 -0.1415 -0.0709  0.2652
   84loPI   C2A 1336   2.348   3.259   9.785  0.1618 -0.3516  0.1193
   84loPI   C3A 1337   2.359   3.203   9.273  0.3478 -0.2968 -0.0416
   84loPI   C4A 1338   2.379   3.180   8.887 -0.3332  0.1148  0.1538
   84loPI   C5A 1339   2.437   3.187   8.449  0.0036 -0.0406 -0.0373
   84loPI   C6A 1340   2.793   2.919   8.247  0.2397 -0.1435  0.1416
   84loPI   C1B 1341   2.843   3.524   9.961  0.2902 -0.1656  0.0615
   84loPI   C2B 1342   2.876   3.443   9.459  0.1769  0.1655  0.0753
   84loPI   C3B 1343   2.843   3.436   9.075 -0.0051 -0.3225 -0.0122
   84loPI   C4B 1344   2.907   3.284   8.684  0.1022  0.0919 -0.1124
   85loPI    C1 1345  10.221   6.057  10.010  0.0057  0.1718  0.0193
   85loPI    C2 1346  10.205   5.762  10.279 -0.1572  0.0798 -0.0890
   85loPI    C3 1347  10.558   5.879  10.131 -0.1038 -0.1670 -0.1615
   85loPI   PO4 1348  10.035   5.942   9.787  0.2783  0.0466 -0.2579
   85loPI   GL1 1349  10.059   5.782   9.365  0.0284 -0.2532  0.0412
   85loPI   GL2 1350  10.110   5.956   9.079 -0.0736 -0.1057  0.2352
   85loPI   C1A 1351   9.981   5.522   8.996  0.2651  0.2582 -0.0671
   85loPI   C2A 1352   9.991   5.291   8.630  0.2895 -0.2281  0.0642
   85loPI   C3A 1353   9.928   5.221   8.226 -0.0146 -0.0216  0.1651
   85loPI   C4A 1354   9.761   5.119   7.883 -0.1088  0.2713 -0.2787
   85loPI   C5A 1355   9.492   5.320   7.494  0.3192 -0.0682 -0.2346
   85loPI   C6A 1356   9.924   5.119   7.349  0.1406  0.0029 -0.0060
   85loPI   C1B 1357   9.942   5.948   8.735 -0.1645  0.1578 -0.4394
   85loPI   C2B 1358   9.977   5.843   8.417  0.0336  0.2189  0.0107
   85loPI   C3B 1359  10.023   5.940   8.048  0.4966 -0.0032  0.2491
   85loPI   C4B 1360  10.120   6.043   7.594 -0.0555 -0.2160 -0.3634
   86loPI    C1 1361   4.473   6.672  10.539  0.1327 -0.0343  0.2579
   86loPI    C2 1362   4.710   6.958  10.685  0.1387  0.2013 -0.1947
   86loPI    C3 1363   4.322   6.953  10.780  0.2116  0.1361  0.1114
   86loPI   PO4 1364   4.586   6.666  10.312  0.3361  0.0941  0.0996
   86loPI   GL1 1365   4.722   6.572   9.993  0.0493  0.1466  0.0335
   86loPI   GL2 1366   4.595   6.289   9.861  0.4089 -0.0648  0.1812
   86loPI   C1A 1367   4.686   6.599   9.534 -0.2535  0.4038 -0.1846
   86loPI   C2A 1368   4.717   6.574   9.106  0.0152 -0.3190  0.4834
   86loPI   C3A 1369   4.766   6.536   8.693 -0.0783 -0.3163 -0.2861
   86loPI   C4A 1370   4.795   6.569   8.232 -0.0308  0.1433  0.0746
   86loPI   C5A 1371   4.740   6.436   7.837 -0.2048 -0.1403  0.0997
   86loPI   C6A 1372   4.560   6.118   7.634  0.2569 -0.1557  0.1026
   86loPI   C1B 1373   4.647   6.063   9.437  0.1120  0.1663  0.0130
   86loPI   C2B 1374   4.622   5.996   8.963  0.0147  0.0532 -0.0414
   86loPI   C3B 1375   4.650   6.039   8.552  0.1996  0.0974 -0.2363
   86loPI   C4B 1376   4.666   5.987   8.103  0.0010 -0.0833  0.0094
   87loPI    C1 1377  10.628  12.223  10.356  0.0473  0.1623  0.1820
   87loPI    C2 1378  10.339  11.965  10.455 -0.0021 -0.0178 -0.3976
   87loPI    C3 1379  10.721  11.881  10.541 -0.0954  0.1391  0.2115
   87loPI   PO4 1380  10.522  12.169  10.036 -0.5397  0.1595  0.0740
   87loPI   GL1 1381  10.395  12.081   9.709 -0.1966 -0.3856  0.5814
   87loPI   GL2 1382  10.446  12.440   9.612  0.2024 -0.2828  0.2274
   87loPI   C1A 1383  10.382  12.176   9.206  0.1210 -0.1801 -0.1513
   87loPI   C2A 1384  10.352  12.447   8.829  0.0059  0.5864  0.0080
   87loPI   C3A 1385  10.292  12.744   8.600  0.3962  0.1537  0.0445
   87loPI   C4A 1386  10.440  13.100   8.240  0.1393 -0.1257 -0.0299
   87loPI   C5A 1387  10.432  13.332   7.827 -0.1808  0.1972 -0.1241
   87loPI   C6A 1388  10.577  13.538   7.409  0.1101  0.0667  0.0038
   87loPI   C1B 1389  10.457  12.700   9.242  0.3171  0.0908 -0.0865
   87loPI   C2B 1390  10.739  12.740   8.906 -0.1983  0.0977  0.0843
   87loPI   C3B 1391  10.885  12.784   8.336  0.3852 -0.2370  0.2248
   87loPI   C4B 1392  10.777  12.951   7.924  0.1029  0.3320 -0.2202
   88loPI    C1 1393   6.206   0.627  11.039 -0.2427 -0.1110 -0.1634
   88loPI    C2 1394   6.161   0.503  11.416 -0.1917 -0.0281 -0.1297
   88loPI    C3 1395   6.256   0.884  11.342 -0.3624 -0.0048 -0.2325
   88loPI   PO4 1396   6.056   0.571  10.839 -0.2224 -0.0952 -0.2611
   88loPI   GL1 1397   5.964   0.425  10.502 -0.4262  0.0528 -0.0347
   88loPI   GL2 1398   5.668   0.450  10.545  0.0616 -0.0787 -0.0655
   88loPI   C1A 1399   6.174   0.507  10.112 -0.1300  0.1044 -0.0333
   88loPI   C2A 1400   6.036   0.493   9.642 -0.0398  0.1693  0.1388
   88loPI   C3A 1401   6.075   0.351   9.217 -0.2547  0.1392  0.1329
   88loPI   C4A 1402   6.192   0.386   8.775 -0.1324  0.2899  0.0348
   88loPI   C5A 1403   6.177   0.366   8.327 -0.2887 -0.0940 -0.0500
   88loPI   C6A 1404   6.434   0.459   8.013  0.1880  0.0760 -0.0597
   88loPI   C1B 1405   5.629   0.243  10.171 -0.3465  0.0194  0.2006
   88loPI   C2B 1406   5.504   0.160   9.850  0.2822 -0.1589 -0.1970
   88loPI   C3B 1407   5.648   0.142   9.385  0.3169  0.0689 -0.1146
   88loPI   C4B 1408   5.529   0.187   8.984 -0.6389 -0.1831  0.1054
   89loPI    C1 1409  18.073   1.033  11.001  0.0119  0.1101 -0.0982
   89loPI    C2 1410  18.402   1.103  11.217 -0.0098 -0.2293  0.0498
   89loPI    C3 1411  18.093   0.909  11.381 -0.2879  0.0896 -0.0872
   89loPI   PO4 1412  18.108   0.902  10.821 -0.0838 -0.0899  0.1005
   89loPI   GL1 1413  18.346   0.829  10.421 -0.3436 -0.1158 -0.2564
   89loPI   GL2 1414  18.034   0.827  10.222  0.2341 -0.0431  0.3384
   89loPI   C1A 1415  18.625   0.926  10.140 -0.0630  0.1112  0.0357
   89loPI   C2A 1416  18.697   0.892   9.745  0.2326  0.1713  0.2936
   89loPI   C3A 1417  18.708   0.840   9.238  0.1905 -0.1545 -0.0782
   89loPI   C4A 1418  18.673   0.840   8.882 -0.2963  0.0389  0.4902
   89loPI   C5A 1419  18.861   0.812   8.503 -0.0324 -0.2995 -0.2181
   89loPI   C6A 1420  19.102   0.609   8.377 -0.3365  0.1051 -0.0424
   89loPI   C1B 1421  18.090   0.619   9.781 -0.2006  0.0610 -0.1668
   89loPI   C2B 1422  18.177   0.634   9.367 -0.0225 -0.0195  0.0907
   89loPI   C3B 1423  18.051   0.752   8.941  0.0823 -0.1028 -0.3003
   89loPI   C4B 1424  18.125   0.621   8.504  0.0933  0.1161 -0.3082
   90loPI    C1 1425  10.572   9.631  10.189  0.2112  0.0958 -0.1324
   90loPI    C2 1426  10.575   9.665  10.587 -0.1819  0.2233 -0.1356
   90loPI    C3 1427  10.814   9.399  10.407 -0.0324  0.1344  0.1860
   90loPI   PO4 1428  10.539   9.792  10.076 -0.0436 -0.4234 -0.3081
   90loPI   GL1 1429  10.667   9.938   9.588 -0.1579  0.2266 -0.0867
   90loPI   GL2 1430  10.957   9.818   9.438 -0.1726 -0.0145 -0.1315
   90loPI   C1A 1431  10.452  10.103   9.247 -0.2416 -0.1679 -0.3252
   90loPI   C2A 1432  10.426  10.105   8.883 -0.1547  0.2944 -0.0678
   90loPI   C3A 1433  10.303  10.058   8.413  0.0832 -0.0943 -0.3762
   90loPI   C4A 1434  10.140  10.348   8.097  0.1542  0.0293  0.0562
   90loPI   C5A 1435   9.962  10.414   7.701  0.1052 -0.1040  0.1608
   90loPI   C6A 1436   9.774  10.015   7.640 -0.2493 -0.1460 -0.1917
   90loPI   C1B 1437  10.835   9.850   9.027 -0.0860  0.0313  0.1726
   90loPI   C2B 1438  10.793   9.966   8.516 -0.2357  0.1510 -0.0894
   90loPI   C3B 1439  10.872  10.197   8.165  0.3772  0.3894  0.1678
   90loPI   C4B 1440  11.109  10.253   7.770 -0.2771  0.0174 -0.1671
   91loPI    C1 1441   8.904   3.574  10.690  0.0133 -0.3039  0.0549
   91loPI    C2 1442   9.137   3.683  10.997 -0.0521 -0.0823  0.0276
   91loPI    C3 1443   8.739   3.686  11.037 -0.0616 -0.0221 -0.0688
   91loPI   PO4 1444   8.954   3.346  10.596 -0.0692  0.3368  0.2831
   91loPI   GL1 1445   8.911   3.211  10.117  0.0943 -0.1683  0.0534
   91loPI   GL2 1446   8.745   3.440  10.100 -0.0138 -0.0843 -0.1971
   91loPI   C1A 1447   8.845   3.333   9.571  0.1090 -0.1658  0.0850
   91loPI   C2A 1448   8.786   3.312   9.134  0.0349  0.2160 -0.0766
   91loPI   C3A 1449   8.767   3.319   8.680 -0.1150  0.2815  0.2215
   91loPI   C4A 1450   8.743   3.299   8.250 -0.2427  0.1261  0.2069
   91loPI   C5A 1451   8.686   3.696   7.967 -0.1012  0.2741 -0.2114
   91loPI   C6A 1452   8.346   3.836   7.923 -0.0878 -0.0295 -0.0570
   91loPI   C1B 1453   8.919   3.816   9.770 -0.1527 -0.2299  0.1966
   91loPI   C2B 1454   8.857   3.962   9.239  0.2245  0.1067  0.1468
   91loPI   C3B 1455   8.913   3.918   8.754  0.0995 -0.1152 -0.1898
   91loPI   C4B 1456   8.812   3.897   8.404  0.1502  0.1630  0.0567
   92loPI    C1 1457   2.047  11.538  10.983  0.0052  0.2246  0.2554
   92loPI    C2 1458   2.014  11.142  11.031  0.1669  0.1675 -0.0769
   92loPI    C3 1459   1.847  11.390  11.297  0.2162 -0.1227  0.2316
   92loPI   PO4 1460   1.932  11.580  10.772  0.2076  0.2289 -0.0619
   92loPI   GL1 1461   1.716  11.607  10.424 -0.0304  0.0509 -0.1013
   92loPI   GL2 1462   1.795  11.874  10.392 -0.1233  0.1838  0.0848
   92loPI   C1A 1463   1.667  11.638   9.937 -0.0327 -0.0525  0.0883
   92loPI   C2A 1464   1.852  11.679   9.514 -0.0411  0.2875  0.4576
   92loPI   C3A 1465   1.918  11.720   9.103  0.0301 -0.1228 -0.1610
   92loPI   C4A 1466   1.806  11.755   8.602 -0.1220 -0.5491 -0.4322
   92loPI   C5A 1467   1.791  12.028   8.286 -0.0063  0.0748 -0.1309
   92loPI   C6A 1468   1.909  12.482   8.348  0.4279 -0.3464 -0.3711
   92loPI   C1B 1469   2.160  11.890  10.157 -0.0624 -0.0298 -0.1332
   92loPI   C2B 1470   2.345  11.919   9.788  0.0468 -0.3306  0.0126
   92loPI   C3B 1471   2.341  11.928   9.384  0.0795 -0.0947 -0.1394
   92loPI   C4B 1472   2.353  11.933   8.904 -0.0071  0.3632  0.2027
   93loPI    C1 1473  17.953  14.457  10.778 -0.1858  0.1325  0.0133
   93loPI    C2 1474  18.248  14.214  10.661 -0.2744  0.0852 -0.1156
   93loPI    C3 1475  18.224  14.331  11.043 -0.1061  0.0667 -0.0986
   93loPI   PO4 1476  17.899  14.548  10.619  0.0219 -0.0308  0.2994
   93loPI   GL1 1477  18.055  14.790  10.223  0.2794  0.1226 -0.0743
   93loPI   GL2 1478  17.748  15.032  10.101 -0.1421 -0.2113 -0.2065
   93loPI   C1A 1479  18.301  14.801  10.028  0.4170  0.0938  0.3901
   93loPI   C2A 1480  18.413  14.828   9.721 -0.0847 -0.0084  0.3556
   93loPI   C3A 1481  18.509  14.904   9.310 -0.0386  0.2354 -0.2965
   93loPI   C4A 1482  18.350  14.870   8.896 -0.4457  0.0993  0.2141
   93loPI   C5A 1483  18.323  14.873   8.515  0.3015  0.2605  0.0340
   93loPI   C6A 1484  18.409  15.155   8.201  0.1171  0.1953 -0.1893
   93loPI   C1B 1485  18.028  15.131   9.746  0.2649 -0.0851 -0.3017
   93loPI   C2B 1486  18.046  15.178   9.344 -0.2590 -0.2013  0.1047
   93loPI   C3B 1487  17.932  15.237   8.961 -0.0801  0.1457  0.0682
   93loPI   C4B 1488  17.940  15.153   8.439  0.0258 -0.1249  0.0358
   94loPI    C1 1489  17.868  11.553  10.762  0.1216 -0.1199  0.0884
   94loPI    C2 1490  17.577  11.828  10.768  0.1899 -0.0478  0.1048
   94loPI    C3 1491  17.510  11.463  10.918  0.0957 -0.0439  0.0733
   94loPI   PO4 1492  18.034  11.505  10.533 -0.2303 -0.3195 -0.1359
   94loPI   GL1 1493  17.921  11.624   9.940  0.0353 -0.1208  0.0876
   94loPI   GL2 1494  18.163  11.697  10.070 -0.0534 -0.2559  0.3570
   94loPI   C1A 1495  18.002  11.663   9.488 -0.3181 -0.1446 -0.0691
   94loPI   C2A 1496  17.975  11.659   9.183 -0.0648 -0.2710  0.3027
   94loPI   C3A 1497  17.957  11.787   8.838 -0.0280  0.0645 -0.0908
   94loPI   C4A 1498  17.989  11.866   8.369 -0.0402  0.1186  0.0972
   94loPI   C5A 1499  18.101  12.177   7.977  0.4712  0.4915 -0.4455
   94loPI   C6A 1500  18.313  12.429   7.835  0.1054 -0.5296  0.0838
   94loPI   C1B 1501  18.406  11.868   9.711 -0.1284  0.0762  0.1389
   94loPI   C2B 1502  18.485  11.895   9.220  0.0325  0.2667 -0.1366
   94loPI   C3B 1503  18.449  11.904   8.804  0.0892 -0.0243 -0.0375
   94loPI   C4B 1504  18.447  12.046   8.336 -0.0184  0.1784 -0.0211
   95loPI    C1 1505   3.207  13.923  11.064  0.0569 -0.1612 -0.1189
   95loPI    C2 1506   3.118  14.292  11.188 -0.1422 -0.1912 -0.1701
   95loPI    C3 1507   3.109  13.987  11.446 -0.2418 -0.2025 -0.1868
   95loPI   PO4 1508   2.965  13.852  10.917  0.1845 -0.2597  0.1135
   95loPI   GL1 1509   2.914  13.739  10.495  0.3994 -0.0092  0.1384
   95loPI   GL2 1510   2.693  13.479  10.339 -0.0968  0.2230 -0.0691
   95loPI   C1A 1511   3.167  13.596  10.116  0.0743 -0.1485 -0.0093
   95loPI   C2A 1512   3.081  13.625   9.654  0.0859 -0.3986  0.5006
   95loPI   C3A 1513   3.098  13.580   9.171  0.0091 -0.0216 -0.1084
   95loPI   C4A 1514   3.085  13.735   8.781 -0.4799 -0.1579 -0.0006
   95loPI   C5A 1515   3.206  14.164   8.561 -0.0401  0.1099  0.2284
   95loPI   C6A 1516   3.179  14.424   8.255 -0.0601 -0.0109  0.0090
   95loPI   C1B 1517   2.637  13.485   9.828 -0.0188  0.0227  0.3333
   95loPI   C2B 1518   2.611  13.497   9.388  0.1176 -0.3632  0.1115
   95loPI   C3B 1519   2.641  13.449   8.937 -0.0699 -0.0506  0.1100
   95loPI   C4B 1520   2.672  13.524   8.497  0.5158  0.1292 -0.0679
   96loPI    C1 1521  12.425  11.331  10.417 -0.0447 -0.0728  0.0265
   96loPI    C2 1522  12.222  11.119  10.689 -0.2193 -0.1149 -0.1347
   96loPI    C3 1523  12.568  10.980  10.545 -0.1550 -0.1197  0.0233
   96loPI   PO4 1524  12.279  11.408  10.210  0.1516  0.0589 -0.2581
   96loPI   GL1 1525  12.107  11.482   9.803  0.1164  0.3825  0.1604
   96loPI   GL2 1526  11.750  11.417   9.648  0.0937 -0.2533 -0.0532
   96loPI   C1A 1527  12.097  11.828   9.410 -0.3058  0.2061  0.3781
   96loPI   C2A 1528  11.975  11.874   8.928  0.4267 -0.3171  0.0119
   96loPI   C3A 1529  11.725  12.050   8.559  0.0183  0.0209  0.0255
   96loPI   C4A 1530  11.514  12.189   8.234 -0.3556  0.1435 -0.0472
   96loPI   C5A 1531  11.506  12.508   7.981 -0.0428 -0.2136 -0.0292
   96loPI   C6A 1532  11.703  12.798   7.642 -0.0868  0.1850 -0.4851
   96loPI   C1B 1533  11.615  11.647   9.290 -0.0743  0.0304 -0.0836
   96loPI   C2B 1534  11.263  11.708   9.015  0.0032 -0.1956  0.2154
   96loPI   C3B 1535  11.232  11.841   8.544 -0.0129  0.1878 -0.3566
   96loPI   C4B 1536  11.232  11.726   8.090 -0.1662 -0.2472  0.1464
   97loPI    C1 1537   8.884  15.282  11.368 -0.0745  0.0581 -0.0878
   97loPI    C2 1538   8.999  15.561  11.631 -0.1973  0.1185 -0.0977
   97loPI    C3 1539   8.817  15.229  11.759 -0.0859  0.0603 -0.0895
   97loPI   PO4 1540   8.796  15.453  11.194 -0.1756 -0.0659  0.1568
   97loPI   GL1 1541   8.924  15.490  10.775  0.0944 -0.0470  0.2092
   97loPI   GL2 1542   8.541  15.474  10.711  0.2356  0.1092  0.0029
   97loPI   C1A 1543   8.974  15.815  10.379  0.0018  0.0603 -0.0760
   97loPI   C2A 1544   8.913  15.959  10.013  0.0948  0.0849  0.0553
   97loPI   C3A 1545   8.952  15.984   9.565  0.0707  0.1177 -0.3186
   97loPI   C4A 1546   8.928  15.988   9.147  0.0313  0.2685  0.0202
   97loPI   C5A 1547   9.016  16.143   8.684  0.3284  0.0803  0.2790
   97loPI   C6A 1548   8.793  16.046   8.269  0.1360 -0.0345  0.0562
   97loPI   C1B 1549   8.430  15.697  10.300 -0.0242  0.3354  0.1605
   97loPI   C2B 1550   8.385  15.661   9.812  0.1879 -0.2062 -0.1070
   97loPI   C3B 1551   8.497  15.757   9.414  0.1097 -0.0143 -0.0988
   97loPI   C4B 1552   8.493  15.785   8.926  0.1191 -0.0790 -0.0390
   98loPI    C1 1553   4.165  15.896  11.164 -0.0215  0.2034 -0.0609
   98loPI    C2 1554   4.141  15.612  11.445 -0.0906  0.1802 -0.0902
   98loPI    C3 1555   3.960  15.964  11.501  0.2012  0.3100  0.0557
   98loPI   PO4 1556   4.054  15.850  10.942 -0.0400 -0.0402 -0.0185
   98loPI   GL1 1557   3.968  15.932  10.551  0.1354 -0.1597  0.0447
   98loPI   GL2 1558   3.907  16.286  10.564 -0.0248 -0.2298  0.1599
   98loPI   C1A 1559   3.800  15.878  10.202 -0.2374 -0.0015 -0.1339
   98loPI   C2A 1560   3.819  15.972   9.779  0.2618  0.0680  0.0907
   98loPI   C3A 1561   3.877  15.879   9.302  0.0905 -0.0528 -0.0039
   98loPI   C4A 1562   3.929  15.889   8.765  0.3740 -0.1811  0.2521
   98loPI   C5A 1563   4.004  15.866   8.351  0.0509 -0.1736 -0.1125
   98loPI   C6A 1564   3.812  16.005   7.911 -0.4573 -0.0847 -0.0182
   98loPI   C1B 1565   3.915  16.448  10.100  0.2060 -0.1061  0.2428
   98loPI   C2B 1566   3.915  16.500   9.763  0.1921 -0.2155 -0.0599
   98loPI   C3B 1567   3.815  16.479   9.373 -0.0259  0.0200  0.2937
   98loPI   C4B 1568   3.935  16.360   8.950 -0.1283  0.0470  0.2200
   99loPI    C1 1569   5.867  15.170  10.967 -0.3089  0.0516 -0.3335
   99loPI    C2 1570   5.824  14.797  11.106  0.0552  0.1259 -0.0020
   99loPI    C3 1571   5.612  15.096  11.267  0.0968  0.1319  0.0413
   99loPI   PO4 1572   5.834  15.202  10.792  0.1860 -0.1643  0.1528
   99loPI   GL1 1573   5.795  15.197  10.411  0.0918  0.0799 -0.0372
   99loPI   GL2 1574   5.593  14.957  10.311  0.0268 -0.1483 -0.2213
   99loPI   C1A 1575   5.973  15.273  10.069 -0.0287  0.0987 -0.0828
   99loPI   C2A 1576   6.030  15.358   9.654 -0.0546 -0.2247 -0.0657
   99loPI   C3A 1577   6.031  15.257   9.299 -0.0026 -0.1033  0.1458
   99loPI   C4A 1578   6.065  15.258   8.800  0.0767 -0.0811 -0.1768
   99loPI   C5A 1579   5.938  15.439   8.402  0.0697  0.0364 -0.0618
   99loPI   C6A 1580   5.977  15.528   7.911 -0.3049 -0.0750 -0.0133
   99loPI   C1B 1581   5.491  15.144   9.996 -0.2350  0.1992 -0.0145
   99loPI   C2B 1582   5.547  15.108   9.548 -0.0978  0.0061  0.2148
   99loPI   C3B 1583   5.652  15.022   9.041  0.1520 -0.5252 -0.1630
   99loPI   C4B 1584   5.414  15.124   8.628 -0.0500  0.2716  0.3004
  100loPI    C1 1585  12.965  14.623  10.943 -0.0578  0.1967 -0.2849
  100loPI    C2 1586  12.697  14.709  11.227  0.0911 -0.1287 -0.0401
  100loPI    C3 1587  13.066  14.862  11.246  0.0672 -0.0610 -0.1200
  100loPI   PO4 1588  12.908  14.786  10.726 -0.1487  0.0040 -0.2756
  100loPI   GL1 1589  13.033  15.116  10.403 -0.1736  0.3810  0.2824
  100loPI   GL2 1590  12.720  15.293  10.524  0.1042 -0.2811 -0.2038
  100loPI   C1A 1591  12.863  15.061  10.065  0.1683 -0.3227  0.0693
  100loPI   C2A 1592  12.906  15.159   9.636  0.0461 -0.0093 -0.2246
  100loPI   C3A 1593  12.842  15.170   9.200 -0.1706 -0.2465  0.1257
  100loPI   C4A 1594  12.913  15.042   8.839 -0.0814 -0.1654 -0.1672
  100loPI   C5A 1595  12.820  14.739   8.435 -0.0188  0.4168 -0.2394
  100loPI   C6A 1596  12.966  14.565   8.151  0.0709  0.1457 -0.0500
  100loPI   C1B 1597  12.450  15.361  10.184  0.2488 -0.1421 -0.0311
  100loPI   C2B 1598  12.452  15.479   9.827 -0.0785 -0.0152 -0.2876
  100loPI   C3B 1599  12.442  15.450   9.423  0.4801 -0.1768  0.1619
  100loPI   C4B 1600  12.483  15.458   9.068  0.0263  0.0833  0.0401
  101loPI    C1 1601  17.271  11.231  10.140 -0.1618  0.0216  0.1402
  101loPI    C2 1602  17.553  11.442  10.330 -0.2556  0.2417  0.0382
  101loPI    C3 1603  17.230  11.313  10.529 -0.0026 -0.1642  0.1980
  101loPI   PO4 1604  17.472  11.033  10.054 -0.0998  0.0292  0.0887
  101loPI   GL1 1605  17.795  10.905   9.867  0.3954 -0.1215 -0.0240
  101loPI   GL2 1606  17.822  10.647   9.780 -0.1264  0.1974  0.0926
  101loPI   C1A 1607  17.978  11.215   9.655 -0.1241  0.1488 -0.2810
  101loPI   C2A 1608  17.962  11.119   9.197 -0.3536 -0.1597 -0.2535
  101loPI   C3A 1609  17.930  11.257   8.809  0.1302 -0.0880  0.0243
  101loPI   C4A 1610  17.915  11.334   8.352 -0.2844  0.2060  0.0876
  101loPI   C5A 1611  17.793  11.670   7.928 -0.1281 -0.0122 -0.0382
  101loPI   C6A 1612  18.041  11.942   7.498 -0.0603  0.0972 -0.1854
  101loPI   C1B 1613  17.844  10.667   9.311 -0.4033  0.2195 -0.2869
  101loPI   C2B 1614  17.785  10.736   8.867 -0.1678 -0.2089 -0.1449
  101loPI   C3B 1615  17.749  10.875   8.444  0.1786 -0.1304  0.1264
  101loPI   C4B 1616  17.907  10.683   8.171 -0.2898  0.1486  0.0340
  102loPI    C1 1617   7.658   6.081  10.218 -0.0312 -0.1411  0.1505
  102loPI    C2 1618   8.007   5.941  10.354  0.0205  0.0349  0.2014
  102loPI    C3 1619   7.873   6.297  10.478  0.1310  0.2614 -0.3028
  102loPI   PO4 1620   7.644   6.057   9.936 -0.0155 -0.1790  0.1268
  102loPI   GL1 1621   7.856   6.056   9.546  0.1203  0.1509  0.0092
  102loPI   GL2 1622   7.829   6.412   9.472  0.3621 -0.1195  0.0092
  102loPI   C1A 1623   7.905   5.915   9.144  0.0386  0.0413 -0.0437
  102loPI   C2A 1624   7.868   5.928   8.670 -0.2791 -0.4013 -0.2098
  102loPI   C3A 1625   7.905   6.256   8.265 -0.1039  0.2020 -0.1229
  102loPI   C4A 1626   7.743   6.329   7.889 -0.2275 -0.0675 -0.1628
  102loPI   C5A 1627   7.733   6.305   7.445  0.1475  0.0066  0.1459
  102loPI   C6A 1628   7.337   6.452   7.139  0.1419 -0.0449 -0.0947
  102loPI   C1B 1629   7.686   6.274   8.988  0.2583  0.0296 -0.0440
  102loPI   C2B 1630   7.542   6.338   8.552 -0.0234  0.1944  0.1354
  102loPI   C3B 1631   7.353   6.538   8.125  0.1817 -0.1104  0.3064
  102loPI   C4B 1632   7.317   6.677   7.711  0.2101  0.0260  0.1213
  103loPI    C1 1633  13.438   3.548  10.361 -0.0400  0.4851 -0.0122
  103loPI    C2 1634  13.250   3.279  10.590  0.0644  0.3598 -0.0728
  103loPI    C3 1635  13.503   3.541  10.755  0.0774  0.3224 -0.0334
  103loPI   PO4 1636  13.194   3.546  10.138  0.1618 -0.1964  0.0052
  103loPI   GL1 1637  13.024   3.594   9.670 -0.1435 -0.2439  0.0130
  103loPI   GL2 1638  13.076   3.240   9.757 -0.2719  0.0788  0.1923
  103loPI   C1A 1639  12.842   3.566   9.224 -0.0713 -0.0285  0.1694
  103loPI   C2A 1640  12.758   3.541   8.840  0.2792 -0.1071  0.3298
  103loPI   C3A 1641  12.872   3.461   8.368  0.4252 -0.2066 -0.3281
  103loPI   C4A 1642  12.782   3.506   7.883  0.1320 -0.2831  0.0816
  103loPI   C5A 1643  12.619   3.179   7.643 -0.0955 -0.1494 -0.0128
  103loPI   C6A 1644  12.418   2.852   7.777 -0.1538 -0.1925  0.0932
  103loPI   C1B 1645  13.017   3.012   9.381 -0.0218 -0.0551 -0.2643
  103loPI   C2B 1646  12.871   3.018   8.952  0.0741  0.3753 -0.2085
  103loPI   C3B 1647  12.859   2.885   8.509 -0.3045  0.1941 -0.1467
  103loPI   C4B 1648  12.782   3.041   8.086 -0.0209 -0.1180  0.1659
  104loPI    C1 1649  17.925   5.555  10.536  0.0396  0.0421  0.0234
  104loPI    C2 1650  17.558   5.659  10.658  0.0906  0.1745  0.0661
  104loPI    C3 1651  17.680   5.279  10.691 -0.0577  0.1215  0.0123
  104loPI   PO4 1652  17.965   5.639  10.329  0.2645  0.1267 -0.2779
  104loPI   GL1 1653  18.240   5.720   9.978 -0.0758  0.1124  0.1965
  104loPI   GL2 1654  17.828   5.637   9.878 -0.2272  0.0723  0.6053
  104loPI   C1A 1655  18.407   5.722   9.657 -0.0032 -0.0900 -0.0103
  104loPI   C2A 1656  18.504   5.772   9.164  0.0583  0.0709  0.0406
  104loPI   C3A 1657  18.478   5.799   8.709 -0.2866  0.0219  0.0535
  104loPI   C4A 1658  18.576   5.644   8.354 -0.2459  0.1264  0.1277
  104loPI   C5A 1659  18.737   5.853   8.000  0.1181  0.1267  0.1284
  104loPI   C6A 1660  18.625   6.120   7.636 -0.2880  0.3681 -0.0009
  104loPI   C1B 1661  18.017   5.653   9.365 -0.1085  0.2050  0.0547
  104loPI   C2B 1662  18.084   5.554   8.937 -0.1992 -0.4030 -0.0446
  104loPI   C3B 1663  18.065   5.556   8.505  0.2556  0.1245  0.3181
  104loPI   C4B 1664  17.995   5.463   8.074 -0.0446 -0.3928 -0.2018
  105loPI    C1 1665   4.351  10.724  10.650 -0.1741  0.0821  0.1925
  105loPI    C2 1666   4.590  10.958  10.869 -0.0200  0.0768  0.0322
  105loPI    C3 1667   4.542  10.573  10.967 -0.0467  0.1040  0.1269
  105loPI   PO4 1668   4.194  10.884  10.606  0.0147  0.2068 -0.2106
  105loPI   GL1 1669   3.934  11.012  10.224 -0.0143 -0.1193  0.1576
  105loPI   GL2 1670   4.017  10.600  10.265 -0.0736  0.2063  0.0438
  105loPI   C1A 1671   3.575  11.006   9.839 -0.0397  0.1571 -0.0244
  105loPI   C2A 1672   3.527  11.007   9.314 -0.0380  0.0906  0.4317
  105loPI   C3A 1673   3.656  10.918   8.839 -0.0873 -0.1888 -0.3478
  105loPI   C4A 1674   3.502  10.887   8.445 -0.0587 -0.2035 -0.0703
  105loPI   C5A 1675   3.441  11.301   8.168  0.1638  0.0272 -0.1989
  105loPI   C6A 1676   3.334  11.648   8.038 -0.1705 -0.0799 -0.0186
  105loPI   C1B 1677   3.957  10.639   9.775 -0.2242  0.1194 -0.0419
  105loPI   C2B 1678   3.920  10.734   9.350  0.2792 -0.1121 -0.2510
  105loPI   C3B 1679   3.987  10.572   8.856  0.0174  0.0139  0.1638
  105loPI   C4B 1680   4.079  10.581   8.413 -0.0305  0.0353  0.0714
  106loPI    C1 1681   8.435   5.669  10.336  0.2344 -0.3474  0.1111
  106loPI    C2 1682   8.478   6.009  10.543  0.1413 -0.1470 -0.1908
  106loPI    C3 1683   8.549   5.656  10.719  0.1447  0.0216  0.1539
  106loPI   PO4 1684   8.611   5.635  10.131 -0.1803  0.0227 -0.1189
  106loPI   GL1 1685   8.565   5.458   9.781 -0.0897  0.1119 -0.0314
  106loPI   GL2 1686   8.267   5.339   9.596 -0.0220  0.0804 -0.1863
  106loPI   C1A 1687   8.689   5.369   9.307  0.0706  0.0238 -0.5132
  106loPI   C2A 1688   8.636   5.349   8.877 -0.0092 -0.0408  0.0646
  106loPI   C3A 1689   8.543   5.315   8.495  0.2790 -0.0530  0.0141
  106loPI   C4A 1690   8.432   5.179   8.063  0.2109 -0.0734  0.0340
  106loPI   C5A 1691   8.450   5.145   7.657 -0.2769  0.0267  0.0756
  106loPI   C6A 1692   8.565   4.868   7.268 -0.1003  0.2022 -0.0996
  106loPI   C1B 1693   8.175   5.077   9.212 -0.2605  0.0447 -0.3825
  106loPI   C2B 1694   8.097   5.100   8.853 -0.0763 -0.1300  0.0522
  106loPI   C3B 1695   8.054   5.064   8.417 -0.0484 -0.1198 -0.1207
  106loPI   C4B 1696   7.886   5.256   7.948 -0.2672  0.3247 -0.0129
  107loPI    C1 1697   2.203   6.128  10.706 -0.0286  0.1369 -0.0214
  107loPI    C2 1698   2.468   6.395  10.844  0.1199  0.0421 -0.1201
  107loPI    C3 1699   2.221   6.208  11.097 -0.2273  0.5271 -0.0874
  107loPI   PO4 1700   2.121   6.235  10.499  0.2248 -0.0335 -0.0665
  107loPI   GL1 1701   2.229   6.094  10.155 -0.0426 -0.3102  0.1304
  107loPI   GL2 1702   1.970   6.007  10.008  0.1188 -0.2004  0.2078
  107loPI   C1A 1703   2.419   6.065   9.748  0.1789 -0.2362  0.1699
  107loPI   C2A 1704   2.368   6.052   9.315 -0.3033  0.0614 -0.1856
  107loPI   C3A 1705   2.448   6.128   8.964 -0.0532  0.0209 -0.0224
  107loPI   C4A 1706   2.429   6.135   8.425 -0.1384 -0.1475  0.0320
  107loPI   C5A 1707   2.594   6.250   8.015 -0.1412  0.1454  0.1604
  107loPI   C6A 1708   2.739   6.037   7.580  0.2113 -0.1479 -0.0920
  107loPI   C1B 1709   1.852   5.891   9.591  0.3822  0.0174 -0.0630
  107loPI   C2B 1710   1.953   5.849   9.146  0.1847  0.0845 -0.1008
  107loPI   C3B 1711   2.015   5.916   8.748 -0.1203 -0.0801  0.4648
  107loPI   C4B 1712   2.002   5.916   8.314  0.4472 -0.1194  0.2972
  108loPI    C1 1713  11.925  10.572  10.257 -0.4906  0.0200 -0.0713
  108loPI    C2 1714  11.854  10.420  10.620 -0.4034 -0.1191 -0.1115
  108loPI    C3 1715  12.203  10.600  10.544 -0.4340 -0.0624 -0.1175
  108loPI   PO4 1716  11.897  10.362  10.094 -0.4499  0.0260  0.1499
  108loPI   GL1 1717  11.838  10.172   9.599  0.3826  0.0203  0.1078
  108loPI   GL2 1718  12.018   9.898   9.428 -0.1698  0.0348 -0.0111
  108loPI   C1A 1719  11.794  10.283   9.154 -0.2330 -0.1152  0.0962
  108loPI   C2A 1720  11.890  10.408   8.747  0.2820  0.0291 -0.1632
  108loPI   C3A 1721  11.892  10.282   8.328 -0.1023 -0.2163 -0.2255
  108loPI   C4A 1722  11.886  10.324   7.899  0.1079 -0.5497 -0.0495
  108loPI   C5A 1723  11.920  10.471   7.506  0.1176  0.0697  0.2184
  108loPI   C6A 1724  12.111  10.856   7.379  0.2408 -0.2930  0.4795
  108loPI   C1B 1725  11.935   9.819   9.022 -0.0969  0.3352 -0.2621
  108loPI   C2B 1726  11.880   9.862   8.568  0.0303 -0.2243  0.1211
  108loPI   C3B 1727  11.662   9.539   8.267  0.1464 -0.2102 -0.0716
  108loPI   C4B 1728  11.473   9.340   7.974 -0.0931 -0.4959  0.1565
  109loPI    C1 1729  17.047  10.186   9.878 -0.0632 -0.2240 -0.0339
  109loPI    C2 1730  17.209   9.906  10.114  0.2571 -0.0044  0.0133
  109loPI    C3 1731  17.061  10.241  10.274  0.2209  0.0219 -0.0747
  109loPI   PO4 1732  17.036  10.034   9.663 -0.1295 -0.1417  0.0057
  109loPI   GL1 1733  17.046  10.067   9.300 -0.2501 -0.0623 -0.0933
  109loPI   GL2 1734  17.250   9.773   9.186  0.2229  0.1241 -0.1614
  109loPI   C1A 1735  17.105  10.118   8.829  0.4245  0.0310  0.2811
  109loPI   C2A 1736  16.975  10.334   8.425 -0.0158  0.0036  0.0048
  109loPI   C3A 1737  16.904  10.453   8.047  0.0210  0.0134  0.0573
  109loPI   C4A 1738  16.506  10.387   7.671  0.0078 -0.0821 -0.1235
  109loPI   C5A 1739  16.272  10.694   7.527 -0.0231  0.4238 -0.0288
  109loPI   C6A 1740  16.074  10.940   7.201  0.2217  0.1702 -0.1136
  109loPI   C1B 1741  17.418   9.736   8.803  0.0991  0.0024 -0.1699
  109loPI   C2B 1742  17.716   9.698   8.468 -0.1509 -0.1385 -0.0450
  109loPI   C3B 1743  17.576   9.691   8.210 -0.2134  0.0902 -0.0925
  109loPI   C4B 1744  17.309  10.014   8.226  0.1201 -0.3414 -0.0649
  110loPI    C1 1745   0.563   4.574  10.641  0.0206  0.0937 -0.2692
  110loPI    C2 1746   0.701   4.941  10.719  0.1287  0.0449 -0.2284
  110loPI    C3 1747   0.571   4.709  11.018  0.3346 -0.0588 -0.2183
  110loPI   PO4 1748   0.788   4.508  10.488  0.1282 -0.1194 -0.1412
  110loPI   GL1 1749   0.944   4.097  10.373  0.1271 -0.0063 -0.0607
  110loPI   GL2 1750   0.656   4.047  10.148  0.1548  0.0043 -0.4085
  110loPI   C1A 1751   1.177   4.162   9.997  0.0517 -0.2248 -0.0293
  110loPI   C2A 1752   1.158   4.160   9.592  0.2921 -0.3074 -0.0431
  110loPI   C3A 1753   1.088   4.174   9.178 -0.0212  0.1681  0.2292
  110loPI   C4A 1754   1.214   4.066   8.776 -0.0989 -0.0751  0.2156
  110loPI   C5A 1755   1.201   4.142   8.296  0.0824 -0.1152 -0.0112
  110loPI   C6A 1756   1.198   4.266   7.853  0.2347 -0.0445 -0.0782
  110loPI   C1B 1757   0.544   4.022   9.660 -0.1499  0.0020 -0.1546
  110loPI   C2B 1758   0.679   4.012   9.298 -0.0437  0.0120  0.1265
  110loPI   C3B 1759   0.740   3.956   8.823  0.0325  0.0709 -0.2115
  110loPI   C4B 1760   0.822   3.883   8.376 -0.0324  0.0906 -0.0710
  111loPI    C1 1761   9.039  12.163  10.574  0.1319  0.1231  0.2595
  111loPI    C2 1762   9.140  11.778  10.605  0.2660  0.1676  0.3868
  111loPI    C3 1763   8.854  11.929  10.840 -0.0437  0.0618  0.0857
  111loPI   PO4 1764   9.065  12.134  10.250  0.2065  0.2379 -0.2280
  111loPI   GL1 1765   9.055  12.429   9.926  0.1812  0.1352  0.1413
  111loPI   GL2 1766   9.319  12.574   9.937 -0.1375  0.3082  0.3906
  111loPI   C1A 1767   8.970  12.448   9.506  0.2042 -0.0662 -0.2477
  111loPI   C2A 1768   8.991  12.530   8.991  0.0780  0.0638 -0.1504
  111loPI   C3A 1769   8.898  12.658   8.580  0.2127  0.0320 -0.1352
  111loPI   C4A 1770   8.844  12.907   8.217 -0.4170  0.0685  0.0810
  111loPI   C5A 1771   9.006  12.966   7.865 -0.1281 -0.0133 -0.0614
  111loPI   C6A 1772   9.200  12.852   7.547  0.1891 -0.3045 -0.3921
  111loPI   C1B 1773   9.585  12.804   9.693  0.0144 -0.1006  0.2937
  111loPI   C2B 1774   9.521  12.812   9.256  0.0844  0.2114 -0.1361
  111loPI   C3B 1775   9.377  12.750   8.857  0.0726  0.1726  0.0151
  111loPI   C4B 1776   9.382  12.790   8.390  0.2019 -0.1425  0.1772
  112loPI    C1 1777  10.565  11.498  10.282 -0.0295 -0.1042  0.0410
  112loPI    C2 1778  10.172  11.425  10.297 -0.0356 -0.0685  0.0561
  112loPI    C3 1779  10.371  11.519  10.631 -0.0832  0.2692 -0.0066
  112loPI   PO4 1780  10.572  11.628  10.096 -0.1089  0.1049 -0.1675
  112loPI   GL1 1781  10.576  11.614   9.706  0.1116 -0.0347  0.3553
  112loPI   GL2 1782  10.769  11.876   9.432  0.0278  0.0916 -0.3389
  112loPI   C1A 1783  10.416  11.645   9.258  0.1151  0.2679 -0.0560
  112loPI   C2A 1784  10.328  11.522   8.800 -0.4030  0.1384  0.0609
  112loPI   C3A 1785  10.208  11.755   8.317 -0.1302  0.0109 -0.0645
  112loPI   C4A 1786  10.410  11.848   7.851 -0.2274  0.0352 -0.0583
  112loPI   C5A 1787  10.840  11.946   7.778 -0.0257  0.0664 -0.0025
  112loPI   C6A 1788  11.265  12.055   7.756  0.5002  0.1197 -0.0035
  112loPI   C1B 1789  10.712  11.830   8.941 -0.1666  0.0254  0.2606
  112loPI   C2B 1790  10.419  11.972   8.740 -0.1659  0.1923  0.2291
  112loPI   C3B 1791  10.217  12.217   8.407 -0.0423  0.2364 -0.2272
  112loPI   C4B 1792  10.000  12.150   7.973  0.0145  0.2839  0.2683
  113loPI    C1 1793   1.612   4.623  10.482  0.0224  0.0350 -0.1281
  113loPI    C2 1794   1.644   4.511  10.864 -0.0820  0.0189 -0.1238
  113loPI    C3 1795   1.915   4.759  10.705 -0.0435  0.0330 -0.0370
  113loPI   PO4 1796   1.353   4.742  10.480  0.1262  0.0728  0.0208
  113loPI   GL1 1797   1.081   4.670  10.086  0.0077 -0.1847  0.0177
  113loPI   GL2 1798   1.207   5.001  10.047  0.1971  0.2231  0.3028
  113loPI   C1A 1799   1.255   4.633   9.694 -0.0671 -0.0295  0.1312
  113loPI   C2A 1800   1.199   4.665   9.262 -0.2203 -0.4362 -0.0421
  113loPI   C3A 1801   1.310   4.635   8.832  0.0827 -0.3132 -0.1752
  113loPI   C4A 1802   1.354   4.732   8.383 -0.3005  0.1436  0.3718
  113loPI   C5A 1803   1.342   4.877   7.990 -0.1107 -0.2125  0.1089
  113loPI   C6A 1804   1.005   4.824   7.631 -0.1431 -0.0571 -0.1811
  113loPI   C1B 1805   1.297   5.242   9.599  0.1394 -0.0670  0.1153
  113loPI   C2B 1806   1.297   5.216   9.181  0.0086 -0.0651 -0.0414
  113loPI   C3B 1807   1.311   5.231   8.775  0.0731  0.1008  0.1574
  113loPI   C4B 1808   1.540   5.224   8.364 -0.0817  0.0271 -0.0069
  114loPI    C1 1809   8.798  10.718  10.740 -0.0007 -0.1068 -0.0507
  114loPI    C2 1810   8.774  10.986  11.036  0.2411 -0.0174 -0.1095
  114loPI    C3 1811   8.978  10.646  11.089  0.0882 -0.1080 -0.0965
  114loPI   PO4 1812   8.733  10.869  10.505 -0.0017 -0.1939 -0.1280
  114loPI   GL1 1813   8.869  11.193  10.080  0.0368  0.3004  0.2932
  114loPI   GL2 1814   8.577  11.288  10.032 -0.0500  0.3304 -0.1534
  114loPI   C1A 1815   8.967  11.261   9.598 -0.3293 -0.2156  0.2280
  114loPI   C2A 1816   8.859  11.421   9.292 -0.0830 -0.1793 -0.1681
  114loPI   C3A 1817   8.798  11.467   8.761  0.0501  0.0290  0.0614
  114loPI   C4A 1818   8.853  11.276   8.394 -0.1073 -0.1073 -0.0860
  114loPI   C5A 1819   8.575  11.303   7.957  0.1461  0.3920  0.0122
  114loPI   C6A 1820   8.200  11.529   7.687  0.1894 -0.0473 -0.2402
  114loPI   C1B 1821   8.470  11.322   9.588 -0.0257 -0.0204  0.1213
  114loPI   C2B 1822   8.423  11.244   9.193 -0.1497 -0.3770  0.1069
  114loPI   C3B 1823   8.318  11.188   8.770  0.0465 -0.0706  0.2604
  114loPI   C4B 1824   8.301  11.282   8.338 -0.1489 -0.1036 -0.2466
  115loPI    C1 1825   5.192  16.778  11.003 -0.1647  0.0867  0.1894
  115loPI    C2 1826   5.457  16.952  11.248  0.2226 -0.0798 -0.0998
  115loPI    C3 1827   5.405  16.555  11.258  0.0975 -0.0653 -0.1552
  115loPI   PO4 1828   5.264  16.988  10.764  0.1152 -0.1178  0.4009
  115loPI   GL1 1829   5.346  16.913  10.332 -0.0111  0.1017 -0.1615
  115loPI   GL2 1830   5.666  17.075  10.457 -0.1173 -0.1764  0.1056
  115loPI   C1A 1831   5.337  16.994   9.868  0.0042 -0.3080 -0.1540
  115loPI   C2A 1832   5.498  16.996   9.460  0.1499  0.0521  0.1035
  115loPI   C3A 1833   5.396  16.967   9.059  0.0506  0.3597 -0.2306
  115loPI   C4A 1834   5.378  16.836   8.652  0.3135  0.3802 -0.2906
  115loPI   C5A 1835   5.378  16.707   8.279  0.1008  0.2829 -0.2262
  115loPI   C6A 1836   5.096  16.701   7.882  0.1130  0.3693 -0.1348
  115loPI   C1B 1837   5.765  17.179   9.986 -0.0883 -0.1095 -0.0032
  115loPI   C2B 1838   5.892  17.240   9.617  0.1040 -0.3092  0.2136
  115loPI   C3B 1839   5.896  17.132   9.136 -0.1572 -0.2215 -0.0845
  115loPI   C4B 1840   5.899  17.257   8.712 -0.2134 -0.2124  0.0103
  116loPI    C1 1841  12.235  16.554  11.318  0.2789  0.0144  0.1045
  116loPI    C2 1842  11.886  16.662  11.481  0.0710  0.0298 -0.3368
  116loPI    C3 1843  12.214  16.880  11.549 -0.0067  0.0305  0.0593
  116loPI   PO4 1844  12.154  16.421  10.942 -0.1409 -0.0194  0.1627
  116loPI   GL1 1845  12.040  16.568  10.560 -0.1307  0.0250  0.1051
  116loPI   GL2 1846  12.155  16.892  10.583  0.1208 -0.0844 -0.1587
  116loPI   C1A 1847  12.106  16.384  10.224 -0.0650 -0.1593  0.1547
  116loPI   C2A 1848  12.130  16.308   9.768 -0.0054 -0.4602  0.0531
  116loPI   C3A 1849  12.135  16.191   9.320  0.2207 -0.0164  0.3287
  116loPI   C4A 1850  12.222  16.328   8.860 -0.1175 -0.0213 -0.1695
  116loPI   C5A 1851  12.353  16.360   8.453  0.0220 -0.3365  0.3300
  116loPI   C6A 1852  12.500  16.589   8.160  0.1042  0.3212 -0.0717
  116loPI   C1B 1853  12.222  16.817  10.078  0.1056 -0.0268 -0.0738
  116loPI   C2B 1854  12.181  16.760   9.582 -0.0507  0.1888 -0.3201
  116loPI   C3B 1855  12.236  16.811   9.106  0.1718 -0.3794  0.0030
  116loPI   C4B 1856  12.246  16.792   8.673 -0.2095 -0.2205  0.1300
  117loPI    C1 1857  15.233  10.501  10.388 -0.3630 -0.2548  0.0770
  117loPI    C2 1858  15.280  10.709  10.726 -0.2618 -0.0958 -0.0332
  117loPI    C3 1859  15.444  10.347  10.690 -0.7128 -0.3424  0.2827
  117loPI   PO4 1860  15.267  10.642  10.131  0.0005  0.1448  0.0165
  117loPI   GL1 1861  15.152  10.558   9.644 -0.0036  0.1598  0.0418
  117loPI   GL2 1862  14.868  10.584   9.530 -0.3196  0.0674 -0.0703
  117loPI   C1A 1863  15.144  10.935   9.407 -0.0049  0.0435  0.3736
  117loPI   C2A 1864  15.038  11.022   8.981 -0.0511 -0.0991  0.0673
  117loPI   C3A 1865  15.034  10.984   8.646 -0.1719 -0.4618  0.2156
  117loPI   C4A 1866  14.902  10.974   8.273 -0.2988 -0.0082  0.1137
  117loPI   C5A 1867  15.144  10.965   7.854  0.2002 -0.1108 -0.2830
  117loPI   C6A 1868  15.269  10.632   7.513 -0.0901  0.0183  0.0134
  117loPI   C1B 1869  14.807  10.529   9.087  0.1151 -0.0820 -0.0663
  117loPI   C2B 1870  14.821  10.459   8.753 -0.0206  0.0255 -0.2542
  117loPI   C3B 1871  14.978  10.485   8.276 -0.0064  0.0952  0.2100
  117loPI   C4B 1872  14.988  10.455   7.880  0.2769  0.0754 -0.1235
  118loPI    C1 1873   1.942  10.020  10.460  0.0550 -0.1166 -0.0113
  118loPI    C2 1874   2.068   9.810  10.776 -0.0296  0.2871  0.2988
  118loPI    C3 1875   2.024  10.206  10.804 -0.2465  0.3016 -0.1582
  118loPI   PO4 1876   2.074   9.967  10.261  0.0460  0.0930  0.4047
  118loPI   GL1 1877   2.089   9.837   9.900  0.0440  0.2099 -0.0027
  118loPI   GL2 1878   2.286   9.495   9.990 -0.1778 -0.0870  0.0595
  118loPI   C1A 1879   2.026   9.826   9.437 -0.0305  0.1406 -0.2796
  118loPI   C2A 1880   2.010   9.818   8.993 -0.3360  0.1665  0.3257
  118loPI   C3A 1881   2.049   9.855   8.565  0.1143 -0.2634  0.3588
  118loPI   C4A 1882   2.082  10.002   8.153 -0.0764  0.1538 -0.5065
  118loPI   C5A 1883   2.218   9.961   7.710  0.0447 -0.1591  0.0245
  118loPI   C6A 1884   2.349   9.727   7.364 -0.2065  0.2971  0.2398
  118loPI   C1B 1885   2.371   9.495   9.588 -0.0466 -0.1069  0.1145
  118loPI   C2B 1886   2.482   9.595   9.201 -0.1059  0.0724  0.0157
  118loPI   C3B 1887   2.421   9.566   8.733  0.0113 -0.1319 -0.0058
  118loPI   C4B 1888   2.600   9.652   8.284  0.0647  0.0812  0.1444
  119loPI    C1 1889   2.502   3.682  10.985  0.0364 -0.0631 -0.0137
  119loPI    C2 1890   2.461   3.810  11.362  0.1984  0.1569 -0.0689
  119loPI    C3 1891   2.660   3.471  11.285 -0.0343 -0.0117  0.0602
  119loPI   PO4 1892   2.225   3.743  10.899 -0.0186 -0.2985 -0.0120
  119loPI   GL1 1893   1.954   3.752  10.539  0.3224 -0.2189  0.1920
  119loPI   GL2 1894   2.341   3.896  10.390  0.1150 -0.0282 -0.3062
  119loPI   C1A 1895   1.916   3.973  10.196  0.1663  0.0996 -0.1475
  119loPI   C2A 1896   2.014   4.126   9.701 -0.0876  0.0729  0.1918
  119loPI   C3A 1897   2.108   4.000   9.277 -0.0260 -0.1540 -0.3351
  119loPI   C4A 1898   2.107   4.034   8.807 -0.1104 -0.0016  0.0247
  119loPI   C5A 1899   2.034   3.981   8.324  0.1110  0.2559 -0.1947
  119loPI   C6A 1900   2.175   4.216   7.969 -0.2727 -0.0493 -0.4558
  119loPI   C1B 1901   2.392   3.783   9.871  0.1536 -0.1413  0.1494
  119loPI   C2B 1902   2.481   3.712   9.507  0.1025 -0.0905 -0.2249
  119loPI   C3B 1903   2.501   3.726   9.021 -0.4375  0.2072 -0.1002
  119loPI   C4B 1904   2.471   3.766   8.584  0.3358 -0.1582 -0.1414
  120loPI    C1 1905  10.545   3.649  10.355  0.4230 -0.2084 -0.1317
  120loPI    C2 1906  10.649   4.007  10.500  0.1634 -0.1601 -0.0614
  120loPI    C3 1907  10.643   3.688  10.741  0.0023 -0.1331 -0.0281
  120loPI   PO4 1908  10.361   3.730  10.188  0.1284  0.1067  0.3279
  120loPI   GL1 1909  10.057   3.675   9.866 -0.0943 -0.0893 -0.0044
  120loPI   GL2 1910   9.991   3.458   9.852  0.3873  0.1272 -0.1032
  120loPI   C1A 1911  10.199   3.528   9.409 -0.1492  0.2434  0.3543
  120loPI   C2A 1912  10.160   3.468   8.993 -0.1383  0.1194 -0.2223
  120loPI   C3A 1913  10.053   3.413   8.577  0.0575  0.1308  0.0613
  120loPI   C4A 1914  10.095   3.244   8.134 -0.2656  0.0046  0.1291
  120loPI   C5A 1915   9.754   3.212   7.808 -0.0448  0.1033  0.0588
  120loPI   C6A 1916   9.485   2.870   7.751 -0.3051 -0.3285 -0.1520
  120loPI   C1B 1917   9.744   3.188   9.491 -0.5502 -0.1861  0.0603
  120loPI   C2B 1918   9.714   3.302   9.056 -0.0620 -0.0529 -0.0497
  120loPI   C3B 1919   9.644   3.155   8.661  0.0671 -0.1411 -0.1778
  120loPI   C4B 1920   9.485   3.137   8.226 -0.2052  0.2221  0.2343
  121loPI    C1 1921   7.528   9.341  10.671 -0.0227  0.1806  0.0195
  121loPI    C2 1922   7.906   9.210  10.672 -0.0923 -0.0317 -0.2500
  121loPI    C3 1923   7.629   9.022  10.891 -0.0352  0.1499 -0.0190
  121loPI   PO4 1924   7.558   9.423  10.355  0.0912  0.3086 -0.0015
  121loPI   GL1 1925   7.599   9.198   9.974  0.0688 -0.0636  0.0360
  121loPI   GL2 1926   7.745   9.460   9.798 -0.1572 -0.1566  0.0430
  121loPI   C1A 1927   7.551   9.035   9.628  0.3349 -0.3674 -0.2188
  121loPI   C2A 1928   7.406   9.017   9.130  0.2385 -0.0334  0.1255
  121loPI   C3A 1929   7.217   8.897   8.784 -0.3218  0.0150 -0.1756
  121loPI   C4A 1930   7.035   8.967   8.410  0.1128 -0.1013 -0.3945
  121loPI   C5A 1931   6.823   8.942   8.005 -0.0042  0.1211  0.1061
  121loPI   C6A 1932   6.588   9.131   7.565 -0.0719 -0.0858  0.4738
  121loPI   C1B 1933   7.602   9.485   9.328 -0.2744  0.2329 -0.1069
  121loPI   C2B 1934   7.442   9.403   8.829  0.0628  0.1697  0.0541
  121loPI   C3B 1935   7.223   9.403   8.396  0.0968 -0.2287  0.3100
  121loPI   C4B 1936   7.013   9.483   8.112  0.0565 -0.0835 -0.0763
  122loPI    C1 1937  17.391  12.325  10.688 -0.2888  0.4312  0.0640
  122loPI    C2 1938  17.127  12.128  10.915  0.1148 -0.1686  0.0386
  122loPI    C3 1939  17.481  12.235  11.068  0.0816  0.1328 -0.0878
  122loPI   PO4 1940  17.431  12.233  10.462 -0.0569 -0.2005  0.1546
  122loPI   GL1 1941  17.400  12.392  10.085  0.1914 -0.0011  0.1368
  122loPI   GL2 1942  17.593  12.585   9.934  0.0403  0.1824  0.1810
  122loPI   C1A 1943  17.153  12.320   9.699  0.1434  0.2121  0.0140
  122loPI   C2A 1944  17.022  12.353   9.254  0.1170 -0.1199 -0.3159
  122loPI   C3A 1945  17.082  12.356   8.809 -0.2151 -0.0215  0.0634
  122loPI   C4A 1946  17.132  12.470   8.466 -0.3728  0.2403  0.1439
  122loPI   C5A 1947  17.221  12.451   8.008  0.3009  0.1998  0.3200
  122loPI   C6A 1948  17.296  12.517   7.611 -0.3371  0.0425  0.4161
  122loPI   C1B 1949  17.589  12.448   9.448 -0.1539 -0.0600 -0.0444
  122loPI   C2B 1950  17.548  12.562   9.015 -0.3296 -0.1115 -0.2721
  122loPI   C3B 1951  17.655  12.624   8.637 -0.2236 -0.0948  0.1526
  122loPI   C4B 1952  17.742  12.605   8.215  0.3233  0.2897  0.0348
  123loPI    C1 1953  13.517  12.966  10.630 -0.2772 -0.1851  0.0122
  123loPI    C2 1954  13.681  13.242  10.868  0.1391 -0.2650 -0.1734
  123loPI    C3 1955  13.308  13.291  10.732  0.0127 -0.0632  0.2310
  123loPI   PO4 1956  13.688  12.975  10.395  0.1209  0.0184 -0.1282
  123loPI   GL1 1957  13.438  13.021  10.046 -0.0572 -0.2345 -0.1691
  123loPI   GL2 1958  13.587  13.264   9.976  0.2077  0.2688 -0.3208
  123loPI   C1A 1959  13.163  13.097   9.677 -0.1453 -0.0249 -0.1405
  123loPI   C2A 1960  12.990  13.154   9.230 -0.2075  0.1232 -0.2642
  123loPI   C3A 1961  13.147  13.221   8.809 -0.3907 -0.3371  0.3973
  123loPI   C4A 1962  13.121  13.119   8.501  0.3379  0.2191  0.3461
  123loPI   C5A 1963  12.987  12.827   8.100  0.0626 -0.2287 -0.3138
  123loPI   C6A 1964  12.744  12.493   8.079  0.1065  0.0246  0.0651
  123loPI   C1B 1965  13.568  13.348   9.518  0.2292 -0.2340 -0.1669
  123loPI   C2B 1966  13.578  13.385   9.037 -0.0031 -0.1446 -0.0182
  123loPI   C3B 1967  13.582  13.344   8.525 -0.2662  0.1932 -0.1151
  123loPI   C4B 1968  13.412  13.344   8.168 -0.0474  0.2820  0.0792
  124loPI    C1 1969   3.713   1.454  11.276 -0.0773  0.2455 -0.0099
  124loPI    C2 1970   3.759   1.313  10.905 -0.0510  0.3652 -0.0528
  124loPI    C3 1971   4.037   1.238  11.183 -0.1268  0.1777 -0.0255
  124loPI   PO4 1972   3.429   1.495  11.226 -0.3056  0.1167  0.0175
  124loPI   GL1 1973   3.304   1.557  10.877  0.0740  0.1331  0.3494
  124loPI   GL2 1974   3.419   1.845  10.703  0.1428  0.0872 -0.0982
  124loPI   C1A 1975   3.351   1.384  10.469 -0.0166  0.2048 -0.1588
  124loPI   C2A 1976   3.422   1.314  10.043  0.0615 -0.0035  0.1278
  124loPI   C3A 1977   3.536   1.247   9.661  0.2763 -0.2530  0.1250
  124loPI   C4A 1978   3.460   1.138   9.335  0.0072  0.1679  0.0928
  124loPI   C5A 1979   3.549   1.101   8.956  0.1089  0.1051 -0.0107
  124loPI   C6A 1980   3.917   0.919   8.638 -0.1581  0.2142 -0.0252
  124loPI   C1B 1981   3.579   1.766  10.339 -0.4972 -0.0137 -0.1513
  124loPI   C2B 1982   3.584   1.797   9.961 -0.1478  0.0616 -0.0193
  124loPI   C3B 1983   3.513   1.741   9.581 -0.1689  0.1232  0.0093
  124loPI   C4B 1984   3.546   1.637   9.160  0.1893 -0.3890  0.1136
  125loPI    C1 1985  11.900   1.712  10.686  0.0806 -0.2892  0.1989
  125loPI    C2 1986  11.505   1.687  10.749  0.0278  0.0047  0.0039
  125loPI    C3 1987  11.754   1.735  11.058 -0.0929 -0.1274  0.1229
  125loPI   PO4 1988  11.922   1.626  10.448  0.0731  0.1040 -0.1942
  125loPI   GL1 1989  12.095   1.240  10.243 -0.3324 -0.5695 -0.1048
  125loPI   GL2 1990  11.806   1.093  10.128  0.0553  0.1843 -0.4250
  125loPI   C1A 1991  12.196   1.267   9.832 -0.0028  0.0816  0.0013
  125loPI   C2A 1992  12.206   1.238   9.451  0.2581  0.0787  0.1520
  125loPI   C3A 1993  12.235   1.232   8.973  0.2140 -0.3143 -0.1117
  125loPI   C4A 1994  12.073   1.292   8.548 -0.3113 -0.0993  0.1571
  125loPI   C5A 1995  12.073   1.247   8.147  0.1379 -0.1404  0.0063
  125loPI   C6A 1996  12.270   1.471   7.831 -0.1504 -0.2213  0.0200
  125loPI   C1B 1997  11.743   1.136   9.648 -0.2848 -0.0934 -0.0528
  125loPI   C2B 1998  11.711   1.132   9.166  0.0199 -0.2374  0.3217
  125loPI   C3B 1999  11.630   1.097   8.755  0.1499 -0.2580  0.1790
  125loPI   C4B 2000  11.578   1.145   8.268  0.2411  0.0610 -0.0231
  126loPI    C1 2001  11.651  13.635  11.123 -0.1668 -0.0468 -0.3084
  126loPI    C2 2002  11.615  13.264  11.268  0.0645  0.2047  0.4410
  126loPI    C3 2003  11.290  13.465  11.149 -0.1206 -0.0637  0.4831
  126loPI   PO4 2004  11.834  13.595  10.923 -0.3596 -0.0178 -0.0399
  126loPI   GL1 2005  11.748  13.757  10.538  0.0612  0.4177 -0.2328
  126loPI   GL2 2006  11.992  13.871  10.392  0.0216  0.1566 -0.5812
  126loPI   C1A 2007  11.744  13.536  10.160 -0.0474 -0.1126  0.3818
  126loPI   C2A 2008  11.693  13.639   9.690  0.1445  0.1395  0.1580
  126loPI   C3A 2009  11.519  13.679   9.370  0.0640 -0.1894 -0.3151
  126loPI   C4A 2010  11.267  13.666   8.980 -0.1046  0.0320  0.1477
  126loPI   C5A 2011  11.230  13.791   8.569  0.0638  0.0525  0.1783
  126loPI   C6A 2012  11.064  14.115   8.294  0.1526  0.0093  0.0902
  126loPI   C1B 2013  12.264  13.878   9.936  0.3430  0.0165  0.0411
  126loPI   C2B 2014  12.180  13.815   9.529  0.3204  0.0678 -0.0142
  126loPI   C3B 2015  12.293  13.892   9.129  0.0322  0.0429  0.1730
  126loPI   C4B 2016  12.142  14.038   8.751  0.0850  0.1666 -0.1328
  127loPI    C1 2017  11.177   7.628  10.006  0.1510 -0.0986 -0.2352
  127loPI    C2 2018  11.425   7.505  10.295 -0.0280  0.1503  0.0294
  127loPI    C3 2019  11.032   7.435  10.325 -0.0158 -0.0822 -0.3000
  127loPI   PO4 2020  11.266   7.584   9.768  0.1227  0.1506 -0.1072
  127loPI   GL1 2021  11.288   7.330   9.403  0.0755  0.3492 -0.0006
  127loPI   GL2 2022  10.964   7.397   9.363 -0.2937  0.0612 -0.0565
  127loPI   C1A 2023  11.268   7.275   8.969 -0.1978  0.0050 -0.1006
  127loPI   C2A 2024  11.121   7.201   8.561  0.2335  0.0217 -0.0866
  127loPI   C3A 2025  11.174   7.125   8.127  0.1952  0.3627 -0.1373
  127loPI   C4A 2026  11.295   6.941   7.791 -0.4495 -0.3026 -0.0934
  127loPI   C5A 2027  11.070   6.949   7.439 -0.0019 -0.4582  0.0264
  127loPI   C6A 2028  10.639   6.972   7.413  0.0949  0.2315  0.0659
  127loPI   C1B 2029  10.776   7.326   8.929 -0.2635 -0.0688  0.1873
  127loPI   C2B 2030  10.656   7.340   8.536 -0.3377  0.4165  0.0332
  127loPI   C3B 2031  10.819   7.442   8.111  0.0057  0.1356  0.1269
  127loPI   C4B 2032  10.940   7.403   7.705 -0.0804 -0.1786 -0.2493
  128loPI    C1 2033  10.671   0.981  10.914  0.1988 -0.0575  0.0140
  128loPI    C2 2034  10.390   1.006  11.197 -0.0243  0.1234 -0.2180
  128loPI    C3 2035  10.743   1.189  11.248  0.1109 -0.2208  0.1360
  128loPI   PO4 2036  10.573   1.064  10.704  0.2044  0.1643  0.3320
  128loPI   GL1 2037  10.480   0.818  10.422 -0.0526 -0.0068 -0.1435
  128loPI   GL2 2038  10.305   1.093  10.270  0.0271  0.3913  0.3306
  128loPI   C1A 2039  10.687   0.779  10.019 -0.2428 -0.2837  0.0515
  128loPI   C2A 2040  10.736   0.748   9.616 -0.3665 -0.2852  0.1116
  128loPI   C3A 2041  10.779   0.654   9.281  0.2597  0.4697 -0.0703
  128loPI   C4A 2042  10.709   0.695   8.859  0.4532  0.1154  0.2302
  128loPI   C5A 2043  10.740   0.612   8.401  0.2168  0.0609  0.3550
  128loPI   C6A 2044  10.808   0.657   7.913 -0.0122  0.0769 -0.0231
  128loPI   C1B 2045  10.258   1.032   9.773  0.1482 -0.0767 -0.0056
  128loPI   C2B 2046  10.210   1.017   9.396  0.1096  0.0462 -0.0257
  128loPI   C3B 2047  10.278   1.037   8.937 -0.1303 -0.1561  0.2660
  128loPI   C4B 2048  10.268   0.822   8.591 -0.2144 -0.2202  0.2434
  129loPI    C1 2049   3.730   0.894  11.466 -0.1488 -0.0501  0.0437
  129loPI    C2 2050   3.647   0.878  11.857 -0.0191 -0.0653  0.0712
  129loPI    C3 2051   3.525   1.191  11.639  0.1559  0.0826  0.1830
  129loPI   PO4 2052   3.593   0.633  11.374  0.0074  0.0030  0.0729
  129loPI   GL1 2053   3.474   0.573  10.896  0.0388  0.0075  0.3009
  129loPI   GL2 2054   3.707   0.805  10.880  0.0167  0.2735 -0.0292
  129loPI   C1A 2055   3.660   0.553  10.453 -0.1434 -0.1065 -0.1340
  129loPI   C2A 2056   3.796   0.470  10.059  0.2612  0.0502  0.2775
  129loPI   C3A 2057   3.855   0.419   9.631  0.2781  0.1550 -0.1280
  129loPI   C4A 2058   3.820   0.320   9.130  0.3466  0.1365  0.2568
  129loPI   C5A 2059   3.817   0.426   8.710  0.1209 -0.1041 -0.0783
  129loPI   C6A 2060   3.872   0.530   8.324  0.4142 -0.2552  0.1893
  129loPI   C1B 2061   3.770   1.028  10.480 -0.0503  0.3139 -0.0879
  129loPI   C2B 2062   3.855   1.003  10.111  0.1757 -0.1664 -0.1719
  129loPI   C3B 2063   3.964   0.957   9.675  0.1121 -0.1782  0.1214
  129loPI   C4B 2064   3.875   0.867   9.260  0.1142 -0.1884  0.2588
  130loPI    C1 2065  13.841   9.817  10.390 -0.2345 -0.2976  0.1235
  130loPI    C2 2066  13.539   9.989  10.589  0.0748  0.2951  0.1049
  130loPI    C3 2067  13.904  10.152  10.601  0.3394 -0.2580 -0.0937
  130loPI   PO4 2068  13.637   9.679  10.216  0.0779  0.2047  0.0116
  130loPI   GL1 2069  13.846   9.777   9.825  0.0188 -0.1613  0.1195
  130loPI   GL2 2070  13.504   9.764   9.668  0.1207  0.0304  0.0549
  130loPI   C1A 2071  14.115  10.061   9.438 -0.3676 -0.1190 -0.0912
  130loPI   C2A 2072  14.027  10.170   9.003 -0.0787  0.1596  0.0403
  130loPI   C3A 2073  13.978  10.131   8.601  0.0685 -0.1070  0.0567
  130loPI   C4A 2074  13.912  10.054   8.117 -0.1358 -0.3118 -0.0416
  130loPI   C5A 2075  14.041   9.799   7.826  0.2831 -0.1528  0.1184
  130loPI   C6A 2076  14.216   9.380   7.708 -0.1008  0.2818  0.2526
  130loPI   C1B 2077  13.689   9.866   9.238 -0.3974  0.0752  0.0018
  130loPI   C2B 2078  13.644   9.751   8.742  0.0436 -0.1484  0.2894
  130loPI   C3B 2079  13.513   9.798   8.318 -0.1290  0.0256 -0.2175
  130loPI   C4B 2080  13.546   9.860   7.846 -0.0232 -0.0750 -0.2693
  131loPI    C1 2081  10.573   2.887  10.347 -0.2297  0.2545  0.0051
  131loPI    C2 2082  10.741   3.193  10.542 -0.2742  0.0955  0.2991
  131loPI    C3 2083  10.786   2.820  10.679 -0.0803 -0.0524 -0.1486
  131loPI   PO4 2084  10.597   2.783  10.039 -0.1390 -0.1080  0.0639
  131loPI   GL1 2085  10.585   2.653   9.594  0.3117  0.0685 -0.1348
  131loPI   GL2 2086  10.929   2.770   9.729 -0.0342  0.0083  0.1038
  131loPI   C1A 2087  10.615   2.561   9.272 -0.0726 -0.1016  0.3878
  131loPI   C2A 2088  10.471   2.514   8.973 -0.1624 -0.4499 -0.3079
  131loPI   C3A 2089  10.424   2.541   8.489 -0.0901  0.0762  0.1145
  131loPI   C4A 2090  10.509   2.439   8.083 -0.0035 -0.0155 -0.1609
  131loPI   C5A 2091  10.861   2.236   7.912 -0.1464  0.1029  0.0264
  131loPI   C6A 2092  11.277   2.292   7.804 -0.2497 -0.0486  0.0354
  131loPI   C1B 2093  11.077   2.817   9.382 -0.2345 -0.1372  0.0147
  131loPI   C2B 2094  11.055   2.687   9.061 -0.1269  0.3125  0.1604
  131loPI   C3B 2095  10.958   2.710   8.655  0.1069  0.0059  0.1272
  131loPI   C4B 2096  10.941   2.632   8.331 -0.1362 -0.0427 -0.0040
  132loPI    C1 2097   0.105  18.350  10.922 -0.0187  0.0170  0.1512
  132loPI    C2 2098   0.102  18.509  11.289  0.1720 -0.0303  0.1743
  132loPI    C3 2099   0.068  18.113  11.242  0.2577 -0.0348  0.1477
  132loPI   PO4 2100   0.004  18.366  10.770 -0.0886  0.1565 -0.1219
  132loPI   GL1 2101   0.136  18.386  10.306  0.1161  0.0228  0.0846
  132loPI   GL2 2102  -0.179  18.580  10.195 -0.2055  0.2028  0.1622
  132loPI   C1A 2103   0.174  18.364   9.836 -0.1816  0.0662 -0.0866
  132loPI   C2A 2104  -0.018  18.295   9.449  0.0695 -0.0330  0.0398
  132loPI   C3A 2105   0.106  18.193   8.987 -0.0148 -0.1206 -0.3178
  132loPI   C4A 2106   0.221  18.151   8.680 -0.1233 -0.0049 -0.1385
  132loPI   C5A 2107   0.249  17.778   8.408 -0.1537  0.1311 -0.3974
  132loPI   C6A 2108   0.026  17.635   8.136  0.2782 -0.1096  0.2470
  132loPI   C1B 2109  -0.381  18.515   9.764  0.0052 -0.1907 -0.0506
  132loPI   C2B 2110  -0.411  18.539   9.353  0.0104  0.1241  0.1083
  132loPI   C3B 2111  -0.300  18.602   8.981 -0.1506 -0.0284  0.0268
  132loPI   C4B 2112  -0.210  18.510   8.545 -0.0392  0.3571 -0.2559
  133loPI    C1 2113   4.992   8.538  10.592 -0.1166  0.1319 -0.1362
  133loPI    C2 2114   5.345   8.609  10.766 -0.1071 -0.2000 -0.0109
  133loPI    C3 2115   5.027   8.513  10.990 -0.2582  0.0124 -0.1298
  133loPI   PO4 2116   4.945   8.819  10.437  0.0824 -0.1914 -0.0711
  133loPI   GL1 2117   5.100   8.952   9.986  0.0409 -0.0273  0.3030
  133loPI   GL2 2118   5.193   8.651   9.802  0.1039  0.0710  0.0796
  133loPI   C1A 2119   5.074   9.106   9.628  0.0620 -0.0142  0.0430
  133loPI   C2A 2120   5.165   9.171   9.191  0.0084 -0.0372 -0.1256
  133loPI   C3A 2121   5.167   9.191   8.698  0.2730  0.0087  0.0126
  133loPI   C4A 2122   5.085   9.248   8.306  0.2956 -0.1680 -0.1208
  133loPI   C5A 2123   5.129   9.001   7.963  0.3390 -0.1657  0.2429
  133loPI   C6A 2124   5.365   8.702   7.738 -0.2178 -0.0000  0.0835
  133loPI   C1B 2125   5.064   8.707   9.351 -0.2305  0.1136 -0.0778
  133loPI   C2B 2126   5.069   8.756   8.927  0.0624 -0.0740 -0.2944
  133loPI   C3B 2127   5.010   8.702   8.411  0.0270  0.0742 -0.1050
  133loPI   C4B 2128   4.921   8.584   8.020  0.3927  0.1181 -0.0096
  134loPI    C1 2129   8.890  13.752  11.062 -0.1393  0.1839  0.0126
  134loPI    C2 2130   8.990  13.961  11.388 -0.5337  0.2600  0.0901
  134loPI    C3 2131   8.970  13.561  11.404 -0.0907  0.2294  0.0267
  134loPI   PO4 2132   9.074  13.785  10.869  0.2267  0.2513 -0.1950
  134loPI   GL1 2133   9.279  14.076  10.556  0.3828  0.1039  0.1785
  134loPI   GL2 2134   9.490  13.915  10.471 -0.0985 -0.1718  0.3798
  134loPI   C1A 2135   9.140  14.168  10.126  0.1886  0.3705 -0.2682
  134loPI   C2A 2136   9.114  14.126   9.648  0.1812 -0.1001 -0.2592
  134loPI   C3A 2137   9.095  14.172   9.162  0.3201  0.1553 -0.0388
  134loPI   C4A 2138   9.146  14.147   8.698  0.1213  0.3416 -0.1646
  134loPI   C5A 2139   9.205  14.271   8.267  0.1748  0.2542 -0.1266
  134loPI   C6A 2140   9.620  14.164   8.046  0.2857  0.2754 -0.1918
  134loPI   C1B 2141   9.559  13.877  10.138  0.2946 -0.1475  0.2782
  134loPI   C2B 2142   9.512  13.798   9.777  0.3690 -0.2694 -0.0641
  134loPI   C3B 2143   9.536  13.809   9.342  0.0160  0.0748 -0.2972
  134loPI   C4B 2144   9.522  13.818   8.861  0.0925 -0.2156 -0.0813
  135loPI    C1 2145  16.365  14.765  10.872  0.2751 -0.2311  0.2097
  135loPI    C2 2146  16.427  15.090  11.096  0.4199 -0.1335  0.0318
  135loPI    C3 2147  16.479  14.726  11.253 -0.0330 -0.0824  0.3204
  135loPI   PO4 2148  16.474  14.838  10.662 -0.1353 -0.0972 -0.3439
  135loPI   GL1 2149  16.303  14.812  10.276  0.0818  0.2956 -0.2120
  135loPI   GL2 2150  16.278  15.150  10.116  0.2551 -0.1474 -0.0822
  135loPI   C1A 2151  16.151  14.814   9.815 -0.0668  0.1910  0.0663
  135loPI   C2A 2152  16.058  14.839   9.350  0.2220 -0.0176  0.2771
  135loPI   C3A 2153  16.110  14.804   8.903  0.4208 -0.0611  0.0048
  135loPI   C4A 2154  16.144  14.871   8.482  0.0822 -0.1080 -0.3071
  135loPI   C5A 2155  16.258  14.876   8.026 -0.0057 -0.0242 -0.2155
  135loPI   C6A 2156  16.130  15.008   7.631 -0.0688 -0.2492 -0.0624
  135loPI   C1B 2157  16.204  15.450   9.746  0.0497  0.1127  0.1852
  135loPI   C2B 2158  16.175  15.521   9.330 -0.0444 -0.2984 -0.0694
  135loPI   C3B 2159  16.168  15.331   8.917 -0.0720  0.0398  0.0491
  135loPI   C4B 2160  16.259  15.468   8.429  0.0137 -0.2786 -0.1955
  136loPI    C1 2161   7.374   8.323  10.409 -0.1094  0.1060  0.0182
  136loPI    C2 2162   7.418   8.609  10.685  0.3555  0.0433  0.0179
  136loPI    C3 2163   7.349   8.232  10.798  0.3437  0.0523  0.0406
  136loPI   PO4 2164   7.492   8.348  10.192 -0.0405 -0.1253  0.1407
  136loPI   GL1 2165   7.369   8.579   9.854  0.0824 -0.2017  0.0949
  136loPI   GL2 2166   7.117   8.838   9.764 -0.1594 -0.1839  0.0763
  136loPI   C1A 2167   7.295   8.628   9.414  0.2844  0.2405  0.2376
  136loPI   C2A 2168   7.175   8.507   9.032 -0.0142 -0.0256  0.0595
  136loPI   C3A 2169   7.045   8.406   8.654 -0.2890  0.2760 -0.2174
  136loPI   C4A 2170   6.930   8.534   8.244  0.0857 -0.2293 -0.1468
  136loPI   C5A 2171   7.238   8.678   7.896 -0.1391 -0.3928 -0.0809
  136loPI   C6A 2172   7.318   9.043   8.013 -0.0319 -0.0138  0.1120
  136loPI   C1B 2173   7.105   9.270   9.460 -0.1208  0.2936  0.2780
  136loPI   C2B 2174   7.020   9.631   9.199  0.0199  0.2434  0.2599
  136loPI   C3B 2175   7.099   9.865   8.787 -0.2227 -0.0187 -0.0239
  136loPI   C4B 2176   7.079   9.990   8.383  0.2344 -0.1019  0.3912
  137loPI    C1 2177  13.146  11.861  10.546  0.0280 -0.2045 -0.2418
  137loPI    C2 2178  12.797  11.726  10.686 -0.1279  0.1171 -0.3123
  137loPI    C3 2179  12.965  12.051  10.847  0.2022 -0.1053 -0.1981
  137loPI   PO4 2180  13.318  11.703  10.525  0.1785  0.1327 -0.1303
  137loPI   GL1 2181  13.349  11.564  10.146  0.1239 -0.0307  0.1235
  137loPI   GL2 2182  13.756  11.578  10.078  0.2098  0.1414 -0.0668
  137loPI   C1A 2183  13.436  11.694   9.704  0.1460 -0.1426 -0.1957
  137loPI   C2A 2184  13.453  11.787   9.288  0.0141  0.1452 -0.0970
  137loPI   C3A 2185  13.375  11.903   8.833  0.0780  0.2491 -0.0536
  137loPI   C4A 2186  13.410  11.846   8.371 -0.0503  0.2483 -0.1206
  137loPI   C5A 2187  13.132  11.791   8.050 -0.2318  0.1729 -0.0127
  137loPI   C6A 2188  12.849  12.003   7.955  0.0439 -0.0677 -0.1866
  137loPI   C1B 2189  13.888  11.495   9.581  0.2379 -0.1846 -0.0034
  137loPI   C2B 2190  13.885  11.564   9.235 -0.1540  0.1413  0.0561
  137loPI   C3B 2191  13.815  11.605   8.866 -0.0314  0.0077  0.0209
  137loPI   C4B 2192  13.715  11.519   8.512  0.1329  0.5360  0.1454
  138loPI    C1 2193  17.598   0.812  10.791  0.1608  0.1180  0.3479
  138loPI    C2 2194  17.510   0.422  10.774  0.1458  0.1370 -0.1453
  138loPI    C3 2195  17.748   0.561  11.064  0.0371 -0.2130  0.1181
  138loPI   PO4 2196  17.639   0.876  10.583  0.0157 -0.0034  0.4079
  138loPI   GL1 2197  17.576   1.087  10.154 -0.0094  0.0760  0.1704
  138loPI   GL2 2198  17.666   1.483  10.112  0.1106 -0.4155  0.2352
  138loPI   C1A 2199  17.765   0.989   9.774 -0.1665  0.0587 -0.1691
  138loPI   C2A 2200  17.755   0.949   9.378 -0.0191  0.1929 -0.0534
  138loPI   C3A 2201  17.633   0.998   9.003  0.5865  0.2954  0.0189
  138loPI   C4A 2202  17.741   1.016   8.613 -0.2481 -0.0033 -0.1346
  138loPI   C5A 2203  17.671   0.713   8.287 -0.0965  0.0532 -0.0577
  138loPI   C6A 2204  17.726   0.691   7.883  0.0220 -0.0014 -0.1481
  138loPI   C1B 2205  17.705   1.542   9.653 -0.0839  0.2644  0.2899
  138loPI   C2B 2206  17.742   1.447   9.161  0.0316 -0.5770 -0.4131
  138loPI   C3B 2207  17.769   1.484   8.775 -0.1652  0.2430 -0.1068
  138loPI   C4B 2208  18.033   1.456   8.354 -0.0602 -0.0320 -0.0454
  139loPI    C1 2209   4.062   4.241  11.111 -0.1390 -0.1548 -0.1385
  139loPI    C2 2210   3.731   4.207  11.333 -0.0963 -0.1383 -0.0718
  139loPI    C3 2211   3.926   3.879  11.213 -0.0524 -0.1448  0.0163
  139loPI   PO4 2212   3.953   4.394  10.848  0.1751  0.1753  0.2845
  139loPI   GL1 2213   3.965   4.459  10.499 -0.2177  0.4211 -0.0852
  139loPI   GL2 2214   3.690   4.555  10.387  0.0937  0.0658 -0.0703
  139loPI   C1A 2215   3.781   4.322   9.970  0.0383 -0.0134  0.1525
  139loPI   C2A 2216   3.885   4.332   9.557  0.0241  0.3895  0.0569
  139loPI   C3A 2217   3.903   4.326   9.016  0.1260  0.1078 -0.4063
  139loPI   C4A 2218   4.041   4.265   8.481  0.1382  0.1389  0.0619
  139loPI   C5A 2219   3.986   3.910   8.103  0.0787 -0.0583  0.0000
  139loPI   C6A 2220   4.195   3.599   7.966 -0.0704 -0.5049  0.0131
  139loPI   C1B 2221   3.408   4.651  10.026 -0.0340  0.0391  0.0999
  139loPI   C2B 2222   3.446   4.695   9.670  0.2012 -0.2661 -0.1332
  139loPI   C3B 2223   3.520   4.653   9.264  0.1400  0.3089  0.0402
  139loPI   C4B 2224   3.527   4.640   8.825 -0.2650  0.0118 -0.0959
  140loPI    C1 2225  11.375  12.103  10.356 -0.2155 -0.0398 -0.0619
  140loPI    C2 2226  11.568  11.823  10.567 -0.0469  0.2355  0.1572
  140loPI    C3 2227  11.183  11.900  10.641 -0.0567  0.1557  0.1895
  140loPI   PO4 2228  11.422  12.052  10.127 -0.0906 -0.1849 -0.0797
  140loPI   GL1 2229  11.233  12.365   9.850 -0.1778 -0.0843  0.2185
  140loPI   GL2 2230  10.898  12.380   9.815 -0.0282  0.0496 -0.0613
  140loPI   C1A 2231  11.389  12.522   9.450  0.1361 -0.3846 -0.0527
  140loPI   C2A 2232  11.268  12.818   9.107  0.2167  0.0622  0.0851
  140loPI   C3A 2233  11.140  13.018   8.744  0.1593 -0.0778 -0.4363
  140loPI   C4A 2234  11.061  13.297   8.388  0.1725 -0.1578 -0.0671
  140loPI   C5A 2235  11.066  13.497   8.080  0.2615  0.2560  0.1740
  140loPI   C6A 2236  11.157  13.932   7.852 -0.0149  0.1062 -0.0317
  140loPI   C1B 2237  10.893  12.363   9.358  0.2645  0.1280 -0.0308
  140loPI   C2B 2238  10.901  12.275   8.996 -0.1051 -0.1182 -0.3170
  140loPI   C3B 2239  10.748  12.301   8.553  0.0911  0.1895  0.0268
  140loPI   C4B 2240  11.030  12.322   8.296  0.1711 -0.1329  0.0405
  141loPI    C1 2241   5.780   8.318  10.362  0.0668 -0.1259 -0.0909
  141loPI    C2 2242   5.752   8.319  10.761 -0.1868 -0.1024 -0.1076
  141loPI    C3 2243   5.777   7.972  10.563  0.2185 -0.1074 -0.0553
  141loPI   PO4 2244   5.898   8.491  10.284  0.1704  0.0414 -0.2734
  141loPI   GL1 2245   5.916   8.541   9.893 -0.1967  0.1542  0.4097
  141loPI   GL2 2246   6.027   8.295   9.872 -0.0534  0.1395  0.2479
  141loPI   C1A 2247   5.727   8.775   9.573 -0.1907  0.3127 -0.2089
  141loPI   C2A 2248   5.540   8.873   9.261  0.0330  0.1149 -0.0660
  141loPI   C3A 2249   5.598   8.811   8.814  0.0270 -0.0190  0.1330
  141loPI   C4A 2250   5.486   8.871   8.399  0.0823  0.0956  0.2618
  141loPI   C5A 2251   5.641   9.064   7.929 -0.0482  0.1522 -0.0093
  141loPI   C6A 2252   6.001   9.229   7.698 -0.3254  0.0776  0.1377
  141loPI   C1B 2253   6.006   8.035   9.534  0.0669 -0.3173  0.0263
  141loPI   C2B 2254   5.901   8.089   9.152 -0.0681 -0.1673  0.2458
  141loPI   C3B 2255   5.823   8.137   8.727  0.2597 -0.0345 -0.0000
  141loPI   C4B 2256   5.862   8.060   8.194  0.0273  0.0454  0.2021
  142loPI    C1 2257  16.721  17.589  10.987  0.1496 -0.0232  0.0062
  142loPI    C2 2258  16.338  17.590  11.102  0.1363 -0.0233 -0.0381
  142loPI    C3 2259  16.605  17.367  11.299  0.1214  0.0084  0.0183
  142loPI   PO4 2260  16.709  17.587  10.705 -0.1280 -0.0343 -0.1511
  142loPI   GL1 2261  16.971  17.568  10.371 -0.1253 -0.0027 -0.0331
  142loPI   GL2 2262  17.141  17.815  10.396 -0.2625 -0.2640 -0.2231
  142loPI   C1A 2263  16.976  17.284  10.090  0.2655  0.1622 -0.0077
  142loPI   C2A 2264  16.914  17.118   9.641 -0.0816  0.1432  0.0231
  142loPI   C3A 2265  16.975  17.170   9.188  0.0015 -0.1537  0.0527
  142loPI   C4A 2266  16.807  17.159   8.802 -0.3467  0.2819  0.1757
  142loPI   C5A 2267  16.889  17.035   8.452  0.1209 -0.2459  0.2654
  142loPI   C6A 2268  16.676  16.879   7.985 -0.0624 -0.0506  0.0935
  142loPI   C1B 2269  16.930  17.738   9.944 -0.2848 -0.1524 -0.0423
  142loPI   C2B 2270  16.997  17.608   9.511  0.0769 -0.0394  0.1114
  142loPI   C3B 2271  17.135  17.633   9.124  0.1196 -0.3686  0.2320
  142loPI   C4B 2272  17.113  17.569   8.663 -0.0165 -0.2584 -0.1217
  143loPI    C1 2273   5.031  11.958  10.790 -0.1389  0.0313  0.0760
  143loPI    C2 2274   5.350  12.057  11.010  0.0773 -0.0794 -0.1810
  143loPI    C3 2275   5.037  11.874  11.181  0.1093  0.1136  0.0913
  143loPI   PO4 2276   5.047  11.739  10.686 -0.0683  0.1803 -0.2281
  143loPI   GL1 2277   5.209  11.550  10.345 -0.2922 -0.0932  0.1128
  143loPI   GL2 2278   5.436  11.288  10.344  0.3392  0.0098  0.1500
  143loPI   C1A 2279   5.018  11.510   9.878 -0.1088 -0.2080  0.3518
  143loPI   C2A 2280   5.028  11.464   9.380  0.1749  0.0709 -0.2130
  143loPI   C3A 2281   5.033  11.513   8.884 -0.0796  0.2027 -0.0660
  143loPI   C4A 2282   5.070  11.641   8.545  0.0718 -0.2185  0.1267
  143loPI   C5A 2283   5.373  11.658   8.106 -0.0500 -0.1320 -0.0188
  143loPI   C6A 2284   5.460  12.012   7.765 -0.3099 -0.1415  0.3502
  143loPI   C1B 2285   5.415  11.132  10.002 -0.0048 -0.0886 -0.0160
  143loPI   C2B 2286   5.446  11.161   9.576 -0.0417 -0.1499 -0.0728
  143loPI   C3B 2287   5.471  11.191   9.100 -0.0746  0.2789 -0.0131
  143loPI   C4B 2288   5.445  11.260   8.621  0.1861 -0.0466  0.3319
  144loPI    C1 2289  10.085   9.460  10.075  0.1153 -0.0593 -0.0212
  144loPI    C2 2290   9.846   9.341  10.372 -0.0963  0.1735 -0.0946
  144loPI    C3 2291  10.098   9.647  10.428 -0.0486  0.1385 -0.1178
  144loPI   PO4 2292   9.878   9.509   9.850  0.1730 -0.0016 -0.2006
  144loPI   GL1 2293   9.993   9.646   9.479 -0.2692  0.2150 -0.1366
  144loPI   GL2 2294  10.215   9.286   9.492  0.1308  0.2118 -0.0233
  144loPI   C1A 2295  10.397   9.605   9.141 -0.3100  0.1744 -0.2173
  144loPI   C2A 2296  10.483   9.620   8.656  0.1648 -0.1489  0.0484
  144loPI   C3A 2297  10.697   9.430   8.382 -0.1076 -0.0460  0.0287
  144loPI   C4A 2298  10.961   9.341   8.042 -0.2201 -0.2892 -0.1598
  144loPI   C5A 2299  11.008   9.619   7.797  0.0216  0.4598  0.3125
  144loPI   C6A 2300  10.671   9.914   7.817  0.1061 -0.4110  0.0514
  144loPI   C1B 2301   9.916   9.338   9.103  0.4866  0.0515 -0.0958
  144loPI   C2B 2302   9.656   9.189   8.772  0.2775  0.0259  0.1610
  144loPI   C3B 2303   9.612   9.326   8.375  0.0715  0.2318 -0.2050
  144loPI   C4B 2304   9.735   9.499   8.090  0.1719 -0.0850  0.1825
  145loPI    C1 2305  17.051  16.816  10.724 -0.0970 -0.4222 -0.2206
  145loPI    C2 2306  17.200  16.943  10.375 -0.2859  0.2029 -0.0878
  145loPI    C3 2307  17.179  17.193  10.686 -0.0629 -0.3609  0.4003
  145loPI   PO4 2308  17.126  16.584  10.696  0.0615  0.0901  0.0235
  145loPI   GL1 2309  17.445  16.424  10.378  0.1654 -0.0274  0.0705
  145loPI   GL2 2310  17.697  16.438  10.382 -0.4047 -0.0405 -0.1044
  145loPI   C1A 2311  17.357  16.727   9.913  0.3275  0.0513  0.0281
  145loPI   C2A 2312  17.274  16.726   9.492 -0.2679 -0.4056  0.3387
  145loPI   C3A 2313  17.401  16.839   9.103  0.0935  0.0698  0.4857
  145loPI   C4A 2314  17.352  16.936   8.621  0.0594  0.0334 -0.0058
  145loPI   C5A 2315  17.421  17.274   8.343  0.0295 -0.2605 -0.2367
  145loPI   C6A 2316  17.429  17.583   8.059 -0.1510 -0.1118  0.1464
  145loPI   C1B 2317  17.782  16.517   9.997 -0.1790  0.1025 -0.0753
  145loPI   C2B 2318  17.737  16.488   9.514 -0.0861  0.0524  0.1207
  145loPI   C3B 2319  17.888  16.531   9.175  0.3380  0.3323 -0.3677
  145loPI   C4B 2320  17.840  16.562   8.819  0.1421 -0.2816  0.0325
  146loPI    C1 2321   1.984  10.699  10.850  0.2762 -0.2948 -0.2638
  146loPI    C2 2322   1.597  10.684  10.949  0.2448  0.0794 -0.3140
  146loPI    C3 2323   1.875  10.561  11.209  0.0984 -0.1047 -0.2428
  146loPI   PO4 2324   1.923  10.636  10.548  0.1598 -0.1682 -0.3266
  146loPI   GL1 2325   1.678  10.442  10.172 -0.0417 -0.1484 -0.0757
  146loPI   GL2 2326   1.514  10.158  10.084 -0.1009  0.1936  0.1012
  146loPI   C1A 2327   1.674  10.745   9.913  0.1172 -0.0763 -0.0599
  146loPI   C2A 2328   1.749  10.735   9.410  0.0570  0.1391  0.1784
  146loPI   C3A 2329   1.590  10.690   8.969  0.5017 -0.0479  0.1910
  146loPI   C4A 2330   1.790  10.746   8.573 -0.1535  0.1521  0.1362
  146loPI   C5A 2331   1.767  10.830   8.089 -0.2873  0.0804 -0.0644
  146loPI   C6A 2332   1.938  11.177   7.764  0.2664  0.1888  0.0619
  146loPI   C1B 2333   1.694  10.253   9.641 -0.2213  0.0354 -0.0326
  146loPI   C2B 2334   1.698  10.239   9.153  0.3310  0.0450  0.1668
  146loPI   C3B 2335   1.619  10.209   8.771  0.4750  0.1324  0.1527
  146loPI   C4B 2336   1.716  10.294   8.338  0.1743 -0.0642 -0.1931
  147loPI    C1 2337  11.330   6.005  10.242  0.2495 -0.0902  0.2679
  147loPI    C2 2338  11.538   6.289  10.053 -0.0095 -0.0592  0.0224
  147loPI    C3 2339  11.343   6.376  10.391 -0.0367  0.0395 -0.0181
  147loPI   PO4 2340  11.112   5.903   9.974  0.2422  0.1896  0.1569
  147loPI   GL1 2341  10.801   6.062   9.731 -0.1691 -0.0659  0.0153
  147loPI   GL2 2342  10.971   5.906   9.499 -0.1626  0.0911  0.2734
  147loPI   C1A 2343  10.527   6.030   9.348  0.2341  0.0852 -0.1328
  147loPI   C2A 2344  10.547   5.914   8.841 -0.0236  0.2873  0.1670
  147loPI   C3A 2345  10.517   5.924   8.358 -0.2872  0.1449  0.0242
  147loPI   C4A 2346  10.506   5.932   7.900 -0.1191 -0.0291  0.0213
  147loPI   C5A 2347  10.711   5.888   7.560  0.2556 -0.2925 -0.0926
  147loPI   C6A 2348  10.699   5.956   7.122  0.1305  0.1989  0.0879
  147loPI   C1B 2349  10.979   5.871   9.063 -0.3480  0.2817  0.1081
  147loPI   C2B 2350  10.946   5.797   8.594 -0.2287 -0.0455 -0.0131
  147loPI   C3B 2351  10.798   5.576   8.162 -0.0961 -0.1696  0.2403
  147loPI   C4B 2352  10.884   5.406   7.734  0.0008  0.0851  0.2398
  148loPI    C1 2353  12.061   3.719  10.258  0.0720  0.0661 -0.0504
  148loPI    C2 2354  11.758   3.919  10.092 -0.0038 -0.0379 -0.0383
  148loPI    C3 2355  11.795   3.906  10.490 -0.0581 -0.1346 -0.0363
  148loPI   PO4 2356  12.103   3.581  10.049 -0.2686 -0.1936  0.1376
  148loPI   GL1 2357  12.077   3.151   9.817  0.2112  0.1086  0.0889
  148loPI   GL2 2358  11.813   2.837   9.775  0.2162 -0.0016  0.0101
  148loPI   C1A 2359  12.053   3.189   9.388  0.1513 -0.1821 -0.3045
  148loPI   C2A 2360  12.019   3.073   9.003 -0.0980  0.1440  0.1330
  148loPI   C3A 2361  11.967   3.073   8.633 -0.1114 -0.1130 -0.3192
  148loPI   C4A 2362  11.786   3.082   8.270 -0.1312 -0.0912  0.3808
  148loPI   C5A 2363  11.709   3.106   7.761  0.0490  0.2111  0.1414
  148loPI   C6A 2364  11.619   3.302   7.448  0.3251  0.0037  0.2037
  148loPI   C1B 2365  12.074   2.678   9.335 -0.3938  0.2690  0.4128
  148loPI   C2B 2366  11.916   2.532   8.855 -0.0124  0.1653 -0.0234
  148loPI   C3B 2367  11.834   2.650   8.466 -0.1629  0.3565  0.0277
  148loPI   C4B 2368  11.918   2.669   7.910  0.0662  0.2121  0.1321
  149loPI    C1 2369  16.745   1.374  10.820  0.2795 -0.0247 -0.2146
  149loPI    C2 2370  16.905   1.139  11.102 -0.1189 -0.0423  0.0045
  149loPI    C3 2371  16.718   0.976  10.788 -0.0016 -0.0190 -0.0783
  149loPI   PO4 2372  16.811   1.534  10.739 -0.3080  0.2838  0.0489
  149loPI   GL1 2373  16.906   1.291  10.286 -0.1920  0.1740  0.1177
  149loPI   GL2 2374  17.157   1.420  10.273  0.1188  0.1051  0.2237
  149loPI   C1A 2375  16.757   1.369   9.921  0.3228 -0.2944 -0.1978
  149loPI   C2A 2376  16.833   1.212   9.557  0.1951 -0.0519 -0.3132
  149loPI   C3A 2377  16.804   1.067   9.167  0.1565  0.3234  0.2948
  149loPI   C4A 2378  16.880   1.079   8.729 -0.1086  0.0557  0.2845
  149loPI   C5A 2379  16.810   0.912   8.302 -0.0080  0.2292  0.1783
  149loPI   C6A 2380  16.681   0.668   7.951  0.2419 -0.0911 -0.2748
  149loPI   C1B 2381  17.252   1.386   9.815 -0.1233  0.2118 -0.0401
  149loPI   C2B 2382  17.320   1.246   9.450 -0.1706  0.1987 -0.1966
  149loPI   C3B 2383  17.262   1.349   8.997  0.1609  0.1330  0.2538
  149loPI   C4B 2384  17.340   1.326   8.492  0.0778 -0.0238 -0.1428
  150loPI    C1 2385  16.517   0.162  11.043  0.3329 -0.0999  0.1306
  150loPI    C2 2386  16.135   0.134  11.158  0.3022 -0.3517 -0.0242
  150loPI    C3 2387  16.426   0.147  11.432  0.1774 -0.0285  0.0977
  150loPI   PO4 2388  16.607   0.011  10.789 -0.0121  0.1071  0.0406
  150loPI   GL1 2389  16.914  -0.042  10.437  0.0274  0.1435 -0.1232
  150loPI   GL2 2390  16.649  -0.328  10.333 -0.1589  0.3023 -0.0552
  150loPI   C1A 2391  17.001  -0.167   9.948  0.0291  0.0220 -0.0940
  150loPI   C2A 2392  16.983  -0.298   9.620  0.1904 -0.2280  0.0556
  150loPI   C3A 2393  16.981  -0.208   9.278 -0.0109  0.0585 -0.3556
  150loPI   C4A 2394  17.044  -0.366   8.771  0.2527  0.5345 -0.1411
  150loPI   C5A 2395  17.015  -0.130   8.435  0.0911 -0.0337 -0.0128
  150loPI   C6A 2396  17.245  -0.080   8.081  0.4952  0.0493 -0.3488
  150loPI   C1B 2397  16.492  -0.407   9.971  0.1771 -0.0147  0.0157
  150loPI   C2B 2398  16.506  -0.418   9.445 -0.0806 -0.1089  0.1006
  150loPI   C3B 2399  16.431  -0.414   9.019  0.0716 -0.1372 -0.1602
  150loPI   C4B 2400  16.556  -0.487   8.588 -0.0475 -0.1837  0.2461
  151loPI    C1 2401   2.477  11.213  11.234  0.0528 -0.3243  0.0060
  151loPI    C2 2402   2.299  11.438  11.512  0.2852  0.0267 -0.1230
  151loPI    C3 2403   2.628  11.230  11.604  0.3251  0.0919 -0.1171
  151loPI   PO4 2404   2.538  11.417  11.035  0.2690 -0.1634  0.4123
  151loPI   GL1 2405   2.394  11.374  10.655 -0.2872  0.1225  0.0708
  151loPI   GL2 2406   2.188  11.456  10.372 -0.0064 -0.0024 -0.2169
  151loPI   C1A 2407   2.628  11.526  10.201  0.1366  0.0774  0.1979
  151loPI   C2A 2408   2.859  11.606   9.749 -0.1136 -0.0427 -0.1504
  151loPI   C3A 2409   2.770  11.579   9.414  0.1463  0.4025 -0.0900
  151loPI   C4A 2410   2.776  11.650   8.988 -0.2435  0.2829 -0.0184
  151loPI   C5A 2411   2.691  11.738   8.515 -0.2648  0.2388  0.3433
  151loPI   C6A 2412   2.958  12.086   8.303  0.0651 -0.1002  0.2376
  151loPI   C1B 2413   2.186  11.437   9.911  0.3272 -0.2654 -0.0682
  151loPI   C2B 2414   2.256  11.394   9.498 -0.1351 -0.2271  0.2176
  151loPI   C3B 2415   2.358  11.418   9.087  0.1814 -0.2325  0.1945
  151loPI   C4B 2416   2.266  11.485   8.705 -0.0087 -0.1680  0.4302
  152loPI    C1 2417  15.789  17.779  10.895 -0.1331 -0.2021  0.0545
  152loPI    C2 2418  15.696  18.168  10.890  0.1504 -0.1321  0.0526
  152loPI    C3 2419  15.672  17.961  11.232 -0.1908 -0.1628  0.0134
  152loPI   PO4 2420  15.716  17.634  10.778 -0.0532  0.0504 -0.0343
  152loPI   GL1 2421  15.758  17.512  10.434  0.2576  0.1396  0.0196
  152loPI   GL2 2422  15.997  17.316  10.248  0.1693 -0.0186  0.3679
  152loPI   C1A 2423  15.571  17.519  10.069  0.3415 -0.5107  0.1249
  152loPI   C2A 2424  15.589  17.668   9.586 -0.1009 -0.1239  0.0643
  152loPI   C3A 2425  15.496  17.621   9.050  0.0893  0.1717  0.1070
  152loPI   C4A 2426  15.611  17.521   8.565 -0.4606 -0.0995 -0.0464
  152loPI   C5A 2427  15.730  17.242   8.315  0.2240 -0.1428 -0.1236
  152loPI   C6A 2428  16.151  16.938   8.280  0.0052 -0.0070 -0.0440
  152loPI   C1B 2429  15.854  17.264   9.749 -0.0702 -0.4539  0.1988
  152loPI   C2B 2430  15.929  17.192   9.273  0.0098  0.1455  0.0517
  152loPI   C3B 2431  15.926  17.296   8.883 -0.0744  0.1216  0.0719
  152loPI   C4B 2432  16.248  17.386   8.515 -0.0473  0.1445 -0.1820
  153loPI    C1 2433   3.056   1.804  11.323  0.1479 -0.0865  0.3496
  153loPI    C2 2434   2.900   2.078  11.568 -0.0777 -0.0165  0.1314
  153loPI    C3 2435   2.751   1.707  11.563 -0.2260  0.0443 -0.0613
  153loPI   PO4 2436   2.926   1.810  11.063 -0.1599 -0.0241 -0.1344
  153loPI   GL1 2437   2.934   1.701  10.572  0.1535 -0.0311 -0.0595
  153loPI   GL2 2438   2.729   1.435  10.542 -0.0204 -0.0849 -0.0290
  153loPI   C1A 2439   3.066   1.699  10.194 -0.4181 -0.0434 -0.1613
  153loPI   C2A 2440   2.992   1.567   9.815 -0.0644 -0.2243  0.0421
  153loPI   C3A 2441   3.060   1.485   9.469 -0.0830 -0.1490 -0.1432
  153loPI   C4A 2442   3.096   1.469   9.046 -0.0793  0.1669  0.3139
  153loPI   C5A 2443   2.975   1.615   8.650  0.1222  0.1478  0.3266
  153loPI   C6A 2444   3.143   1.888   8.320 -0.0080  0.0114  0.2263
  153loPI   C1B 2445   2.903   1.183  10.151 -0.2218  0.1611 -0.0969
  153loPI   C2B 2446   3.026   1.023   9.793 -0.0939  0.2019 -0.1524
  153loPI   C3B 2447   2.956   1.002   9.281  0.0514 -0.1108  0.1364
  153loPI   C4B 2448   3.020   0.964   8.837  0.1287  0.1671 -0.0490
  154loPI    C1 2449   8.951  12.893  10.521  0.0070 -0.0490  0.0379
  154loPI    C2 2450   9.224  12.624  10.407 -0.0906 -0.0440 -0.2127
  154loPI    C3 2451   9.101  12.634  10.787  0.0871 -0.1977 -0.1493
  154loPI   PO4 2452   9.108  13.206  10.475  0.1948 -0.0422 -0.1243
  154loPI   GL1 2453   9.120  13.593  10.365  0.1962 -0.0653 -0.0708
  154loPI   GL2 2454   8.865  13.812  10.333  0.1140  0.1665  0.0779
  154loPI   C1A 2455   9.078  13.616   9.864 -0.0310 -0.3175 -0.2154
  154loPI   C2A 2456   9.058  13.652   9.449 -0.1659 -0.1653  0.1527
  154loPI   C3A 2457   9.036  13.705   9.054 -0.0648 -0.1885 -0.2650
  154loPI   C4A 2458   9.072  13.619   8.645  0.2618  0.2998 -0.0485
  154loPI   C5A 2459   9.322  13.731   8.357  0.2098  0.0270 -0.3018
  154loPI   C6A 2460   9.394  13.642   7.916  0.4684 -0.0182 -0.2281
  154loPI   C1B 2461   8.647  13.816  10.016  0.0969  0.1032  0.2645
  154loPI   C2B 2462   8.673  13.912   9.505  0.0736 -0.1460 -0.1968
  154loPI   C3B 2463   8.583  13.934   9.164  0.3682 -0.0035 -0.5137
  154loPI   C4B 2464   8.554  13.941   8.809  0.1293 -0.0034  0.4226
  155loPI    C1 2465  12.727   8.180  10.183 -0.0329  0.1322 -0.0071
  155loPI    C2 2466  13.079   8.017  10.084 -0.0081 -0.0409  0.3508
  155loPI    C3 2467  13.067   8.337  10.324 -0.0880  0.0910  0.1735
  155loPI   PO4 2468  12.620   8.085   9.910  0.1937 -0.0587 -0.0679
  155loPI   GL1 2469  12.503   7.895   9.578  0.0509  0.1068 -0.2019
  155loPI   GL2 2470  12.165   7.725   9.483 -0.1577  0.0795 -0.2373
  155loPI   C1A 2471  12.490   7.718   9.125 -0.3505  0.0791  0.1428
  155loPI   C2A 2472  12.359   7.599   8.678 -0.2598 -0.1031 -0.0582
  155loPI   C3A 2473  12.425   7.437   8.287  0.2898 -0.1970  0.1126
  155loPI   C4A 2474  12.379   7.300   7.866 -0.1829 -0.1634 -0.1841
  155loPI   C5A 2475  12.303   7.005   7.550 -0.1899 -0.1278  0.0486
  155loPI   C6A 2476  11.891   6.968   7.326  0.2549 -0.0571  0.1531
  155loPI   C1B 2477  12.048   7.927   9.088 -0.1481  0.1975  0.0504
  155loPI   C2B 2478  12.047   8.006   8.733  0.2009 -0.1262 -0.0365
  155loPI   C3B 2479  11.903   7.833   8.319  0.0179 -0.2210  0.3452
  155loPI   C4B 2480  11.745   7.848   7.824 -0.1758  0.1775 -0.0106
  156loPI    C1 2481  12.829  13.434  10.759  0.2021  0.0494 -0.1015
  156loPI    C2 2482  12.799  13.675  10.441 -0.1248  0.0443 -0.0783
  156loPI    C3 2483  12.715  13.815  10.806  0.1653  0.0263 -0.0019
  156loPI   PO4 2484  12.776  13.155  10.601 -0.3466 -0.1442 -0.0908
  156loPI   GL1 2485  12.669  13.230  10.161 -0.0872  0.0541  0.0507
  156loPI   GL2 2486  12.815  12.991   9.989 -0.2259 -0.2467 -0.1051
  156loPI   C1A 2487  12.611  13.505   9.930  0.1471 -0.0086  0.3934
  156loPI   C2A 2488  12.660  13.543   9.383 -0.1509 -0.0913  0.1640
  156loPI   C3A 2489  12.641  13.555   8.949 -0.2033 -0.2977  0.0104
  156loPI   C4A 2490  12.867  13.565   8.487  0.0643 -0.0441 -0.2134
  156loPI   C5A 2491  12.430  13.548   8.482  0.1842  0.2745  0.0805
  156loPI   C6A 2492  12.093  13.736   8.366  0.0737  0.0133  0.0665
  156loPI   C1B 2493  12.663  13.077   9.641  0.2452  0.0057 -0.0005
  156loPI   C2B 2494  12.517  13.129   9.180  0.1341 -0.1154  0.1500
  156loPI   C3B 2495  12.637  13.090   8.772 -0.1040  0.0478  0.1783
  156loPI   C4B 2496  12.578  13.082   8.337 -0.1563 -0.1637  0.6402
  157loPI    C1 2497   0.919   5.784  10.846 -0.0830 -0.1614 -0.2034
  157loPI    C2 2498   0.950   5.394  10.927 -0.2929 -0.1435 -0.0285
  157loPI    C3 2499   1.058   5.665  11.201  0.2528 -0.0715 -0.3010
  157loPI   PO4 2500   0.985   5.811  10.597 -0.2344  0.0186  0.3600
  157loPI   GL1 2501   1.045   5.577  10.227  0.0882  0.2425 -0.0611
  157loPI   GL2 2502   1.378   5.809  10.118 -0.1106 -0.2803 -0.2475
  157loPI   C1A 2503   0.893   5.574   9.771  0.0856 -0.2346  0.0287
  157loPI   C2A 2504   0.982   5.550   9.374 -0.2291  0.2717  0.0564
  157loPI   C3A 2505   1.017   5.594   8.925  0.2226  0.1451 -0.3610
  157loPI   C4A 2506   0.974   5.455   8.499 -0.0442  0.0234 -0.1221
  157loPI   C5A 2507   1.116   5.309   8.044 -0.0055  0.1251 -0.0324
  157loPI   C6A 2508   0.918   5.341   7.705  0.1909 -0.0865  0.2727
  157loPI   C1B 2509   1.391   5.765   9.607 -0.0181 -0.1952  0.2254
  157loPI   C2B 2510   1.443   5.677   9.148  0.0716  0.0101 -0.1912
  157loPI   C3B 2511   1.517   5.725   8.800  0.1335  0.1473  0.0427
  157loPI   C4B 2512   1.517   5.684   8.265  0.1212 -0.3875  0.0133
  158loPI    C1 2513   3.384  14.812  11.267 -0.1445  0.1140  0.0682
  158loPI    C2 2514   3.029  14.832  11.450 -0.0535 -0.0941  0.2725
  158loPI    C3 2515   3.291  14.548  11.552  0.0913 -0.0705 -0.0223
  158loPI   PO4 2516   3.397  14.741  10.972  0.0092 -0.0794 -0.0994
  158loPI   GL1 2517   3.245  14.883  10.588  0.1155  0.1897  0.1205
  158loPI   GL2 2518   3.411  14.631  10.461 -0.2332  0.1202 -0.3411
  158loPI   C1A 2519   3.323  15.141  10.251  0.0663  0.0718  0.1965
  158loPI   C2A 2520   3.305  15.196   9.815  0.2883  0.1315  0.1331
  158loPI   C3A 2521   3.342  15.202   9.375 -0.0276  0.2243  0.1702
  158loPI   C4A 2522   3.411  15.109   8.912  0.2664 -0.3590 -0.0837
  158loPI   C5A 2523   3.608  15.011   8.445  0.0532 -0.0996 -0.1866
  158loPI   C6A 2524   3.625  14.678   8.188 -0.2588  0.1088 -0.1232
  158loPI   C1B 2525   3.234  14.642  10.053 -0.0967 -0.3465  0.0891
  158loPI   C2B 2526   3.247  14.719   9.583 -0.0364  0.3120  0.0871
  158loPI   C3B 2527   3.254  14.603   9.173  0.0227 -0.3822  0.0113
  158loPI   C4B 2528   3.284  14.601   8.777 -0.0382 -0.2682  0.1118
  159loPI    C1 2529  11.548  14.530  10.844  0.0392  0.2453  0.0739
  159loPI    C2 2530  11.645  14.142  10.855 -0.1425  0.1950 -0.0482
  159loPI    C3 2531  11.896  14.415  11.005  0.0899  0.0505 -0.1672
  159loPI   PO4 2532  11.396  14.538  10.604  0.1413 -0.1487  0.2817
  159loPI   GL1 2533  11.417  14.689  10.189 -0.2383  0.0195  0.2433
  159loPI   GL2 2534  11.243  14.387  10.040  0.0910 -0.0539 -0.3442
  159loPI   C1A 2535  11.128  14.875   9.882 -0.2095  0.0312  0.0239
  159loPI   C2A 2536  11.073  14.814   9.405 -0.1579  0.1396 -0.0087
  159loPI   C3A 2537  11.107  14.893   8.976 -0.2420 -0.0175  0.0151
  159loPI   C4A 2538  10.964  14.914   8.533 -0.2280 -0.0712  0.2259
  159loPI   C5A 2539  10.665  15.073   8.155 -0.0063  0.1234  0.1249
  159loPI   C6A 2540  10.359  15.475   8.072  0.0431  0.0921 -0.0850
  159loPI   C1B 2541  11.490  14.505   9.683  0.1583  0.0257 -0.2628
  159loPI   C2B 2542  11.444  14.595   9.171 -0.1567 -0.0963  0.1381
  159loPI   C3B 2543  11.516  14.617   8.854 -0.2552  0.3075 -0.0613
  159loPI   C4B 2544  11.379  14.540   8.451 -0.2670 -0.0683 -0.4859
  160loPI    C1 2545  17.813  15.549  11.075 -0.0856  0.0007  0.0121
  160loPI    C2 2546  18.082  15.266  11.160  0.1458  0.1787 -0.1159
  160loPI    C3 2547  18.112  15.626  11.331 -0.0296  0.1901 -0.1083
  160loPI   PO4 2548  17.794  15.519  10.769  0.1014 -0.0529 -0.0493
  160loPI   GL1 2549  18.028  15.503  10.386 -0.0946 -0.1319  0.0015
  160loPI   GL2 2550  18.189  15.254  10.238  0.1606  0.2400  0.4264
  160loPI   C1A 2551  18.034  15.728  10.113  0.0414 -0.2071  0.2987
  160loPI   C2A 2552  18.101  15.610   9.688  0.1784  0.2174  0.0936
  160loPI   C3A 2553  18.094  15.704   9.277  0.0393  0.0821  0.4142
  160loPI   C4A 2554  18.037  15.694   8.882  0.1221  0.0289  0.2316
  160loPI   C5A 2555  17.947  15.683   8.512 -0.2527 -0.1062  0.1163
  160loPI   C6A 2556  17.579  15.698   8.195 -0.1408 -0.2846 -0.3224
  160loPI   C1B 2557  18.508  15.348   9.830  0.1031  0.0334  0.3324
  160loPI   C2B 2558  18.515  15.366   9.422  0.3401 -0.1115 -0.1677
  160loPI   C3B 2559  18.507  15.323   8.969 -0.1661  0.0021  0.1612
  160loPI   C4B 2560  18.384  15.499   8.545  0.3425 -0.3055  0.0592
  161loPI    C1 2561   8.248  11.286  10.457 -0.1385 -0.1004  0.0905
  161loPI    C2 2562   7.938  11.341  10.704 -0.0925  0.1755  0.0902
  161loPI    C3 2563   8.277  11.177  10.840 -0.1111  0.2113  0.1804
  161loPI   PO4 2564   8.220  11.570  10.252  0.0826  0.0921 -0.0317
  161loPI   GL1 2565   7.977  11.683   9.959 -0.0116 -0.1446  0.0939
  161loPI   GL2 2566   8.036  11.308   9.834 -0.1835 -0.2799  0.0579
  161loPI   C1A 2567   8.063  12.014   9.689  0.1830 -0.0296 -0.1104
  161loPI   C2A 2568   8.073  12.079   9.265 -0.1887 -0.0778 -0.1820
  161loPI   C3A 2569   8.021  12.079   8.770  0.1925 -0.2745 -0.0272
  161loPI   C4A 2570   7.986  11.996   8.328 -0.0393  0.0416 -0.0196
  161loPI   C5A 2571   7.716  12.052   8.042 -0.1522 -0.0890  0.0198
  161loPI   C6A 2572   7.282  11.887   8.103 -0.1723 -0.1369  0.2129
  161loPI   C1B 2573   7.938  11.537   9.512  0.0574  0.0121 -0.0922
  161loPI   C2B 2574   7.875  11.671   9.022  0.0512  0.2662  0.3129
  161loPI   C3B 2575   7.945  11.553   8.650 -0.2424  0.1527  0.1559
  161loPI   C4B 2576   7.947  11.499   8.179  0.5313 -0.0972  0.0741
  162loPI    C1 2577  12.305   6.209  10.020 -0.2241 -0.0229  0.0466
  162loPI    C2 2578  12.050   6.485  10.156  0.0265  0.2463 -0.0177
  162loPI    C3 2579  12.256   6.259  10.413 -0.2782  0.0220  0.0343
  162loPI   PO4 2580  12.538   6.320   9.840  0.0042 -0.0772 -0.2553
  162loPI   GL1 2581  12.419   6.230   9.486  0.0791  0.1820  0.0704
  162loPI   GL2 2582  12.520   5.933   9.264  0.0020  0.1077  0.2319
  162loPI   C1A 2583  12.369   6.346   9.081  0.0806 -0.0897  0.1497
  162loPI   C2A 2584  12.316   6.438   8.670 -0.0168  0.2588 -0.0396
  162loPI   C3A 2585  12.180   6.417   8.163  0.0241 -0.0765  0.2542
  162loPI   C4A 2586  12.083   6.571   7.702 -0.1031 -0.0737  0.0439
  162loPI   C5A 2587  12.317   6.632   7.251 -0.4797  0.0692 -0.2948
  162loPI   C6A 2588  12.727   6.492   6.982  0.0997 -0.0278  0.4497
  162loPI   C1B 2589  12.469   5.911   8.768  0.3188 -0.1615 -0.3174
  162loPI   C2B 2590  12.416   6.022   8.344 -0.0163 -0.1929 -0.0308
  162loPI   C3B 2591  12.607   6.170   7.850 -0.2364  0.1717  0.1915
  162loPI   C4B 2592  12.552   6.172   7.300 -0.1837  0.3149 -0.1354
  163loPI    C1 2593  15.460   1.138  10.689 -0.1218 -0.0807  0.1697
  163loPI    C2 2594  15.791   1.314  10.828  0.0291 -0.1352 -0.1134
  163loPI    C3 2595  15.434   1.416  10.976  0.1673 -0.0514  0.1706
  163loPI   PO4 2596  15.499   0.853  10.667 -0.0086  0.0078  0.2853
  163loPI   GL1 2597  15.606   0.675  10.335 -0.3190  0.0914 -0.1824
  163loPI   GL2 2598  15.286   0.603  10.216 -0.2116 -0.0089 -0.0856
  163loPI   C1A 2599  15.662   0.750   9.924  0.0090  0.1250 -0.0054
  163loPI   C2A 2600  15.832   0.733   9.441  0.2123 -0.0729 -0.3085
  163loPI   C3A 2601  15.774   0.771   9.084 -0.0135  0.4317 -0.0129
  163loPI   C4A 2602  15.920   0.732   8.617 -0.1351 -0.1210 -0.3625
  163loPI   C5A 2603  15.771   0.843   8.219 -0.0359 -0.0518  0.0988
  163loPI   C6A 2604  15.900   1.017   7.873 -0.2252  0.1793  0.0069
  163loPI   C1B 2605  15.253   0.440   9.806  0.2281 -0.0934 -0.1560
  163loPI   C2B 2606  15.354   0.566   9.400 -0.0868  0.2062 -0.0711
  163loPI   C3B 2607  15.339   0.495   9.014 -0.1619 -0.3336  0.0165
  163loPI   C4B 2608  15.342   0.616   8.732  0.1588 -0.5522  0.1651
  164loPI    C1 2609  17.710   1.371  10.697  0.0050 -0.1964  0.0102
  164loPI    C2 2610  17.883   1.556  11.006 -0.0034 -0.0019 -0.1000
  164loPI    C3 2611  17.648   1.239  11.069 -0.2303  0.2054  0.1200
  164loPI   PO4 2612  17.926   1.263  10.484 -0.3667  0.1112  0.0505
  164loPI   GL1 2613  18.314   1.324  10.340 -0.0412 -0.2589  0.0596
  164loPI   GL2 2614  18.665   1.385  10.394 -0.0223  0.1090 -0.1693
  164loPI   C1A 2615  18.216   1.158   9.945  0.1906 -0.3121  0.1570
  164loPI   C2A 2616  18.206   1.219   9.452 -0.2641 -0.0011  0.0575
  164loPI   C3A 2617  18.318   1.151   8.996  0.0678 -0.0182  0.1740
  164loPI   C4A 2618  18.266   1.087   8.513 -0.2834  0.5523 -0.1242
  164loPI   C5A 2619  18.039   0.950   8.140  0.0876  0.0737 -0.0580
  164loPI   C6A 2620  17.590   1.148   8.089 -0.0663  0.0041 -0.1042
  164loPI   C1B 2621  18.772   1.374   9.924 -0.2689 -0.0867  0.1080
  164loPI   C2B 2622  18.786   1.307   9.467  0.0484  0.0297 -0.1860
  164loPI   C3B 2623  18.800   1.380   9.036 -0.0485  0.1533 -0.1034
  164loPI   C4B 2624  18.755   1.301   8.552 -0.2564 -0.0399 -0.2578
  165loPI    C1 2625  11.572   8.370   9.944 -0.4315 -0.2008  0.0340
  165loPI    C2 2626  11.728   8.313  10.308  0.0354  0.0059 -0.1251
  165loPI    C3 2627  11.493   8.034  10.145  0.0424 -0.2086  0.2218
  165loPI   PO4 2628  11.787   8.424   9.841 -0.3090  0.0065  0.0788
  165loPI   GL1 2629  11.893   8.584   9.439 -0.0566  0.1361 -0.1146
  165loPI   GL2 2630  11.932   8.938   9.339 -0.1030  0.3593  0.0267
  165loPI   C1A 2631  11.570   8.233   9.166  0.0628  0.0098 -0.1250
  165loPI   C2A 2632  11.469   8.172   8.743 -0.1079 -0.1957 -0.0320
  165loPI   C3A 2633  11.335   8.075   8.318  0.0301  0.0780  0.1024
  165loPI   C4A 2634  11.322   8.100   7.848 -0.1297 -0.0693 -0.0182
  165loPI   C5A 2635  11.236   7.784   7.458  0.0114  0.1550 -0.2139
  165loPI   C6A 2636  11.373   7.817   7.066  0.0777  0.0474 -0.0492
  165loPI   C1B 2637  11.812   9.020   8.950 -0.0805 -0.0544  0.4024
  165loPI   C2B 2638  11.798   9.069   8.460  0.3528 -0.1382 -0.0097
  165loPI   C3B 2639  11.656   8.900   8.120  0.1451  0.1909  0.0417
  165loPI   C4B 2640  11.633   8.948   7.641  0.0075  0.1607 -0.0027
  166loPI    C1 2641   3.627  17.662  11.052 -0.0151  0.1122  0.2187
  166loPI    C2 2642   4.021  17.726  11.017 -0.0414  0.1556 -0.0109
  166loPI    C3 2643   3.870  17.597  11.364  0.2031 -0.0708  0.0144
  166loPI   PO4 2644   3.540  17.683  10.876 -0.0428  0.0883 -0.1400
  166loPI   GL1 2645   3.620  17.855  10.562  0.1441 -0.0670  0.1425
  166loPI   GL2 2646   3.844  18.042  10.679 -0.1943 -0.0412 -0.0753
  166loPI   C1A 2647   3.700  17.823  10.153 -0.1484  0.1313  0.0465
  166loPI   C2A 2648   3.649  17.743   9.803  0.1922 -0.3176  0.0510
  166loPI   C3A 2649   3.654  17.796   9.327 -0.0232  0.2169  0.1158
  166loPI   C4A 2650   3.687  17.751   8.823 -0.0913  0.0421  0.0434
  166loPI   C5A 2651   3.660  17.742   8.500 -0.0407 -0.4340  0.2263
  166loPI   C6A 2652   3.510  17.532   8.166 -0.5113  0.0553  0.0715
  166loPI   C1B 2653   4.106  18.090  10.294  0.1819  0.1936  0.1851
  166loPI   C2B 2654   4.135  18.004   9.905 -0.1548  0.2583  0.0500
  166loPI   C3B 2655   4.139  17.911   9.450 -0.0579  0.4566 -0.2399
  166loPI   C4B 2656   4.222  17.971   8.941  0.2483  0.1648 -0.0672
  167loPI    C1 2657  17.899   0.011  10.735 -0.2873  0.2593  0.0418
  167loPI    C2 2658  17.902  -0.190  11.080  0.0932  0.0340 -0.0863
  167loPI    C3 2659  18.065   0.175  11.060 -0.0237  0.0916 -0.0054
  167loPI   PO4 2660  17.937  -0.184  10.466 -0.1884 -0.0431  0.0490
  167loPI   GL1 2661  17.888  -0.229  10.087  0.0792 -0.1220  0.0319
  167loPI   GL2 2662  17.605  -0.457  10.153 -0.2349  0.3082  0.2681
  167loPI   C1A 2663  17.903  -0.364   9.742  0.0481  0.0739 -0.2570
  167loPI   C2A 2664  18.034  -0.374   9.251  0.1120 -0.2563  0.2012
  167loPI   C3A 2665  18.016  -0.315   8.828  0.5059  0.1947  0.0130
  167loPI   C4A 2666  18.141  -0.342   8.374 -0.2635  0.0933 -0.0995
  167loPI   C5A 2667  18.141  -0.248   8.003  0.0536  0.2322  0.2284
  167loPI   C6A 2668  18.349  -0.473   7.691 -0.0193 -0.1521  0.0907
  167loPI   C1B 2669  17.439  -0.532   9.778  0.0290  0.0201  0.2856
  167loPI   C2B 2670  17.567  -0.583   9.390 -0.1363 -0.1553 -0.1201
  167loPI   C3B 2671  17.590  -0.574   8.914 -0.1004  0.0663  0.1552
  167loPI   C4B 2672  17.544  -0.594   8.512  0.0098 -0.0379 -0.1491
  168loPI    C1 2673  11.886  17.872  11.044  0.0985 -0.0789 -0.1300
  168loPI    C2 2674  11.730  18.025  11.379 -0.1345 -0.1031 -0.2254
  168loPI    C3 2675  12.078  17.829  11.392  0.0053  0.1509 -0.0478
  168loPI   PO4 2676  11.647  17.781  10.927 -0.4007 -0.2427 -0.1105
  168loPI   GL1 2677  11.689  17.715  10.528 -0.0121 -0.1057 -0.3215
  168loPI   GL2 2678  11.969  17.844  10.431 -0.1642  0.2205 -0.0133
  168loPI   C1A 2679  11.373  17.544  10.201  0.1741 -0.0031 -0.1311
  168loPI   C2A 2680  11.374  17.565   9.712 -0.0738  0.2115 -0.1769
  168loPI   C3A 2681  11.363  17.546   9.173  0.0592  0.1107 -0.0640
  168loPI   C4A 2682  11.386  17.444   8.873  0.2508 -0.2666  0.0652
  168loPI   C5A 2683  11.475  17.448   8.454  0.1710  0.0023  0.2210
  168loPI   C6A 2684  11.430  17.215   8.074 -0.1138  0.1980 -0.0546
  168loPI   C1B 2685  11.815  17.679   9.963 -0.0028 -0.2866 -0.0431
  168loPI   C2B 2686  11.910  17.597   9.537  0.0485 -0.1605  0.1692
  168loPI   C3B 2687  11.851  17.726   9.137 -0.2250 -0.0715  0.3625
  168loPI   C4B 2688  11.840  17.631   8.696 -0.2584  0.0657 -0.0223
  169loPI    C1 2689   2.929   0.814  11.341 -0.2499  0.1125  0.5423
  169loPI    C2 2690   3.077   0.457  11.445  0.0739  0.0524 -0.0786
  169loPI    C3 2691   3.207   0.788  11.628  0.1410 -0.1017  0.1564
  169loPI   PO4 2692   2.850   0.806  11.144 -0.0702  0.1122  0.0610
  169loPI   GL1 2693   2.976   0.681  10.697  0.0008 -0.3622 -0.0752
  169loPI   GL2 2694   3.087   0.885  10.673 -0.3142 -0.1340 -0.0633
  169loPI   C1A 2695   2.879   0.595  10.311 -0.1344 -0.0521  0.2369
  169loPI   C2A 2696   2.854   0.555   9.885 -0.0018  0.0633 -0.1110
  169loPI   C3A 2697   2.884   0.553   9.445  0.4535  0.0721 -0.0283
  169loPI   C4A 2698   2.850   0.472   9.067  0.2652  0.1253 -0.2795
  169loPI   C5A 2699   2.882   0.460   8.639  0.4937  0.0275 -0.0459
  169loPI   C6A 2700   2.774   0.747   8.289  0.2490 -0.1679  0.1095
  169loPI   C1B 2701   3.304   0.871  10.314 -0.1349 -0.1666  0.2059
  169loPI   C2B 2702   3.397   0.760   9.994 -0.1658 -0.0786  0.0562
  169loPI   C3B 2703   3.421   0.678   9.579 -0.0870 -0.0443  0.2043
  169loPI   C4B 2704   3.348   0.617   9.113  0.3353  0.0267  0.0723
  170loPI    C1 2705  17.051   0.177  10.984  0.0053  0.1880 -0.1537
  170loPI    C2 2706  16.975  -0.050  11.305  0.0667  0.0805 -0.2145
  170loPI    C3 2707  16.932   0.347  11.326 -0.0362  0.0643 -0.1059
  170loPI   PO4 2708  17.255   0.003  10.799  0.2279 -0.0764 -0.2510
  170loPI   GL1 2709  17.453   0.093  10.347  0.1713 -0.1340 -0.0173
  170loPI   GL2 2710  17.660   0.271  10.259 -0.2449  0.1467 -0.0765
  170loPI   C1A 2711  17.475   0.002   9.900  0.0875 -0.0034  0.0394
  170loPI   C2A 2712  17.442  -0.059   9.467  0.1633 -0.1534 -0.1372
  170loPI   C3A 2713  17.542  -0.057   9.027  0.0666 -0.2413  0.0504
  170loPI   C4A 2714  17.524  -0.021   8.556  0.1297 -0.1148 -0.1003
  170loPI   C5A 2715  17.759   0.191   8.197 -0.0975  0.1012 -0.0556
  170loPI   C6A 2716  18.093   0.403   8.028  0.0636 -0.0578 -0.0033
  170loPI   C1B 2717  17.517   0.551   9.934 -0.4130 -0.0089 -0.1133
  170loPI   C2B 2718  17.665   0.452   9.639 -0.2311  0.4195 -0.0850
  170loPI   C3B 2719  17.683   0.446   9.229  0.0326  0.2667  0.1576
  170loPI   C4B 2720  17.709   0.419   8.735 -0.1851 -0.2007 -0.0069
  171loPI    C1 2721  13.226  13.792  10.872 -0.0814  0.3032 -0.3238
  171loPI    C2 2722  13.133  14.163  10.987 -0.2428  0.2071 -0.1396
  171loPI    C3 2723  13.037  13.852  11.219 -0.2863  0.0343 -0.3856
  171loPI   PO4 2724  13.233  13.807  10.594 -0.0529 -0.3926 -0.0085
  171loPI   GL1 2725  13.238  14.033  10.334  0.0468  0.2471 -0.0564
  171loPI   GL2 2726  13.361  14.313  10.144 -0.1850  0.1200  0.0111
  171loPI   C1A 2727  12.835  14.013  10.071 -0.0572 -0.0730  0.0333
  171loPI   C2A 2728  12.660  14.028   9.639  0.2422  0.2949 -0.0017
  171loPI   C3A 2729  12.756  14.104   9.204 -0.0284  0.0874 -0.0185
  171loPI   C4A 2730  12.642  14.071   8.839 -0.1697 -0.1145  0.2177
  171loPI   C5A 2731  12.616  14.012   8.455  0.2658  0.0284 -0.0422
  171loPI   C6A 2732  12.533  13.863   8.174 -0.4722  0.0567 -0.0922
  171loPI   C1B 2733  13.237  14.212   9.783 -0.0632 -0.0639  0.1242
  171loPI   C2B 2734  13.192  14.181   9.333 -0.0874 -0.2646  0.2058
  171loPI   C3B 2735  13.253  14.222   8.914 -0.0501 -0.1087  0.2006
  171loPI   C4B 2736  13.040  14.248   8.585 -0.2516  0.1396  0.0942
  172loPI    C1 2737  16.039  12.910  10.248  0.0302 -0.1158 -0.0787
  172loPI    C2 2738  15.722  12.817  10.473 -0.1318  0.1077 -0.2108
  172loPI    C3 2739  16.091  12.772  10.620 -0.2360  0.3061  0.1226
  172loPI   PO4 2740  15.995  13.037  10.100 -0.0931 -0.1702  0.0920
  172loPI   GL1 2741  15.803  13.293   9.811 -0.2772 -0.0286 -0.1518
  172loPI   GL2 2742  15.453  13.412   9.768  0.1750  0.1164  0.1429
  172loPI   C1A 2743  15.826  13.377   9.358  0.0633  0.0146 -0.0795
  172loPI   C2A 2744  15.925  13.398   8.954  0.1319 -0.1768 -0.1136
  172loPI   C3A 2745  15.834  13.277   8.535  0.1891  0.0051  0.1048
  172loPI   C4A 2746  15.777  13.330   8.040 -0.0555 -0.1481 -0.0182
  172loPI   C5A 2747  16.094  13.226   7.609 -0.1960 -0.0078 -0.0013
  172loPI   C6A 2748  16.215  13.101   7.221 -0.0137  0.2280  0.0200
  172loPI   C1B 2749  15.354  13.580   9.461 -0.0805 -0.2086 -0.2530
  172loPI   C2B 2750  15.474  13.734   9.089 -0.3326  0.1777 -0.2299
  172loPI   C3B 2751  15.426  13.682   8.619  0.0225  0.1736 -0.0560
  172loPI   C4B 2752  15.341  13.746   8.199 -0.0732  0.2032  0.0004
  173loPI    C1 2753   6.697   1.301  11.104  0.0594  0.2519 -0.1597
  173loPI    C2 2754   7.024   1.263  10.876  0.1343  0.1691 -0.0394
  173loPI    C3 2755   7.053   1.418  11.244  0.0151  0.2935 -0.0816
  173loPI   PO4 2756   6.555   1.120  10.891  0.1216 -0.0930 -0.1545
  173loPI   GL1 2757   6.607   1.229  10.420 -0.2321 -0.0583 -0.0108
  173loPI   GL2 2758   6.940   1.530  10.378 -0.1113  0.1553  0.0382
  173loPI   C1A 2759   6.606   1.239   9.966 -0.0458 -0.1322 -0.2342
  173loPI   C2A 2760   6.634   1.157   9.564  0.0250 -0.0982 -0.3213
  173loPI   C3A 2761   6.516   1.041   9.228 -0.0204  0.0704 -0.0202
  173loPI   C4A 2762   6.651   0.985   8.701 -0.2123  0.0474 -0.2269
  173loPI   C5A 2763   6.446   0.894   8.234 -0.0379 -0.1733 -0.0223
  173loPI   C6A 2764   6.542   0.951   7.774  0.1054  0.0224 -0.3640
  173loPI   C1B 2765   7.139   1.412   9.956  0.3373  0.0689  0.0824
  173loPI   C2B 2766   7.157   1.312   9.544 -0.0510  0.0082 -0.0484
  173loPI   C3B 2767   7.159   1.268   9.041 -0.0064  0.0781  0.1118
  173loPI   C4B 2768   7.289   1.154   8.557 -0.1060  0.1978  0.0328
  174loPI    C1 2769   7.773   7.538  10.058  0.3367  0.1783 -0.0620
  174loPI    C2 2770   7.903   7.166  10.130 -0.2822 -0.0300  0.0432
  174loPI    C3 2771   7.959   7.454  10.402  0.3260 -0.0011 -0.0986
  174loPI   PO4 2772   7.762   7.634   9.818 -0.0228 -0.1284  0.0715
  174loPI   GL1 2773   7.672   7.432   9.536 -0.2575 -0.2611  0.0221
  174loPI   GL2 2774   7.793   7.634   9.294 -0.2472 -0.0861  0.2465
  174loPI   C1A 2775   7.553   7.189   9.230 -0.1512 -0.1130 -0.0777
  174loPI   C2A 2776   7.474   7.122   8.750  0.0368  0.1282 -0.1449
  174loPI   C3A 2777   7.439   7.153   8.348  0.0789 -0.1005 -0.3312
  174loPI   C4A 2778   7.459   7.003   8.063  0.3343  0.2513  0.0847
  174loPI   C5A 2779   7.108   7.108   7.752  0.0586 -0.3487 -0.2440
  174loPI   C6A 2780   7.014   7.325   7.384 -0.2549  0.1131 -0.4515
  174loPI   C1B 2781   7.734   7.607   8.852  0.0222  0.1643 -0.0103
  174loPI   C2B 2782   7.700   7.632   8.415 -0.0556  0.2614 -0.1004
  174loPI   C3B 2783   7.601   7.631   7.995 -0.1683 -0.2551  0.0976
  174loPI   C4B 2784   7.386   7.609   7.663 -0.4537  0.2208 -0.2230
  175loPI    C1 2785   1.362  11.267  10.545  0.1953  0.2048  0.1354
  175loPI    C2 2786   1.135  11.442  10.825  0.0367  0.1151  0.0640
  175loPI    C3 2787   1.495  11.296  10.922  0.0074  0.1371  0.2078
  175loPI   PO4 2788   1.191  11.424  10.338 -0.0970 -0.1756 -0.1209
  175loPI   GL1 2789   1.196  11.486   9.965 -0.0918 -0.1421  0.0815
  175loPI   GL2 2790   0.813  11.358   9.994  0.0642 -0.0536 -0.1161
  175loPI   C1A 2791   1.344  11.491   9.541 -0.0955  0.3125 -0.3228
  175loPI   C2A 2792   1.461  11.580   9.121 -0.1573  0.1399 -0.0391
  175loPI   C3A 2793   1.319  11.567   8.817  0.2685  0.1628  0.2040
  175loPI   C4A 2794   1.206  11.615   8.359  0.1983 -0.3785 -0.0803
  175loPI   C5A 2795   1.236  11.740   7.865 -0.0998  0.3928  0.0603
  175loPI   C6A 2796   1.513  11.990   7.756 -0.1752 -0.0113  0.0212
  175loPI   C1B 2797   0.843  11.275   9.561 -0.2098 -0.3373  0.1069
  175loPI   C2B 2798   0.966  11.405   9.145  0.0997 -0.1463 -0.0778
  175loPI   C3B 2799   0.869  11.361   8.679  0.2865 -0.2271 -0.0740
  175loPI   C4B 2800   0.756  11.437   8.279  0.1266  0.1054  0.0316
  176loPI    C1 2801  17.975  17.731  11.262 -0.0266  0.0636 -0.1667
  176loPI    C2 2802  17.733  17.943  11.500 -0.1312 -0.1490 -0.0807
  176loPI    C3 2803  18.080  17.803  11.642  0.0252  0.1185 -0.1913
  176loPI   PO4 2804  17.800  17.630  11.051  0.1046  0.2385  0.3234
  176loPI   GL1 2805  17.978  17.495  10.665 -0.0726 -0.2076  0.0235
  176loPI   GL2 2806  17.607  17.414  10.635  0.3389 -0.2965  0.2420
  176loPI   C1A 2807  17.917  17.573  10.309 -0.1560  0.0847 -0.0101
  176loPI   C2A 2808  17.911  17.551   9.937  0.0480 -0.0999  0.0528
  176loPI   C3A 2809  17.941  17.506   9.544 -0.1524 -0.0405  0.2004
  176loPI   C4A 2810  17.952  17.547   9.060 -0.0823  0.1622 -0.0512
  176loPI   C5A 2811  17.949  17.574   8.627 -0.0068 -0.2548  0.0971
  176loPI   C6A 2812  17.908  17.585   8.200  0.2760 -0.1508 -0.1456
  176loPI   C1B 2813  17.460  17.331  10.197 -0.1258 -0.2569  0.0142
  176loPI   C2B 2814  17.376  17.260   9.788  0.1061  0.0173 -0.4036
  176loPI   C3B 2815  17.473  17.318   9.305  0.0911  0.0759  0.0793
  176loPI   C4B 2816  17.516  17.354   8.898 -0.0255  0.2588 -0.2297
  177loPI    C1 2817   3.258  11.425  10.969 -0.1387  0.0277 -0.0499
  177loPI    C2 2818   3.458  11.239  11.261 -0.3203 -0.1774 -0.0538
  177loPI    C3 2819   3.394  11.633  11.282  0.0819 -0.1086 -0.0534
  177loPI   PO4 2820   3.330  11.379  10.706  0.0275  0.2167  0.3195
  177loPI   GL1 2821   3.544  11.536  10.446  0.1448 -0.2602  0.1829
  177loPI   GL2 2822   3.800  11.826  10.509 -0.5637  0.1487 -0.0962
  177loPI   C1A 2823   3.639  11.526  10.004  0.1275  0.1245 -0.0216
  177loPI   C2A 2824   3.691  11.537   9.513  0.0630 -0.1035 -0.1261
  177loPI   C3A 2825   3.749  11.482   9.119  0.4468 -0.0284  0.1346
  177loPI   C4A 2826   3.705  11.443   8.692 -0.0054  0.3634  0.2369
  177loPI   C5A 2827   3.761  11.670   8.397 -0.0927 -0.4275  0.1741
  177loPI   C6A 2828   3.667  12.049   8.336 -0.2501  0.2974  0.2505
  177loPI   C1B 2829   3.731  12.060  10.159  0.1110 -0.1979  0.1000
  177loPI   C2B 2830   3.657  12.044   9.734  0.1547  0.2742  0.3107
  177loPI   C3B 2831   3.678  11.957   9.256 -0.0519  0.3107  0.0346
  177loPI   C4B 2832   3.724  12.011   8.829 -0.3459 -0.2803  0.0779
  178loPI    C1 2833  17.832   8.381  10.502  0.0714 -0.1346  0.2376
  178loPI    C2 2834  17.445   8.447  10.580  0.0267 -0.0632 -0.0373
  178loPI    C3 2835  17.726   8.653  10.776 -0.0769 -0.0466  0.0947
  178loPI   PO4 2836  17.897   8.129  10.402 -0.1676  0.0234 -0.2387
  178loPI   GL1 2837  17.828   7.898   9.998  0.0389 -0.2319 -0.1211
  178loPI   GL2 2838  17.429   7.838  10.043  0.1646 -0.3835 -0.1762
  178loPI   C1A 2839  17.779   8.048   9.531 -0.1672  0.2651  0.2517
  178loPI   C2A 2840  17.821   7.879   9.092 -0.4686 -0.0573  0.1996
  178loPI   C3A 2841  17.828   7.879   8.690 -0.0320  0.0371  0.2806
  178loPI   C4A 2842  17.874   7.964   8.232 -0.2542 -0.1978  0.2593
  178loPI   C5A 2843  17.828   8.227   7.811 -0.1246 -0.0657  0.1945
  178loPI   C6A 2844  17.807   8.620   7.647 -0.0252  0.0053 -0.0314
  178loPI   C1B 2845  17.434   7.675   9.652  0.0451  0.0889 -0.0088
  178loPI   C2B 2846  17.646   7.424   9.445  0.0002 -0.1982 -0.0837
  178loPI   C3B 2847  17.804   7.395   9.025  0.0286 -0.1987 -0.0273
  178loPI   C4B 2848  17.792   7.382   8.649 -0.0160  0.2706  0.0780
  179loPI    C1 2849   5.889  15.575  11.296  0.0486  0.0959  0.0575
  179loPI    C2 2850   5.851  15.856  11.578  0.2710  0.0766  0.1087
  179loPI    C3 2851   6.138  15.578  11.609  0.1915 -0.0252 -0.0530
  179loPI   PO4 2852   5.885  15.697  11.064 -0.1560  0.2362  0.0237
  179loPI   GL1 2853   5.937  15.988  10.794  0.0537  0.0849  0.0484
  179loPI   GL2 2854   5.709  15.794  10.594  0.0864  0.2395  0.0140
  179loPI   C1A 2855   6.117  15.857  10.383 -0.1735  0.3303 -0.0537
  179loPI   C2A 2856   6.026  15.806   9.915 -0.1551 -0.1531  0.0727
  179loPI   C3A 2857   5.982  15.834   9.558 -0.0922 -0.2704 -0.0400
  179loPI   C4A 2858   6.049  15.712   9.125  0.0248 -0.0788 -0.0554
  179loPI   C5A 2859   6.143  15.836   8.736  0.1165  0.0461  0.0763
  179loPI   C6A 2860   6.398  15.793   8.347  0.2409  0.3207  0.2805
  179loPI   C1B 2861   5.650  15.733  10.210  0.0176 -0.1580  0.2665
  179loPI   C2B 2862   5.556  15.651   9.715  0.3878 -0.0551  0.0221
  179loPI   C3B 2863   5.545  15.619   9.287 -0.0980 -0.1154  0.2320
  179loPI   C4B 2864   5.586  15.572   8.778  0.0100  0.0884  0.0073
  180loPI    C1 2865  15.122   5.824   9.485 -0.0892  0.2437  0.1160
  180loPI    C2 2866  15.323   6.141   9.345  0.2275 -0.0247 -0.0523
  180loPI    C3 2867  15.404   5.998   9.710  0.2716 -0.0708 -0.0800
  180loPI   PO4 2868  14.847   5.868   9.490  0.0102  0.1291  0.0276
  180loPI   GL1 2869  14.792   6.070   9.192  0.0968 -0.1291 -0.1786
  180loPI   GL2 2870  14.574   6.285   9.150  0.1040  0.1336  0.0610
  180loPI   C1A 2871  14.715   5.935   8.803 -0.2042  0.2488 -0.2938
  180loPI   C2A 2872  14.442   5.851   8.547  0.3762  0.0117 -0.0739
  180loPI   C3A 2873  14.436   5.735   8.050  0.0439 -0.2284 -0.0029
  180loPI   C4A 2874  14.345   5.962   7.753  0.0626  0.2471  0.1577
  180loPI   C5A 2875  14.300   5.990   7.334 -0.1839 -0.1051  0.1245
  180loPI   C6A 2876  14.405   6.407   7.205 -0.0553  0.1203  0.0453
  180loPI   C1B 2877  14.668   6.474   8.727 -0.0015  0.3638  0.0609
  180loPI   C2B 2878  14.816   6.737   8.304 -0.2735 -0.0831  0.2131
  180loPI   C3B 2879  14.896   6.596   7.999 -0.0396  0.3672  0.3987
  180loPI   C4B 2880  14.945   6.695   7.646  0.2328  0.2535  0.1336
  181loPI    C1 2881   5.567  12.526  11.030  0.0894  0.2042 -0.1121
  181loPI    C2 2882   5.950  12.423  10.979 -0.0178 -0.1775 -0.1833
  181loPI    C3 2883   5.800  12.460  11.348  0.1423  0.1999 -0.1518
  181loPI   PO4 2884   5.503  12.465  10.741 -0.1829 -0.1501 -0.0341
  181loPI   GL1 2885   5.385  12.235  10.364 -0.0106 -0.0001 -0.0909
  181loPI   GL2 2886   5.159  12.495  10.400 -0.0827 -0.0301  0.0543
  181loPI   C1A 2887   5.112  12.050  10.142  0.0244 -0.0771  0.0308
  181loPI   C2A 2888   5.125  11.995   9.743 -0.0617  0.1225 -0.0061
  181loPI   C3A 2889   5.122  11.977   9.269 -0.1701 -0.1328 -0.0135
  181loPI   C4A 2890   5.224  11.975   8.895  0.4000  0.0717  0.2515
  181loPI   C5A 2891   5.543  12.090   8.552  0.2058 -0.1602 -0.0246
  181loPI   C6A 2892   5.786  12.406   8.409  0.0146 -0.2543  0.1458
  181loPI   C1B 2893   5.136  12.539   9.943  0.5043 -0.2677 -0.0442
  181loPI   C2B 2894   5.117  12.522   9.598  0.0971 -0.0943 -0.0068
  181loPI   C3B 2895   5.198  12.539   9.204 -0.2128  0.2235 -0.2818
  181loPI   C4B 2896   5.270  12.488   8.709 -0.1317 -0.1009  0.1891
  182loPI    C1 2897  14.199  15.551  10.588  0.0595  0.2182  0.0513
  182loPI    C2 2898  14.520  15.331  10.495  0.0133  0.1333  0.0918
  182loPI    C3 2899  14.163  15.239  10.340 -0.0383  0.0737  0.2451
  182loPI   PO4 2900  14.304  15.783  10.552 -0.3080  0.0742 -0.2337
  182loPI   GL1 2901  14.543  15.765  10.167  0.2673  0.0063 -0.3582
  182loPI   GL2 2902  14.820  15.634  10.152  0.2258  0.1401 -0.0465
  182loPI   C1A 2903  14.320  15.758   9.691  0.4396 -0.2601 -0.0598
  182loPI   C2A 2904  14.395  15.754   9.240  0.3019  0.2100 -0.2324
  182loPI   C3A 2905  14.429  15.615   8.833 -0.0982 -0.1493 -0.2923
  182loPI   C4A 2906  14.415  15.494   8.351 -0.1209  0.1185 -0.0467
  182loPI   C5A 2907  14.424  15.735   7.995  0.0161  0.1173 -0.0263
  182loPI   C6A 2908  14.537  16.130   7.712 -0.0985 -0.0631  0.3834
  182loPI   C1B 2909  14.760  15.503   9.715  0.1072 -0.2636  0.1594
  182loPI   C2B 2910  14.825  15.447   9.231  0.1395 -0.2407 -0.1005
  182loPI   C3B 2911  14.746  15.284   8.800  0.0845 -0.0819 -0.2105
  182loPI   C4B 2912  14.977  15.322   8.404  0.0906  0.2356 -0.0665
  183loPI    C1 2913   1.916   3.260  10.956 -0.0821  0.1117 -0.2935
  183loPI    C2 2914   1.809   3.608  11.122 -0.3188 -0.0871 -0.0208
  183loPI    C3 2915   2.110   3.396  11.278 -0.1594  0.0034 -0.2007
  183loPI   PO4 2916   1.965   3.289  10.684 -0.0924 -0.0129 -0.1120
  183loPI   GL1 2917   1.799   3.178  10.283 -0.1598  0.0006 -0.2025
  183loPI   GL2 2918   1.743   3.425  10.241 -0.1936 -0.0211 -0.2151
  183loPI   C1A 2919   1.874   2.998   9.967  0.2102  0.0601 -0.0314
  183loPI   C2A 2920   1.943   3.008   9.572  0.3359 -0.2517 -0.0714
  183loPI   C3A 2921   1.924   3.044   9.141  0.1903 -0.0274 -0.0520
  183loPI   C4A 2922   1.977   2.944   8.746  0.1802 -0.0024  0.3970
  183loPI   C5A 2923   1.994   3.031   8.259 -0.1185  0.1529 -0.0783
  183loPI   C6A 2924   1.978   2.835   7.808  0.0810  0.1904 -0.0366
  183loPI   C1B 2925   1.906   3.483   9.804  0.1291 -0.0448  0.1352
  183loPI   C2B 2926   1.910   3.529   9.375 -0.0799 -0.2580 -0.0840
  183loPI   C3B 2927   2.022   3.566   8.968 -0.1277 -0.0810 -0.0322
  183loPI   C4B 2928   2.054   3.470   8.539 -0.4335  0.0014  0.0089
  184loPI    C1 2929  17.144   7.639  10.742 -0.0410 -0.0187 -0.0436
  184loPI    C2 2930  17.067   8.011  10.868  0.0968 -0.0088  0.0136
  184loPI    C3 2931  16.855   7.704  11.012  0.1621  0.0179  0.1681
  184loPI   PO4 2932  17.213   7.603  10.465 -0.1770 -0.0706 -0.0670
  184loPI   GL1 2933  17.054   7.523  10.170 -0.0570 -0.1845  0.4374
  184loPI   GL2 2934  17.082   7.179   9.951 -0.1256  0.0981 -0.1563
  184loPI   C1A 2935  16.877   7.654   9.742 -0.2115 -0.0991  0.0372
  184loPI   C2A 2936  17.100   7.676   9.278  0.4002 -0.1039 -0.5330
  184loPI   C3A 2937  17.303   7.710   8.834 -0.2631 -0.1984  0.1871
  184loPI   C4A 2938  17.471   7.643   8.371 -0.1880  0.1688 -0.4107
  184loPI   C5A 2939  17.736   7.457   8.169 -0.0098  0.0203  0.2219
  184loPI   C6A 2940  18.074   7.345   7.955  0.2578 -0.1439  0.0768
  184loPI   C1B 2941  17.223   7.054   9.612 -0.2411  0.1101  0.2472
  184loPI   C2B 2942  17.308   7.179   9.202  0.0912  0.0518  0.3380
  184loPI   C3B 2943  17.294   7.225   8.833  0.1722  0.3142 -0.0784
  184loPI   C4B 2944  17.352   7.175   8.437 -0.1642  0.0051  0.0210
  185loPI    C1 2945   3.645   9.477  11.004 -0.0329 -0.0902 -0.0560
  185loPI    C2 2946   3.278   9.486  11.164  0.1108  0.0336  0.2765
  185loPI    C3 2947   3.563   9.262  11.331  0.2156  0.0177  0.0796
  185loPI   PO4 2948   3.558   9.658  10.787  0.0218  0.1701 -0.1733
  185loPI   GL1 2949   3.673   9.645  10.268 -0.0066  0.2003  0.3297
  185loPI   GL2 2950   3.453   9.924  10.059  0.3062  0.3299 -0.0622
  185loPI   C1A 2951   3.871   9.646   9.870  0.1171  0.1794  0.0319
  185loPI   C2A 2952   3.764   9.653   9.499 -0.4259  0.2625  0.2873
  185loPI   C3A 2953   3.895   9.543   9.102 -0.2121 -0.0306  0.2249
  185loPI   C4A 2954   3.929   9.600   8.717 -0.0690 -0.0726  0.0007
  185loPI   C5A 2955   3.953   9.596   8.311  0.0630  0.3973 -0.1845
  185loPI   C6A 2956   4.289   9.760   8.036  0.0588  0.1496  0.1316
  185loPI   C1B 2957   3.379   9.905   9.611 -0.0712 -0.1402  0.3321
  185loPI   C2B 2958   3.383  10.101   9.239  0.0049  0.1478  0.0898
  185loPI   C3B 2959   3.534   9.992   8.826 -0.0395 -0.1640 -0.2150
  185loPI   C4B 2960   3.496   9.859   8.408 -0.1807 -0.2058 -0.1423
  186loPI    C1 2961  10.536   1.552  10.627 -0.1401 -0.1050  0.0184
  186loPI    C2 2962  10.160   1.435  10.691 -0.1237 -0.0655  0.1936
  186loPI    C3 2963  10.414   1.465  10.998 -0.0333  0.1003  0.1036
  186loPI   PO4 2964  10.490   1.526  10.328 -0.1119 -0.0916  0.3132
  186loPI   GL1 2965  10.258   1.838  10.076  0.1679 -0.2293  0.1351
  186loPI   GL2 2966  10.378   1.559   9.836  0.0803 -0.1197  0.0746
  186loPI   C1A 2967  10.003   1.956   9.753  0.2643  0.0194  0.1256
  186loPI   C2A 2968   9.985   1.898   9.306  0.0378 -0.0009  0.0190
  186loPI   C3A 2969  10.037   1.892   8.906  0.1626 -0.1222  0.2338
  186loPI   C4A 2970   9.941   1.881   8.497  0.2542 -0.1479  0.0316
  186loPI   C5A 2971   9.875   1.820   8.034 -0.0482  0.2653 -0.0170
  186loPI   C6A 2972   9.995   1.539   7.682  0.3395 -0.3093  0.1073
  186loPI   C1B 2973  10.354   1.628   9.464  0.3202 -0.1997  0.1391
  186loPI   C2B 2974  10.322   1.519   9.083 -0.1555  0.1006 -0.1337
  186loPI   C3B 2975  10.332   1.531   8.649 -0.1941 -0.1054 -0.0247
  186loPI   C4B 2976  10.260   1.453   8.135 -0.0234 -0.2194 -0.0640
  187loPI    C1 2977   5.645   7.455  10.650 -0.0198 -0.0540 -0.2684
  187loPI    C2 2978   5.742   7.099  10.804  0.1031  0.0805 -0.0285
  187loPI    C3 2979   5.459   7.321  10.978  0.0020  0.0859 -0.1979
  187loPI   PO4 2980   5.728   7.530  10.321 -0.0177  0.1991  0.3848
  187loPI   GL1 2981   5.626   7.942   9.985 -0.1693 -0.4566 -0.0726
  187loPI   GL2 2982   5.536   8.249   9.909  0.1319 -0.1763 -0.0609
  187loPI   C1A 2983   5.522   7.851   9.579  0.3796 -0.0271 -0.3392
  187loPI   C2A 2984   5.324   7.978   9.239  0.0307 -0.2355  0.0485
  187loPI   C3A 2985   5.412   7.923   8.891  0.1860 -0.3134 -0.1798
  187loPI   C4A 2986   5.302   7.839   8.491 -0.0653  0.0242  0.4415
  187loPI   C5A 2987   5.363   7.799   8.032 -0.0117 -0.1112 -0.0211
  187loPI   C6A 2988   5.199   7.628   7.653 -0.1455 -0.3851 -0.2155
  187loPI   C1B 2989   5.557   8.347   9.435 -0.0327  0.3313 -0.0138
  187loPI   C2B 2990   5.457   8.429   9.040 -0.0800  0.0528 -0.1911
  187loPI   C3B 2991   5.340   8.371   8.647 -0.1527 -0.2068  0.1017
  187loPI   C4B 2992   5.349   8.271   8.223 -0.1586 -0.1937 -0.0227
  188loPI    C1 2993   4.564   4.228  11.024 -0.1016  0.0963  0.0434
  188loPI    C2 2994   4.902   4.441  11.046 -0.1481  0.1730  0.0191
  188loPI    C3 2995   4.667   4.406  11.368  0.2148 -0.4334  0.2355
  188loPI   PO4 2996   4.464   4.344  10.743  0.1521  0.2341  0.1575
  188loPI   GL1 2997   4.401   4.221  10.287 -0.4315  0.1514 -0.0015
  188loPI   GL2 2998   4.507   4.535  10.129  0.0961 -0.0096  0.3553
  188loPI   C1A 2999   4.311   4.068   9.964 -0.1416 -0.0418  0.1424
  188loPI   C2A 3000   4.311   3.986   9.583 -0.2431  0.1397  0.0052
  188loPI   C3A 3001   4.238   3.956   9.189  0.1370 -0.2772 -0.6061
  188loPI   C4A 3002   4.351   3.993   8.776 -0.2323  0.1523 -0.2752
  188loPI   C5A 3003   4.476   3.959   8.372 -0.1605  0.4002  0.0394
  188loPI   C6A 3004   4.766   3.847   8.096 -0.1782  0.3741 -0.0811
  188loPI   C1B 3005   4.344   4.512   9.737  0.2571  0.2336  0.1542
  188loPI   C2B 3006   4.272   4.460   9.326  0.1387  0.1138  0.2627
  188loPI   C3B 3007   4.350   4.514   8.897 -0.2864 -0.0075 -0.3329
  188loPI   C4B 3008   4.483   4.465   8.426  0.1056 -0.0577  0.2573
  189loPI    C1 3009   5.416   4.648  10.489 -0.3546 -0.0869 -0.0512
  189loPI    C2 3010   5.348   4.408  10.802 -0.0944 -0.0606  0.0283
  189loPI    C3 3011   5.661   4.657  10.806 -0.1704  0.0407 -0.1951
  189loPI   PO4 3012   5.320   4.591  10.305 -0.1551  0.0679 -0.0264
  189loPI   GL1 3013   5.135   4.556   9.963  0.0568 -0.2837 -0.0391
  189loPI   GL2 3014   4.952   4.780   9.981  0.2558 -0.1969  0.1281
  189loPI   C1A 3015   5.169   4.465   9.443 -0.0581 -0.1890 -0.1979
  189loPI   C2A 3016   5.181   4.486   9.064  0.2511  0.1349  0.1609
  189loPI   C3A 3017   5.309   4.337   8.633 -0.1233  0.0427  0.1260
  189loPI   C4A 3018   5.518   4.184   8.171 -0.1237 -0.3308 -0.2566
  189loPI   C5A 3019   5.860   4.146   7.812 -0.1035  0.2683  0.0657
  189loPI   C6A 3020   6.171   3.831   7.650 -0.4425 -0.1507  0.4346
  189loPI   C1B 3021   4.749   4.708   9.631  0.3870  0.1597 -0.1128
  189loPI   C2B 3022   4.754   4.710   9.159 -0.2288  0.1070  0.0839
  189loPI   C3B 3023   4.889   4.646   8.712  0.0805 -0.0626 -0.1344
  189loPI   C4B 3024   5.019   4.456   8.206  0.0928  0.1778 -0.1491
  190loPI    C1 3025  16.481  13.092  10.613 -0.0355 -0.1474  0.2541
  190loPI    C2 3026  16.691  13.361  10.822  0.0654 -0.1138  0.1103
  190loPI    C3 3027  16.832  12.989  10.776 -0.0338 -0.1678  0.2379
  190loPI   PO4 3028  16.388  13.255  10.352  0.1688  0.1075  0.0054
  190loPI   GL1 3029  16.515  13.270   9.940  0.2396 -0.2567  0.2223
  190loPI   GL2 3030  16.343  13.104   9.731  0.0486  0.1469  0.1032
  190loPI   C1A 3031  16.776  13.187   9.557 -0.0871 -0.0274  0.2647
  190loPI   C2A 3032  16.839  13.204   9.132  0.1124  0.1147 -0.0434
  190loPI   C3A 3033  16.772  13.222   8.610  0.0226 -0.1023 -0.1153
  190loPI   C4A 3034  16.687  13.301   8.169 -0.0870 -0.1659  0.1704
  190loPI   C5A 3035  16.511  13.430   7.795  0.0062  0.3237 -0.4259
  190loPI   C6A 3036  16.463  13.594   7.443 -0.1276  0.2358  0.0235
  190loPI   C1B 3037  16.235  13.027   9.323 -0.1462 -0.3751 -0.0687
  190loPI   C2B 3038  16.319  13.005   8.909 -0.2263  0.3399  0.0277
  190loPI   C3B 3039  16.259  13.018   8.523 -0.0991 -0.0312  0.1320
  190loPI   C4B 3040  16.234  13.079   8.110  0.1083 -0.1044 -0.0870
  191loPI    C1 3041   0.012   0.589  11.124  0.1009 -0.2132  0.1677
  191loPI    C2 3042   0.358   0.705  11.288  0.1107 -0.1264  0.0863
  191loPI    C3 3043   0.057   0.585  11.521  0.2462 -0.3465  0.1511
  191loPI   PO4 3044   0.049   0.496  10.915  0.0322 -0.1575 -0.3594
  191loPI   GL1 3045   0.207   0.446  10.541 -0.1147 -0.0298  0.0461
  191loPI   GL2 3046   0.526   0.517  10.581 -0.1281 -0.2148  0.3023
  191loPI   C1A 3047   0.221   0.425  10.020  0.1734 -0.0715  0.1528
  191loPI   C2A 3048   0.199   0.416   9.560  0.0555 -0.2818  0.1980
  191loPI   C3A 3049   0.181   0.369   9.177 -0.2495  0.0387 -0.0024
  191loPI   C4A 3050   0.253   0.345   8.767  0.1870  0.2846  0.1089
  191loPI   C5A 3051   0.187   0.453   8.415 -0.5449 -0.0085 -0.2079
  191loPI   C6A 3052   0.170   0.678   8.044 -0.1384 -0.2024  0.1739
  191loPI   C1B 3053   0.652   0.573  10.225  0.1000  0.0512  0.0855
  191loPI   C2B 3054   0.666   0.635   9.742 -0.4008 -0.1176 -0.5862
  191loPI   C3B 3055   0.727   0.549   9.334 -0.3260  0.0449 -0.0903
  191loPI   C4B 3056   0.749   0.510   8.842 -0.2964 -0.2215  0.0678
  192loPI    C1 3057  14.922  10.938  10.375  0.0878  0.1186 -0.1375
  192loPI    C2 3058  15.033  11.196  10.660 -0.0228  0.2242 -0.1893
  192loPI    C3 3059  15.303  11.056  10.401  0.1108  0.0066  0.0618
  192loPI   PO4 3060  14.690  11.151  10.221 -0.0982 -0.0405  0.2360
  192loPI   GL1 3061  14.670  11.539   9.929  0.0720  0.3704  0.1376
  192loPI   GL2 3062  14.461  11.757  10.101 -0.1551 -0.3923  0.1315
  192loPI   C1A 3063  14.830  11.907   9.743  0.0437 -0.1369  0.2026
  192loPI   C2A 3064  14.880  11.873   9.328  0.1713  0.1189 -0.0032
  192loPI   C3A 3065  14.765  11.925   8.913  0.0384  0.1488 -0.0902
  192loPI   C4A 3066  14.761  11.947   8.410  0.3938 -0.2943 -0.0318
  192loPI   C5A 3067  14.678  11.934   7.961  0.0690  0.3815  0.1199
  192loPI   C6A 3068  14.309  11.586   7.779  0.0519 -0.4295  0.0429
  192loPI   C1B 3069  14.380  11.697   9.585  0.0902 -0.3026 -0.2336
  192loPI   C2B 3070  14.380  11.667   9.180 -0.1703  0.1473  0.1475
  192loPI   C3B 3071  14.328  11.685   8.754  0.3916 -0.1579  0.0518
  192loPI   C4B 3072  14.365  11.639   8.375  0.2584  0.2606  0.0752
  193loPI    C1 3073   2.162   1.856  10.817  0.0174 -0.0079  0.0252
  193loPI    C2 3074   1.920   1.553  10.716  0.2088 -0.2595  0.3058
  193loPI    C3 3075   1.948   1.669  11.098  0.1233  0.1288  0.1988
  193loPI   PO4 3076   2.353   1.799  10.698 -0.0400  0.2919 -0.2906
  193loPI   GL1 3077   2.220   1.668  10.380  0.2318  0.2222 -0.1780
  193loPI   GL2 3078   2.124   1.712  10.118 -0.2048  0.0539 -0.4258
  193loPI   C1A 3079   2.503   1.469  10.034 -0.3326  0.1688  0.0804
  193loPI   C2A 3080   2.589   1.374   9.671  0.0074  0.4079  0.1011
  193loPI   C3A 3081   2.582   1.319   9.291  0.2240  0.1207  0.0702
  193loPI   C4A 3082   2.599   1.318   8.855  0.2007 -0.1367 -0.0540
  193loPI   C5A 3083   2.656   1.224   8.511 -0.2512  0.2014  0.0469
  193loPI   C6A 3084   2.247   1.210   8.182 -0.1744 -0.0504  0.2228
  193loPI   C1B 3085   2.213   1.779   9.726  0.1049 -0.1594 -0.0373
  193loPI   C2B 3086   2.181   1.590   9.346  0.1304  0.1495  0.0202
  193loPI   C3B 3087   2.159   1.614   8.870  0.1235  0.2299 -0.2911
  193loPI   C4B 3088   1.962   1.567   8.537  0.3117 -0.1045  0.4395
  194loPI    C1 3089   7.768  15.905  11.140 -0.1563 -0.1057  0.0633
  194loPI    C2 3090   7.590  15.625  11.364 -0.0956 -0.1623  0.0408
  194loPI    C3 3091   7.649  15.992  11.513 -0.0719 -0.1944  0.1113
  194loPI   PO4 3092   7.581  15.895  10.940 -0.1377  0.1835 -0.2427
  194loPI   GL1 3093   7.636  15.763  10.516  0.3318  0.2493 -0.0630
  194loPI   GL2 3094   7.404  15.868  10.296  0.0356  0.1226 -0.1412
  194loPI   C1A 3095   7.460  15.383  10.184  0.1021  0.1344  0.0141
  194loPI   C2A 3096   7.364  15.411   9.794  0.0574 -0.0126 -0.1780
  194loPI   C3A 3097   7.408  15.366   9.344 -0.1845 -0.2078 -0.1335
  194loPI   C4A 3098   7.408  15.309   8.895  0.0480 -0.1733 -0.0204
  194loPI   C5A 3099   7.295  15.380   8.523 -0.2615 -0.2045  0.1844
  194loPI   C6A 3100   7.219  15.542   8.139 -0.2833 -0.2253 -0.0980
  194loPI   C1B 3101   7.545  15.829   9.920  0.2827 -0.1192 -0.0889
  194loPI   C2B 3102   7.497  15.855   9.616 -0.0049  0.0291 -0.0437
  194loPI   C3B 3103   7.572  15.928   9.096  0.1647  0.3077 -0.0102
  194loPI   C4B 3104   7.474  15.943   8.714 -0.3699 -0.2358 -0.3172
  195loPI    C1 3105   7.254   5.240  10.393  0.0943  0.0806 -0.0968
  195loPI    C2 3106   6.883   5.103  10.331  0.0894  0.0421  0.0153
  195loPI    C3 3107   7.004   5.192  10.702  0.2234 -0.0352 -0.0091
  195loPI   PO4 3108   7.389   5.131  10.226  0.5332 -0.2261  0.2794
  195loPI   GL1 3109   7.531   5.174   9.907 -0.0137 -0.2484  0.2377
  195loPI   GL2 3110   7.835   5.016   9.856 -0.0035  0.0984  0.1619
  195loPI   C1A 3111   7.358   5.218   9.492 -0.0623  0.0373  0.4243
  195loPI   C2A 3112   7.345   5.225   8.989 -0.2729  0.0434 -0.3015
  195loPI   C3A 3113   7.251   5.138   8.575 -0.1322  0.1251 -0.0717
  195loPI   C4A 3114   7.182   5.341   8.155  0.0807 -0.2067 -0.0582
  195loPI   C5A 3115   7.003   5.719   7.967 -0.0169 -0.1473  0.2132
  195loPI   C6A 3116   7.098   5.707   7.560 -0.1657 -0.3263 -0.1949
  195loPI   C1B 3117   7.815   4.929   9.502  0.0182  0.3281  0.2348
  195loPI   C2B 3118   7.674   4.876   9.150 -0.0014 -0.1351  0.0247
  195loPI   C3B 3119   7.672   4.913   8.726  0.1089  0.0107  0.0359
  195loPI   C4B 3120   7.582   4.941   8.179  0.0599 -0.0976 -0.3648
  196loPI    C1 3121   7.886   3.323  10.785 -0.2970 -0.2652  0.1658
  196loPI    C2 3122   8.094   2.990  10.710 -0.0220 -0.0531 -0.0385
  196loPI    C3 3123   8.184   3.215  11.028  0.1448  0.1020 -0.1936
  196loPI   PO4 3124   7.592   3.397  10.786 -0.2337 -0.0612 -0.2376
  196loPI   GL1 3125   7.431   3.419  10.359 -0.2110 -0.3889  0.0807
  196loPI   GL2 3126   7.171   3.204  10.372  0.0387  0.1294 -0.0142
  196loPI   C1A 3127   7.453   3.429   9.913  0.3627  0.1446  0.2522
  196loPI   C2A 3128   7.472   3.292   9.603 -0.0735 -0.1451 -0.2691
  196loPI   C3A 3129   7.443   3.365   9.090 -0.1119 -0.3218 -0.0259
  196loPI   C4A 3130   7.463   3.212   8.768 -0.1965 -0.2079 -0.0705
  196loPI   C5A 3131   7.293   3.380   8.342  0.4443 -0.2308 -0.1887
  196loPI   C6A 3132   7.342   3.315   7.942  0.0639 -0.1013 -0.3354
  196loPI   C1B 3133   6.970   3.256   9.987  0.0659  0.3329  0.0865
  196loPI   C2B 3134   6.964   3.158   9.593 -0.0777  0.1634  0.0456
  196loPI   C3B 3135   6.852   3.061   9.165 -0.2725 -0.1286 -0.2123
  196loPI   C4B 3136   6.921   2.998   8.714  0.2796  0.2590  0.0938
  197loPI    C1 3137  17.901  12.238  10.744  0.2432  0.0778 -0.0336
  197loPI    C2 3138  18.123  12.354  11.056  0.2533 -0.0284 -0.0009
  197loPI    C3 3139  18.035  11.967  11.006 -0.2234  0.0486  0.1843
  197loPI   PO4 3140  17.981  12.308  10.586  0.2227  0.0722  0.0380
  197loPI   GL1 3141  18.047  12.460  10.169 -0.0619  0.2808  0.0119
  197loPI   GL2 3142  18.051  12.166   9.994  0.2262  0.2168 -0.1919
  197loPI   C1A 3143  18.084  12.738   9.727  0.0736 -0.0449 -0.0460
  197loPI   C2A 3144  17.981  12.687   9.264 -0.2736  0.2931  0.0523
  197loPI   C3A 3145  18.123  12.792   8.802 -0.1470  0.1585  0.4247
  197loPI   C4A 3146  18.209  12.858   8.352  0.1018 -0.1190 -0.1176
  197loPI   C5A 3147  18.050  12.832   7.868  0.1392  0.2903 -0.0712
  197loPI   C6A 3148  17.659  12.849   7.817 -0.0593 -0.2850 -0.1894
  197loPI   C1B 3149  18.037  12.236   9.598  0.1665  0.2497  0.3463
  197loPI   C2B 3150  18.035  12.164   9.234 -0.1502  0.4211  0.0837
  197loPI   C3B 3151  17.963  12.259   8.798  0.0835  0.0957 -0.1601
  197loPI   C4B 3152  18.070  12.359   8.502  0.1255  0.1253  0.1934
  198loPI    C1 3153  13.809  14.180  11.000 -0.0580 -0.2946 -0.0601
  198loPI    C2 3154  13.525  14.100  11.270 -0.0259  0.0640  0.0859
  198loPI    C3 3155  13.884  13.927  11.300 -0.1126 -0.1141  0.1082
  198loPI   PO4 3156  13.661  14.124  10.765 -0.0640  0.1500 -0.0578
  198loPI   GL1 3157  13.708  14.054  10.404 -0.0431 -0.0483  0.2366
  198loPI   GL2 3158  13.618  13.886  10.109 -0.2011  0.1814  0.2521
  198loPI   C1A 3159  13.827  14.316  10.130  0.0636  0.1952 -0.0749
  198loPI   C2A 3160  13.676  14.537   9.795  0.1653  0.1091  0.2756
  198loPI   C3A 3161  13.693  14.449   9.374  0.1208  0.2004  0.4258
  198loPI   C4A 3162  13.753  14.449   8.880 -0.0340 -0.1126 -0.2238
  198loPI   C5A 3163  13.568  14.349   8.486  0.1147 -0.0172 -0.3027
  198loPI   C6A 3164  13.333  13.943   8.392 -0.0165 -0.1619 -0.0590
  198loPI   C1B 3165  13.682  14.032   9.643 -0.1281 -0.0036  0.2903
  198loPI   C2B 3166  13.658  14.002   9.200  0.2441  0.2768  0.2009
  198loPI   C3B 3167  13.632  13.834   8.805 -0.1288  0.2794  0.1420
  198loPI   C4B 3168  13.780  13.758   8.328  0.1140 -0.2597  0.0580
  199loPI    C1 3169   4.501   0.586  11.110  0.0541  0.0636  0.0841
  199loPI    C2 3170   4.489   0.329  11.417  0.1403 -0.0331  0.0074
  199loPI    C3 3171   4.777   0.605  11.399  0.1716 -0.0672 -0.0181
  199loPI   PO4 3172   4.287   0.751  11.102 -0.3093  0.1211  0.0294
  199loPI   GL1 3173   4.215   0.918  10.790 -0.1456 -0.1620 -0.2636
  199loPI   GL2 3174   4.326   1.230  10.593 -0.2142  0.0054 -0.3729
  199loPI   C1A 3175   4.147   0.728  10.374  0.1407  0.2264  0.2697
  199loPI   C2A 3176   4.225   0.661   9.976 -0.0061 -0.1804  0.1624
  199loPI   C3A 3177   4.394   0.678   9.567  0.1760  0.0599  0.3173
  199loPI   C4A 3178   4.344   0.560   9.164 -0.0051  0.0939 -0.3701
  199loPI   C5A 3179   4.320   0.574   8.722  0.2311 -0.7095  0.0871
  199loPI   C6A 3180   4.408   0.728   8.249  0.1483  0.1129 -0.1092
  199loPI   C1B 3181   4.306   1.115  10.127 -0.2827 -0.3075  0.1374
  199loPI   C2B 3182   4.401   1.203   9.701 -0.2201 -0.1458 -0.0538
  199loPI   C3B 3183   4.387   1.045   9.271  0.0372 -0.0546  0.3917
  199loPI   C4B 3184   4.282   1.038   8.931 -0.2008  0.1735 -0.2202
  200loPI    C1 3185   2.343  12.212  11.239 -0.2341  0.0272 -0.0014
  200loPI    C2 3186   2.140  11.877  11.320 -0.1800 -0.0448 -0.1600
  200loPI    C3 3187   2.540  11.878  11.335 -0.1807  0.0177 -0.1418
  200loPI   PO4 3188   2.384  12.348  10.905  0.0494  0.0208 -0.1265
  200loPI   GL1 3189   2.347  12.283  10.435 -0.0562 -0.2951 -0.2873
  200loPI   GL2 3190   2.639  12.163  10.462  0.0436 -0.0584 -0.0839
  200loPI   C1A 3191   2.339  12.518   9.979 -0.1792 -0.2100 -0.1702
  200loPI   C2A 3192   2.360  12.443   9.431 -0.0307 -0.3601 -0.0225
  200loPI   C3A 3193   2.367  12.435   9.115 -0.0068  0.0262  0.1509
  200loPI   C4A 3194   2.441  12.383   8.662  0.0176  0.0890  0.2825
  200loPI   C5A 3195   2.326  12.143   8.294  0.0621 -0.1529 -0.2308
  200loPI   C6A 3196   2.533  11.819   7.998  0.1824 -0.0792 -0.0039
  200loPI   C1B 3197   2.792  11.984  10.066  0.1427  0.1481 -0.1637
  200loPI   C2B 3198   2.737  12.167   9.560  0.0702 -0.2208  0.1305
  200loPI   C3B 3199   2.763  12.146   9.198  0.0295  0.0527 -0.2377
  200loPI   C4B 3200   2.859  12.074   8.776 -0.0258 -0.0080 -0.0458
  201loPI    C1 3201   0.130   6.209  10.674  0.3188 -0.2990 -0.0759
  201loPI    C2 3202  -0.080   5.869  10.686  0.1955 -0.2190  0.0761
  201loPI    C3 3203  -0.160   6.162  10.946  0.3505 -0.1022 -0.0065
  201loPI   PO4 3204   0.246   6.173  10.387 -0.1497  0.0001  0.0533
  201loPI   GL1 3205   0.244   6.060   9.967  0.0770 -0.0624  0.0525
  201loPI   GL2 3206   0.108   6.361   9.882 -0.1371  0.3816 -0.3464
  201loPI   C1A 3207   0.438   5.904   9.752 -0.0170 -0.1526  0.2666
  201loPI   C2A 3208   0.616   5.923   9.380  0.5917 -0.2084 -0.2437
  201loPI   C3A 3209   0.524   5.884   8.932  0.0024  0.4704 -0.1515
  201loPI   C4A 3210   0.650   5.793   8.494 -0.1551 -0.2437 -0.0942
  201loPI   C5A 3211   0.787   5.798   8.070 -0.1773  0.0028  0.1719
  201loPI   C6A 3212   0.731   5.862   7.671  0.2421  0.0439 -0.2836
  201loPI   C1B 3213   0.140   6.292   9.493 -0.0405 -0.1056 -0.0323
  201loPI   C2B 3214   0.157   6.192   9.003 -0.0732 -0.0872 -0.1890
  201loPI   C3B 3215   0.162   6.294   8.638  0.1417 -0.2180  0.3017
  201loPI   C4B 3216   0.285   6.243   8.318 -0.1232  0.0712  0.2669
  202loPI    C1 3217  13.230  15.580  10.821 -0.1798 -0.0227 -0.0823
  202loPI    C2 3218  13.058  15.225  10.887 -0.0011 -0.0752  0.1128
  202loPI    C3 3219  12.950  15.544  11.104 -0.0050 -0.0594  0.0878
  202loPI   PO4 3220  13.223  15.622  10.546  0.2177  0.1565  0.2405
  202loPI   GL1 3221  12.915  15.602  10.192 -0.1119 -0.2026  0.1760
  202loPI   GL2 3222  12.714  15.846  10.320 -0.1325  0.2443 -0.2894
  202loPI   C1A 3223  12.917  15.675   9.718 -0.1194 -0.1661  0.2595
  202loPI   C2A 3224  12.969  15.669   9.224 -0.0546  0.4341 -0.0947
  202loPI   C3A 3225  12.924  15.545   8.801 -0.2407  0.0573 -0.2648
  202loPI   C4A 3226  12.672  15.339   8.587  0.2678  0.0801 -0.2689
  202loPI   C5A 3227  12.496  15.174   8.232 -0.0018  0.1641  0.0997
  202loPI   C6A 3228  12.195  15.041   7.969 -0.1820 -0.2105 -0.0004
  202loPI   C1B 3229  12.493  15.997  10.021 -0.0647  0.2729 -0.0439
  202loPI   C2B 3230  12.499  15.988   9.554 -0.1495  0.0060  0.0060
  202loPI   C3B 3231  12.549  15.951   9.105  0.2746 -0.0386  0.0214
  202loPI   C4B 3232  12.544  15.898   8.640  0.1621 -0.0959 -0.0194
  203loPI    C1 3233   9.247  15.857  10.834 -0.0811 -0.0666  0.1033
  203loPI    C2 3234   9.002  16.162  10.750 -0.0458  0.0478  0.4017
  203loPI    C3 3235   8.924  15.923  11.061  0.0527 -0.1080  0.3081
  203loPI   PO4 3236   9.508  15.868  10.900  0.2854  0.0562  0.0610
  203loPI   GL1 3237   9.793  15.861  10.598  0.0734  0.1921  0.2277
  203loPI   GL2 3238  10.054  16.087  10.514  0.1174  0.0043  0.1004
  203loPI   C1A 3239   9.793  15.707  10.156  0.0535  0.0203 -0.1381
  203loPI   C2A 3240   9.825  15.782   9.692 -0.1086  0.1193  0.0456
  203loPI   C3A 3241   9.791  15.851   9.252  0.3775 -0.0519 -0.4038
  203loPI   C4A 3242   9.821  15.829   8.849 -0.0255  0.0162  0.2201
  203loPI   C5A 3243   9.662  15.751   8.324  0.5173  0.0220 -0.1699
  203loPI   C6A 3244   9.733  15.395   8.026 -0.1272  0.0103  0.2231
  203loPI   C1B 3245   9.865  16.252  10.127  0.1144  0.2153  0.0191
  203loPI   C2B 3246   9.851  16.294   9.736 -0.2540  0.0686 -0.0936
  203loPI   C3B 3247   9.902  16.333   9.353 -0.0636  0.0661  0.1122
  203loPI   C4B 3248   9.909  16.329   8.872  0.0781  0.0321  0.0227
  204loPI    C1 3249  17.499   6.318  10.477  0.0663 -0.1027  0.0072
  204loPI    C2 3250  17.812   6.098  10.594  0.0340 -0.1662 -0.0256
  204loPI    C3 3251  17.553   6.237  10.865  0.2288  0.0993  0.0287
  204loPI   PO4 3252  17.542   6.427  10.296 -0.0744 -0.0929  0.1909
  204loPI   GL1 3253  17.763   6.180   9.907 -0.1436 -0.1649 -0.1741
  204loPI   GL2 3254  17.944   6.458   9.920  0.1263  0.0835 -0.1798
  204loPI   C1A 3255  18.055   6.098   9.604  0.0170 -0.0453  0.0851
  204loPI   C2A 3256  18.126   6.066   9.177  0.2155 -0.0616 -0.1465
  204loPI   C3A 3257  18.057   6.076   8.717 -0.0347 -0.3232 -0.2326
  204loPI   C4A 3258  18.197   6.020   8.316 -0.0561 -0.0761 -0.1443
  204loPI   C5A 3259  18.194   6.052   7.934 -0.0410 -0.0877  0.2304
  204loPI   C6A 3260  18.078   5.843   7.541  0.1018 -0.0579  0.0852
  204loPI   C1B 3261  18.103   6.568   9.439 -0.0903  0.0072 -0.0235
  204loPI   C2B 3262  18.119   6.514   8.923  0.0314  0.2318  0.0875
  204loPI   C3B 3263  18.071   6.607   8.623  0.1451 -0.2813  0.0184
  204loPI   C4B 3264  18.188   6.522   8.213  0.0175 -0.1996  0.1142
  205loPI    C1 3265   5.807  10.252  10.899 -0.1189  0.5158  0.0739
  205loPI    C2 3266   5.869  10.005  11.208  0.0304  0.2831 -0.1380
  205loPI    C3 3267   5.688  10.357  11.266 -0.0630  0.1842  0.1906
  205loPI   PO4 3268   5.794  10.070  10.572  0.0071  0.0379  0.2193
  205loPI   GL1 3269   6.075   9.948  10.217  0.0937  0.0091 -0.0187
  205loPI   GL2 3270   5.891  10.230  10.122  0.2486 -0.0318 -0.1473
  205loPI   C1A 3271   6.305   9.862   9.757  0.1060  0.3353 -0.1300
  205loPI   C2A 3272   6.391   9.767   9.305  0.2213 -0.1956 -0.0175
  205loPI   C3A 3273   6.386   9.914   8.905  0.3361 -0.2992  0.0815
  205loPI   C4A 3274   6.225  10.130   8.756 -0.1906  0.1128 -0.0860
  205loPI   C5A 3275   6.172  10.102   8.341 -0.0308 -0.1129 -0.0819
  205loPI   C6A 3276   6.139  10.405   8.064  0.0309 -0.1112 -0.2651
  205loPI   C1B 3277   5.811  10.337   9.715 -0.0627  0.2435 -0.1384
  205loPI   C2B 3278   5.694  10.427   9.400 -0.2474 -0.0594 -0.1818
  205loPI   C3B 3279   5.722  10.470   8.924 -0.1422 -0.2260  0.0523
  205loPI   C4B 3280   5.702  10.478   8.412 -0.2801  0.2574 -0.2293
  206loPI    C1 3281   7.110   3.558  10.805 -0.1344  0.1303 -0.1151
  206loPI    C2 3282   6.813   3.290  10.796  0.0801 -0.1232  0.1689
  206loPI    C3 3283   6.860   3.527  11.115  0.0828  0.0344  0.0527
  206loPI   PO4 3284   7.076   3.694  10.581 -0.0684  0.0708 -0.1287
  206loPI   GL1 3285   6.766   3.543  10.348  0.0066  0.1992  0.1707
  206loPI   GL2 3286   6.638   3.831  10.377  0.0006  0.3967 -0.0687
  206loPI   C1A 3287   6.543   3.443  10.025  0.0105  0.0977 -0.1072
  206loPI   C2A 3288   6.518   3.372   9.575  0.0711 -0.5507 -0.2432
  206loPI   C3A 3289   6.444   3.456   9.183  0.2793  0.0628 -0.0958
  206loPI   C4A 3290   6.566   3.320   8.826 -0.0802  0.0969 -0.0320
  206loPI   C5A 3291   6.750   3.338   8.433 -0.3020 -0.0013 -0.2693
  206loPI   C6A 3292   6.819   3.480   8.059  0.2041  0.1685  0.1109
  206loPI   C1B 3293   6.531   3.948   9.956  0.1677  0.0331  0.0589
  206loPI   C2B 3294   6.461   3.965   9.484 -0.3368  0.0594 -0.2979
  206loPI   C3B 3295   6.541   3.926   9.027 -0.0152  0.2449 -0.1909
  206loPI   C4B 3296   6.639   3.940   8.685 -0.0472  0.0420  0.1866
  207loPI    C1 3297  14.003  11.688  10.564 -0.0589 -0.0116  0.1103
  207loPI    C2 3298  13.798  11.788  10.892 -0.4323 -0.1846 -0.0628
  207loPI    C3 3299  13.950  11.420  10.856 -0.1083 -0.0659  0.0518
  207loPI   PO4 3300  14.131  11.832  10.486 -0.1071  0.1556  0.0795
  207loPI   GL1 3301  14.121  12.153  10.190  0.1275 -0.2845  0.1394
  207loPI   GL2 3302  13.891  12.008   9.912 -0.0436 -0.1764  0.3158
  207loPI   C1A 3303  14.377  12.188   9.864  0.1780 -0.0544  0.0396
  207loPI   C2A 3304  14.406  12.143   9.475  0.0614  0.1788  0.0022
  207loPI   C3A 3305  14.371  12.224   9.112 -0.1031 -0.0429 -0.1515
  207loPI   C4A 3306  14.407  12.152   8.654 -0.3189  0.2131 -0.4548
  207loPI   C5A 3307  14.315  12.206   8.304  0.1371 -0.0635 -0.0038
  207loPI   C6A 3308  14.169  12.136   7.858  0.4104 -0.1824 -0.1245
  207loPI   C1B 3309  13.924  11.993   9.491 -0.1533  0.2041  0.3616
  207loPI   C2B 3310  13.883  12.077   9.078 -0.0750 -0.2728 -0.0320
  207loPI   C3B 3311  13.968  12.028   8.692  0.2685  0.2396 -0.0688
  207loPI   C4B 3312  13.951  11.849   8.270  0.1536  0.0962  0.1870
  208loPI    C1 3313   4.364  17.419  11.211 -0.3111  0.0510  0.1013
  208loPI    C2 3314   4.545  17.140  11.432 -0.1338  0.1234  0.0495
  208loPI    C3 3315   4.210  17.314  11.564 -0.1169  0.0523  0.1875
  208loPI   PO4 3316   4.388  17.349  10.955  0.2547  0.0847  0.0124
  208loPI   GL1 3317   4.390  17.612  10.566  0.2609  0.2883 -0.4694
  208loPI   GL2 3318   4.051  17.604  10.484 -0.0143 -0.0862  0.1585
  208loPI   C1A 3319   4.605  17.627  10.191 -0.0039 -0.2451 -0.0270
  208loPI   C2A 3320   4.525  17.643   9.760  0.1068 -0.3001  0.2277
  208loPI   C3A 3321   4.649  17.609   9.343 -0.1212  0.2803 -0.4452
  208loPI   C4A 3322   4.622  17.648   8.926 -0.2502 -0.1882 -0.1134
  208loPI   C5A 3323   4.462  17.570   8.564 -0.1236  0.1093  0.0876
  208loPI   C6A 3324   4.130  17.285   8.385 -0.1324 -0.4041 -0.0540
  208loPI   C1B 3325   4.060  17.478  10.221 -0.1475  0.1885  0.2934
  208loPI   C2B 3326   4.058  17.455   9.715 -0.2370  0.5618  0.0632
  208loPI   C3B 3327   4.091  17.427   9.245 -0.0640  0.2715  0.1665
  208loPI   C4B 3328   4.149  17.466   8.924  0.1173 -0.0416  0.2551
  209loPI    C1 3329  14.441   4.653   9.671 -0.3856 -0.1688  0.1189
  209loPI    C2 3330  14.657   4.966   9.796 -0.2147 -0.1710 -0.1615
  209loPI    C3 3331  14.350   4.834  10.016 -0.0558 -0.0425  0.1436
  209loPI   PO4 3332  14.607   4.559   9.480 -0.1921  0.4320  0.1380
  209loPI   GL1 3333  14.811   4.362   9.215 -0.1809 -0.3469 -0.1612
  209loPI   GL2 3334  14.739   4.004   9.189 -0.0931  0.1520 -0.1458
  209loPI   C1A 3335  14.970   4.291   8.773  0.1852  0.0745 -0.1675
  209loPI   C2A 3336  14.833   4.345   8.315 -0.1919  0.1795  0.1908
  209loPI   C3A 3337  14.678   4.477   7.854 -0.1581 -0.1494  0.1185
  209loPI   C4A 3338  14.550   4.582   7.516 -0.3466 -0.1840 -0.1022
  209loPI   C5A 3339  14.191   4.517   7.280 -0.2735  0.1496  0.4294
  209loPI   C6A 3340  13.823   4.598   7.052 -0.2082 -0.0690  0.0855
  209loPI   C1B 3341  14.512   4.088   8.839  0.0546 -0.1824  0.0578
  209loPI   C2B 3342  14.461   4.041   8.409 -0.3046 -0.1639 -0.2049
  209loPI   C3B 3343  14.577   3.928   7.986  0.1409 -0.0085  0.1079
  209loPI   C4B 3344  14.718   3.704   7.599 -0.0383 -0.1250 -0.0269
  210loPI    C1 3345  15.248   6.769  10.458  0.0023  0.0335 -0.0896
  210loPI    C2 3346  14.857   6.747  10.541  0.0760 -0.3776  0.1777
  210loPI    C3 3347  15.101   6.956  10.780  0.0215 -0.1093  0.0030
  210loPI   PO4 3348  15.214   6.805  10.111  0.0693  0.0095 -0.0180
  210loPI   GL1 3349  15.389   7.080   9.747 -0.0412  0.0982  0.0459
  210loPI   GL2 3350  15.692   7.116   9.661  0.1922 -0.0523 -0.1236
  210loPI   C1A 3351  15.313   7.128   9.337 -0.1689  0.0704  0.2296
  210loPI   C2A 3352  15.412   7.081   8.962  0.3395 -0.4535  0.1597
  210loPI   C3A 3353  15.420   7.158   8.550  0.1926 -0.2157 -0.0191
  210loPI   C4A 3354  15.591   7.277   8.117 -0.2008 -0.1163  0.2391
  210loPI   C5A 3355  15.713   7.338   7.797 -0.0202 -0.1776  0.2286
  210loPI   C6A 3356  15.712   7.356   7.367 -0.1107 -0.0826 -0.1366
  210loPI   C1B 3357  15.869   7.128   9.298 -0.3218  0.3440  0.1553
  210loPI   C2B 3358  15.869   7.100   8.821 -0.0816  0.4124  0.3242
  210loPI   C3B 3359  15.888   7.060   8.455  0.1761 -0.1691 -0.1436
  210loPI   C4B 3360  16.137   7.306   8.165 -0.2400  0.1640 -0.1721
  211loPI    C1 3361   3.656   4.038  10.841 -0.0633  0.0841  0.0806
  211loPI    C2 3362   3.325   4.162  11.029  0.0545  0.4221  0.0712
  211loPI    C3 3363   3.435   3.778  11.050 -0.0645  0.4060  0.4937
  211loPI   PO4 3364   3.573   4.138  10.599 -0.3702  0.1293 -0.1283
  211loPI   GL1 3365   3.627   3.988  10.277  0.0558  0.1025  0.1899
  211loPI   GL2 3366   3.892   3.918  10.215  0.0170  0.3198  0.1514
  211loPI   C1A 3367   3.328   3.717  10.023  0.0547  0.0618  0.3657
  211loPI   C2A 3368   3.358   3.629   9.495 -0.1668 -0.0572 -0.1026
  211loPI   C3A 3369   3.318   3.558   9.104 -0.1837 -0.2353 -0.0255
  211loPI   C4A 3370   3.424   3.509   8.649 -0.0884  0.0168 -0.0125
  211loPI   C5A 3371   3.213   3.322   8.289 -0.2555  0.1398 -0.4355
  211loPI   C6A 3372   3.192   3.556   7.863 -0.0096 -0.3372 -0.2289
  211loPI   C1B 3373   3.824   3.852   9.769  0.1364  0.1442  0.1146
  211loPI   C2B 3374   3.777   3.732   9.299  0.1592 -0.1322 -0.0589
  211loPI   C3B 3375   3.750   3.777   8.929  0.0130 -0.1716 -0.0351
  211loPI   C4B 3376   3.658   3.847   8.479  0.0353 -0.2395 -0.2451
  212loPI    C1 3377   5.674   1.474  11.091 -0.0468 -0.1083  0.0346
  212loPI    C2 3378   5.428   1.396  11.396 -0.1121 -0.5347 -0.1198
  212loPI    C3 3379   5.822   1.340  11.437 -0.0627 -0.1057  0.0425
  212loPI   PO4 3380   5.613   1.402  10.916 -0.2099 -0.1972  0.1338
  212loPI   GL1 3381   5.804   1.110  10.619 -0.0615 -0.1365  0.0280
  212loPI   GL2 3382   5.720   1.354  10.430 -0.1355  0.0982  0.2040
  212loPI   C1A 3383   5.680   0.856  10.362  0.2113 -0.1226  0.0212
  212loPI   C2A 3384   5.694   0.679   9.939  0.2053  0.4027  0.0127
  212loPI   C3A 3385   5.636   0.720   9.491  0.0201 -0.1619 -0.1556
  212loPI   C4A 3386   5.671   0.673   9.031 -0.1255 -0.0198 -0.1565
  212loPI   C5A 3387   5.711   0.566   8.617 -0.0038 -0.2287 -0.2167
  212loPI   C6A 3388   5.920   0.756   8.332  0.0381  0.2389 -0.1504
  212loPI   C1B 3389   5.804   1.288  10.001  0.2524 -0.3657 -0.2405
  212loPI   C2B 3390   5.696   1.229   9.521 -0.3691  0.1858 -0.1483
  212loPI   C3B 3391   5.703   1.261   9.070 -0.1497  0.0370 -0.1676
  212loPI   C4B 3392   5.765   1.098   8.677  0.0307  0.0205  0.1030
  213loPI    C1 3393  11.876   5.960  10.077 -0.1943 -0.0106  0.1028
  213loPI    C2 3394  12.061   5.801  10.394  0.1965  0.1045 -0.0613
  213loPI    C3 3395  11.767   6.067  10.447  0.0541 -0.1004  0.2042
  213loPI   PO4 3396  12.087   5.798   9.904  0.4775 -0.0899 -0.2293
  213loPI   GL1 3397  12.068   5.828   9.500 -0.3313  0.0805  0.0211
  213loPI   GL2 3398  12.202   5.560   9.429 -0.4689  0.1136  0.2736
  213loPI   C1A 3399  11.962   6.047   9.056  0.0321  0.1444 -0.0158
  213loPI   C2A 3400  11.951   6.070   8.580 -0.0383 -0.3169  0.0031
  213loPI   C3A 3401  11.922   5.968   8.229 -0.0692  0.0016 -0.0437
  213loPI   C4A 3402  12.010   6.069   7.850 -0.0958 -0.0099 -0.0132
  213loPI   C5A 3403  12.031   6.120   7.434 -0.1650 -0.0645 -0.0008
  213loPI   C6A 3404  12.054   5.844   7.105  0.0060 -0.1486  0.2954
  213loPI   C1B 3405  12.051   5.542   8.964  0.3609  0.1425  0.1110
  213loPI   C2B 3406  12.102   5.641   8.591  0.0699  0.3423  0.1275
  213loPI   C3B 3407  12.338   5.555   8.101  0.2697 -0.5465 -0.0798
  213loPI   C4B 3408  12.319   5.694   7.629 -0.4584  0.6320  0.4319
  214loPI    C1 3409   4.073  12.746  11.228  0.0056  0.0881 -0.0386
  214loPI    C2 3410   4.419  12.732  11.429 -0.0192 -0.3438 -0.0158
  214loPI    C3 3411   4.081  12.833  11.618  0.0401 -0.2452  0.0382
  214loPI   PO4 3412   4.127  12.932  10.990 -0.0637 -0.0886 -0.1548
  214loPI   GL1 3413   3.940  13.112  10.595  0.0784 -0.1433 -0.2421
  214loPI   GL2 3414   3.818  12.941  10.591  0.1284 -0.1904 -0.0075
  214loPI   C1A 3415   4.325  13.178  10.220 -0.1680  0.3983 -0.2881
  214loPI   C2A 3416   4.266  13.179   9.850 -0.0231 -0.1200  0.1460
  214loPI   C3A 3417   4.290  13.220   9.448 -0.2205 -0.1401 -0.0757
  214loPI   C4A 3418   4.337  13.163   9.069  0.2857 -0.2026  0.2223
  214loPI   C5A 3419   4.367  13.076   8.556 -0.1319 -0.1780  0.1310
  214loPI   C6A 3420   4.328  12.791   8.212  0.0971  0.2923 -0.0318
  214loPI   C1B 3421   3.836  13.032  10.154 -0.1350  0.1203  0.0818
  214loPI   C2B 3422   3.866  12.945   9.729  0.2505  0.0655 -0.1277
  214loPI   C3B 3423   3.840  13.042   9.313  0.1101  0.4126  0.2442
  214loPI   C4B 3424   3.834  12.978   8.874 -0.1112  0.2507  0.0766
  215loPI    C1 3425   1.945   5.351  10.963  0.1573  0.0756 -0.0560
  215loPI    C2 3426   1.958   5.749  10.932  0.2488  0.0722 -0.0644
  215loPI    C3 3427   2.082   5.571  11.267  0.1305  0.0555 -0.0293
  215loPI   PO4 3428   1.941   5.307  10.663 -0.1317  0.2683  0.0278
  215loPI   GL1 3429   2.236   5.105  10.300  0.1957  0.0115  0.2720
  215loPI   GL2 3430   2.494   5.089  10.349  0.0094 -0.3350 -0.1085
  215loPI   C1A 3431   2.159   5.108   9.855 -0.1195 -0.2851  0.2559
  215loPI   C2A 3432   2.230   5.032   9.377  0.1062  0.0980  0.4914
  215loPI   C3A 3433   2.253   5.107   8.875 -0.1245 -0.0603  0.0680
  215loPI   C4A 3434   2.300   5.056   8.352 -0.3995  0.2653 -0.1997
  215loPI   C5A 3435   2.594   4.886   8.098 -0.1375 -0.0474  0.1768
  215loPI   C6A 3436   2.567   4.494   7.954  0.0833  0.2730  0.1928
  215loPI   C1B 3437   2.605   4.819  10.031  0.1782 -0.0978  0.1313
  215loPI   C2B 3438   2.624   4.735   9.512  0.2132  0.2840 -0.1347
  215loPI   C3B 3439   2.594   4.759   9.114 -0.0675 -0.1076 -0.0044
  215loPI   C4B 3440   2.600   4.649   8.711 -0.4420 -0.0658  0.1671
  216loPI    C1 3441  11.859  15.077  10.943  0.0953 -0.2034 -0.0785
  216loPI    C2 3442  11.670  14.854  11.217 -0.0298 -0.1068 -0.0854
  216loPI    C3 3443  11.725  15.245  11.280  0.2332 -0.1474 -0.0511
  216loPI   PO4 3444  11.993  14.869  10.808  0.0867  0.0789  0.2050
  216loPI   GL1 3445  11.896  14.651  10.356  0.3177 -0.0991 -0.3608
  216loPI   GL2 3446  11.935  14.383  10.447 -0.1996 -0.1321  0.0777
  216loPI   C1A 3447  11.849  14.729   9.924  0.0375 -0.3245  0.1815
  216loPI   C2A 3448  12.029  14.700   9.427  0.1003  0.0130  0.1965
  216loPI   C3A 3449  11.990  14.779   8.977  0.2017  0.0546  0.3260
  216loPI   C4A 3450  11.908  14.448   8.644 -0.3129 -0.1811  0.0704
  216loPI   C5A 3451  11.618  14.115   8.480  0.1748  0.0890 -0.1216
  216loPI   C6A 3452  11.586  14.086   8.033 -0.0289 -0.1219  0.1618
  216loPI   C1B 3453  11.810  14.245  10.062 -0.2182  0.1671  0.0791
  216loPI   C2B 3454  11.786  14.137   9.572  0.0448  0.2852 -0.0938
  216loPI   C3B 3455  11.819  14.145   9.225 -0.1438 -0.4717  0.2094
  216loPI   C4B 3456  11.730  13.797   8.865  0.1517 -0.2226  0.2397
  217loPI    C1 3457  11.577  17.195  11.137  0.1620 -0.0527 -0.2660
  217loPI    C2 3458  11.905  17.389  11.260 -0.1131  0.2597 -0.0051
  217loPI    C3 3459  11.686  17.180  11.522  0.1435 -0.3661 -0.2705
  217loPI   PO4 3460  11.643  17.104  10.929  0.2144  0.2037 -0.0324
  217loPI   GL1 3461  11.585  17.183  10.586  0.0684 -0.1270 -0.1082
  217loPI   GL2 3462  11.725  17.220  10.255 -0.1457  0.1572  0.2117
  217loPI   C1A 3463  11.295  17.016  10.216 -0.2541  0.0595 -0.1896
  217loPI   C2A 3464  11.307  16.973   9.756 -0.4390  0.1776  0.0376
  217loPI   C3A 3465  11.284  17.011   9.234 -0.0287 -0.1732  0.1515
  217loPI   C4A 3466  11.397  16.952   8.763  0.1668  0.0563 -0.0310
  217loPI   C5A 3467  11.455  16.803   8.450 -0.2208 -0.1566 -0.0459
  217loPI   C6A 3468  11.083  16.647   8.238  0.4403  0.0373  0.3317
  217loPI   C1B 3469  11.710  17.196   9.934  0.1035 -0.3103 -0.1479
  217loPI   C2B 3470  11.725  17.175   9.523  0.0976  0.1055 -0.3899
  217loPI   C3B 3471  11.861  17.200   9.077 -0.1916  0.0065 -0.0760
  217loPI   C4B 3472  11.866  17.109   8.658 -0.2107  0.0241  0.3371
  218loPI    C1 3473  13.151   5.945  10.145  0.1182 -0.1177 -0.0889
  218loPI    C2 3474  13.201   6.127  10.497  0.2353 -0.0414 -0.1444
  218loPI    C3 3475  13.107   5.738  10.484  0.0466 -0.0007 -0.0264
  218loPI   PO4 3476  12.990   6.061   9.932  0.1245 -0.1095  0.0769
  218loPI   GL1 3477  12.961   6.595   9.821  0.0460 -0.0404  0.1491
  218loPI   GL2 3478  12.965   6.379   9.516  0.1602  0.1409  0.1641
  218loPI   C1A 3479  12.882   6.830   9.367  0.0934  0.0659 -0.2813
  218loPI   C2A 3480  12.756   6.712   8.924 -0.0246  0.1085  0.2109
  218loPI   C3A 3481  12.746   6.704   8.470  0.0490  0.2373  0.2323
  218loPI   C4A 3482  12.606   6.628   8.152 -0.0976  0.2275  0.3020
  218loPI   C5A 3483  12.663   6.719   7.763 -0.1452  0.0775  0.0122
  218loPI   C6A 3484  12.740   6.828   7.356 -0.3714 -0.0792 -0.0020
  218loPI   C1B 3485  12.835   6.260   9.107 -0.2717 -0.2534 -0.2502
  218loPI   C2B 3486  12.832   6.291   8.713  0.3904 -0.0380  0.0387
  218loPI   C3B 3487  12.916   6.283   8.251 -0.1081 -0.0402 -0.0171
  218loPI   C4B 3488  13.114   6.370   7.786  0.0112 -0.2468 -0.0199
  219loPI    C1 3489  13.470   4.753   9.900  0.0820 -0.1703 -0.0074
  219loPI    C2 3490  13.633   4.475  10.137  0.1409 -0.1800 -0.0590
  219loPI    C3 3491  13.242   4.461  10.051  0.0351  0.0497  0.3577
  219loPI   PO4 3492  13.561   4.825   9.706  0.0084 -0.0713  0.1381
  219loPI   GL1 3493  13.524   4.771   9.294  0.0475  0.0635  0.1484
  219loPI   GL2 3494  13.583   5.067   9.284  0.2215 -0.1107  0.1918
  219loPI   C1A 3495  13.344   4.799   8.898 -0.0543 -0.0561  0.0729
  219loPI   C2A 3496  13.326   4.756   8.499 -0.0357  0.0011 -0.0245
  219loPI   C3A 3497  13.117   4.789   8.115  0.0682  0.1266  0.1210
  219loPI   C4A 3498  13.046   4.493   7.906 -0.0583 -0.1123  0.2540
  219loPI   C5A 3499  13.059   4.386   7.519 -0.0489  0.1220  0.0426
  219loPI   C6A 3500  13.336   4.472   7.158 -0.0328 -0.3662 -0.1025
  219loPI   C1B 3501  13.763   5.151   8.830  0.1412 -0.2416  0.0057
  219loPI   C2B 3502  13.700   5.045   8.406  0.0904 -0.0454  0.2817
  219loPI   C3B 3503  13.942   4.861   8.022  0.1843  0.0993  0.2671
  219loPI   C4B 3504  14.293   4.874   7.832  0.1648 -0.1788 -0.1716
  220loPI    C1 3505   9.456   3.272  10.717 -0.0660  0.1081 -0.1637
  220loPI    C2 3506   9.721   3.527  10.874 -0.2130  0.1987 -0.0602
  220loPI    C3 3507   9.539   3.258  11.108 -0.0902  0.0252 -0.1614
  220loPI   PO4 3508   9.540   3.198  10.405  0.2398  0.1319  0.1270
  220loPI   GL1 3509   9.432   3.251  10.041  0.0390 -0.0705  0.6133
  220loPI   GL2 3510   9.292   2.973   9.931  0.1258 -0.1475 -0.2239
  220loPI   C1A 3511   9.322   3.452   9.559  0.0992  0.0686  0.2445
  220loPI   C2A 3512   9.291   3.570   9.069 -0.0695  0.0846  0.1855
  220loPI   C3A 3513   9.242   3.547   8.609 -0.0812 -0.1474  0.0713
  220loPI   C4A 3514   9.156   3.546   8.127  0.3075 -0.0099 -0.3726
  220loPI   C5A 3515   9.284   3.564   7.814  0.0299  0.3305  0.1048
  220loPI   C6A 3516   9.102   3.487   7.416  0.2465 -0.0767  0.2913
  220loPI   C1B 3517   9.262   2.962   9.449  0.1736 -0.2103 -0.3385
  220loPI   C2B 3518   9.232   3.068   9.025 -0.1394  0.1849 -0.1324
  220loPI   C3B 3519   9.198   2.967   8.596 -0.1065 -0.1136  0.3591
  220loPI   C4B 3520   9.048   2.891   8.234 -0.1180  0.1290  0.1552
  221loPI    C1 3521  14.763  12.520  10.740  0.2490 -0.0147 -0.0161
  221loPI    C2 3522  14.405  12.496  10.917  0.2103  0.0740 -0.0815
  221loPI    C3 3523  14.703  12.257  11.035  0.1617  0.0768  0.0486
  221loPI   PO4 3524  14.804  12.609  10.555 -0.2314 -0.0360  0.0350
  221loPI   GL1 3525  14.747  12.826  10.177  0.1966 -0.0542  0.0338
  221loPI   GL2 3526  14.982  12.941  10.035 -0.4743  0.0422  0.1619
  221loPI   C1A 3527  14.439  12.701   9.851  0.1831  0.0450 -0.3320
  221loPI   C2A 3528  14.426  12.652   9.336  0.0061 -0.0470 -0.0717
  221loPI   C3A 3529  14.445  12.798   8.852  0.2371  0.0947 -0.1495
  221loPI   C4A 3530  14.343  12.721   8.563 -0.0954  0.0273 -0.2008
  221loPI   C5A 3531  14.412  12.751   8.157  0.1212  0.0866 -0.0610
  221loPI   C6A 3532  14.727  12.457   7.966  0.0429  0.0008 -0.1737
  221loPI   C1B 3533  14.825  12.919   9.594  0.2409 -0.1893 -0.2224
  221loPI   C2B 3534  14.913  12.893   9.151  0.1659 -0.0157  0.1967
  221loPI   C3B 3535  14.922  12.974   8.675 -0.1761  0.1995  0.0963
  221loPI   C4B 3536  14.817  13.043   8.274 -0.2017  0.0927  0.1893
  222loPI    C1 3537  11.343  14.977  10.934 -0.1463  0.0223 -0.0114
  222loPI    C2 3538  11.152  14.887  11.274  0.0452  0.0611  0.1077
  222loPI    C3 3539  11.026  14.733  10.927 -0.0332 -0.1346  0.2217
  222loPI   PO4 3540  11.353  15.169  10.935  0.1321 -0.4766  0.1196
  222loPI   GL1 3541  11.504  15.334  10.557 -0.2471 -0.2593 -0.0076
  222loPI   GL2 3542  11.654  15.103  10.478 -0.1086 -0.2248 -0.1922
  222loPI   C1A 3543  11.524  15.551  10.202  0.0004 -0.3105  0.0691
  222loPI   C2A 3544  11.599  15.596   9.808  0.1292  0.1279  0.2756
  222loPI   C3A 3545  11.567  15.500   9.443 -0.1324 -0.1190 -0.0774
  222loPI   C4A 3546  11.612  15.519   9.042 -0.0497  0.0652  0.0219
  222loPI   C5A 3547  11.644  15.574   8.621 -0.0428  0.1640  0.0543
  222loPI   C6A 3548  11.647  15.814   8.200 -0.1589  0.0778 -0.1389
  222loPI   C1B 3549  11.546  15.119   9.971 -0.1476  0.0437  0.0666
  222loPI   C2B 3550  11.509  14.991   9.531 -0.1121 -0.1988 -0.2427
  222loPI   C3B 3551  11.589  15.053   9.080  0.1246 -0.1837  0.2532
  222loPI   C4B 3552  11.722  15.056   8.605 -0.1277 -0.0172 -0.3958
  223loPI    C1 3553   8.423  11.970  10.556  0.2056 -0.1795 -0.1584
  223loPI    C2 3554   8.465  11.618  10.741 -0.0616 -0.1333 -0.0038
  223loPI    C3 3555   8.102  11.782  10.704  0.0715  0.1709  0.0076
  223loPI   PO4 3556   8.568  12.008  10.384  0.2447  0.1092 -0.1985
  223loPI   GL1 3557   8.396  12.127   9.979 -0.0000 -0.1044 -0.0451
  223loPI   GL2 3558   8.556  11.809   9.830  0.2966 -0.1079 -0.1324
  223loPI   C1A 3559   8.496  12.300   9.616 -0.2880 -0.0038 -0.1084
  223loPI   C2A 3560   8.464  12.312   9.115  0.0449  0.1059 -0.1408
  223loPI   C3A 3561   8.523  12.381   8.618  0.1245  0.3048  0.0739
  223loPI   C4A 3562   8.578  12.326   8.263  0.1604 -0.2715 -0.0304
  223loPI   C5A 3563   8.549  12.179   7.926 -0.2528  0.0877 -0.1936
  223loPI   C6A 3564   8.103  12.042   7.629  0.1013 -0.0120  0.1902
  223loPI   C1B 3565   8.501  11.752   9.363 -0.1346  0.0131 -0.0888
  223loPI   C2B 3566   8.391  11.782   8.977 -0.0197 -0.1316  0.2061
  223loPI   C3B 3567   8.411  11.795   8.571  0.3491  0.3344  0.0655
  223loPI   C4B 3568   8.377  11.777   8.083  0.1970 -0.2224  0.2713
  224loPI    C1 3569  15.955   6.375  10.199  0.0397  0.1498 -0.1127
  224loPI    C2 3570  15.686   6.265  10.474  0.0336  0.0662 -0.1517
  224loPI    C3 3571  15.751   6.653  10.401 -0.0113  0.0877 -0.0783
  224loPI   PO4 3572  15.875   6.013   9.996 -0.3243  0.0850  0.0370
  224loPI   GL1 3573  15.857   5.775   9.572  0.0544  0.0859 -0.2109
  224loPI   GL2 3574  15.616   5.772   9.358 -0.1040  0.0824  0.1677
  224loPI   C1A 3575  16.033   5.668   9.069 -0.0400 -0.1886 -0.0317
  224loPI   C2A 3576  16.183   5.672   8.684  0.2047 -0.1814 -0.2047
  224loPI   C3A 3577  16.176   5.707   8.295 -0.0453 -0.2942  0.4339
  224loPI   C4A 3578  16.185   5.729   7.818 -0.0047 -0.0107  0.0664
  224loPI   C5A 3579  16.171   5.733   7.353 -0.1068  0.0108  0.2076
  224loPI   C6A 3580  16.170   5.895   7.021 -0.0353  0.0645 -0.2375
  224loPI   C1B 3581  15.707   6.036   8.997 -0.0355  0.0229 -0.0421
  224loPI   C2B 3582  15.763   6.011   8.542 -0.2471 -0.0814  0.0570
  224loPI   C3B 3583  15.769   5.939   8.167 -0.1265  0.0530 -0.0725
  224loPI   C4B 3584  15.769   6.014   7.731  0.0752 -0.1200  0.2071
  225loPI    C1 3585   2.344  12.774  11.242  0.1174  0.0403  0.0131
  225loPI    C2 3586   2.366  13.058  11.523 -0.0574 -0.2065  0.2822
  225loPI    C3 3587   2.461  12.680  11.613  0.0239 -0.2637 -0.0316
  225loPI   PO4 3588   2.486  12.879  11.078  0.0976 -0.0190  0.0233
  225loPI   GL1 3589   2.444  12.754  10.537  0.0262 -0.0512  0.2296
  225loPI   GL2 3590   2.080  12.859  10.491 -0.0066 -0.0847  0.1016
  225loPI   C1A 3591   2.512  13.012  10.135  0.2193  0.3190  0.1456
  225loPI   C2A 3592   2.556  12.941   9.708 -0.2978 -0.0388  0.0466
  225loPI   C3A 3593   2.435  12.920   9.289 -0.0337 -0.0115 -0.1995
  225loPI   C4A 3594   2.584  13.002   8.863 -0.1059  0.0014 -0.0370
  225loPI   C5A 3595   2.480  12.983   8.401  0.1059  0.0105  0.0907
  225loPI   C6A 3596   2.368  12.624   8.157 -0.4200  0.0687 -0.1173
  225loPI   C1B 3597   1.918  12.805  10.037 -0.0004  0.0013 -0.0141
  225loPI   C2B 3598   2.079  12.834   9.670 -0.1055  0.1309  0.0582
  225loPI   C3B 3599   1.974  12.737   9.264  0.0942 -0.2056  0.0339
  225loPI   C4B 3600   2.093  12.732   8.817  0.3754 -0.1667  0.0497
  226loPI    C1 3601  14.200  13.404  10.768 -0.1217 -0.0378  0.1508
  226loPI    C2 3602  13.908  13.671  10.829  0.1063  0.2446  0.0322
  226loPI    C3 3603  14.015  13.421  11.122 -0.1618  0.2294  0.1193
  226loPI   PO4 3604  14.119  13.258  10.492  0.0777 -0.0636 -0.1289
  226loPI   GL1 3605  14.297  13.078  10.182 -0.1747  0.1663  0.3543
  226loPI   GL2 3606  14.037  13.007  10.028  0.1914  0.2938 -0.1380
  226loPI   C1A 3607  14.436  13.203   9.794 -0.0759  0.1936 -0.1693
  226loPI   C2A 3608  14.477  13.154   9.326 -0.1403 -0.2233 -0.3372
  226loPI   C3A 3609  14.586  13.260   9.007 -0.0835  0.2325  0.3256
  226loPI   C4A 3610  14.501  13.288   8.602  0.2654 -0.0099 -0.1160
  226loPI   C5A 3611  14.282  13.258   8.248  0.0591 -0.0786 -0.0346
  226loPI   C6A 3612  13.962  13.369   8.091 -0.0470 -0.1627 -0.0438
  226loPI   C1B 3613  14.073  12.952   9.544 -0.2249 -0.0653  0.2099
  226loPI   C2B 3614  14.035  12.970   9.073  0.0075 -0.0517 -0.0367
  226loPI   C3B 3615  14.027  13.051   8.674 -0.0945 -0.2386 -0.0012
  226loPI   C4B 3616  13.925  12.923   8.186  0.3815 -0.2975 -0.0834
  227loPI    C1 3617   2.076   6.904  10.655 -0.0261  0.2037  0.0754
  227loPI    C2 3618   2.085   6.722  11.011  0.3739 -0.0611 -0.0642
  227loPI    C3 3619   2.074   7.121  10.991  0.1806 -0.0483  0.2429
  227loPI   PO4 3620   2.100   6.734  10.415 -0.0363  0.0255 -0.0494
  227loPI   GL1 3621   2.201   6.672  10.024 -0.3476 -0.3453 -0.0247
  227loPI   GL2 3622   2.390   6.606   9.988 -0.0744 -0.0315 -0.1579
  227loPI   C1A 3623   1.996   6.459   9.672 -0.2846 -0.0547  0.1811
  227loPI   C2A 3624   2.039   6.411   9.172  0.1189  0.2835 -0.0790
  227loPI   C3A 3625   2.052   6.414   8.654  0.2010 -0.1672 -0.1619
  227loPI   C4A 3626   2.089   6.422   8.214  0.0330  0.0357  0.1107
  227loPI   C5A 3627   2.142   6.398   7.856  0.3671  0.1624 -0.1217
  227loPI   C6A 3628   1.987   6.214   7.450 -0.0794  0.2290  0.0811
  227loPI   C1B 3629   2.416   6.550   9.498 -0.1739  0.1784 -0.0462
  227loPI   C2B 3630   2.456   6.637   9.017  0.1890 -0.2312 -0.4191
  227loPI   C3B 3631   2.522   6.614   8.588  0.1374  0.1118  0.1173
  227loPI   C4B 3632   2.515   6.726   8.134  0.0870  0.2572  0.2599
  228loPI    C1 3633   4.010   6.497  10.789  0.1947 -0.0690 -0.0543
  228loPI    C2 3634   3.920   6.703  11.120 -0.0323  0.0953 -0.2154
  228loPI    C3 3635   4.268   6.507  11.095  0.0415  0.1848  0.0700
  228loPI   PO4 3636   3.837   6.515  10.660 -0.1028  0.1379  0.0323
  228loPI   GL1 3637   3.754   6.418  10.127  0.1053  0.0653 -0.0864
  228loPI   GL2 3638   3.761   6.773   9.902  0.0715 -0.3032  0.1129
  228loPI   C1A 3639   3.732   6.262   9.690 -0.1103  0.0596  0.0511
  228loPI   C2A 3640   3.743   6.239   9.222 -0.0991  0.0353 -0.1336
  228loPI   C3A 3641   3.777   6.178   8.866  0.0283  0.2983  0.0006
  228loPI   C4A 3642   3.842   6.252   8.367  0.0353 -0.0459  0.1820
  228loPI   C5A 3643   3.960   6.113   7.982  0.1039  0.4895  0.1037
  228loPI   C6A 3644   3.999   6.093   7.505  0.2732  0.0929 -0.3662
  228loPI   C1B 3645   3.774   6.711   9.444 -0.1098  0.2804  0.0287
  228loPI   C2B 3646   3.852   6.728   9.051 -0.0389  0.1096 -0.0433
  228loPI   C3B 3647   3.868   6.730   8.604  0.0012  0.1103 -0.1342
  228loPI   C4B 3648   3.910   6.709   8.188 -0.1855  0.1776  0.3036
  229loPI    C1 3649   4.053   3.207  10.939  0.0252 -0.0074  0.0097
  229loPI    C2 3650   4.047   2.979  11.268 -0.1106  0.1853  0.1431
  229loPI    C3 3651   4.251   2.860  10.945 -0.0993 -0.0764  0.2447
  229loPI   PO4 3652   3.963   3.526  10.869 -0.0550 -0.2193  0.2741
  229loPI   GL1 3653   3.801   3.482  10.563 -0.0094 -0.3966 -0.3015
  229loPI   GL2 3654   3.740   3.098  10.513 -0.0391 -0.5174 -0.0596
  229loPI   C1A 3655   3.724   3.487  10.175  0.4485 -0.0544 -0.2386
  229loPI   C2A 3656   3.766   3.355   9.796 -0.2358  0.2361 -0.1833
  229loPI   C3A 3657   3.754   3.269   9.337 -0.1872 -0.2730  0.0718
  229loPI   C4A 3658   3.717   3.183   8.916  0.0617  0.1529  0.0221
  229loPI   C5A 3659   3.701   3.189   8.379 -0.3409 -0.2097 -0.0141
  229loPI   C6A 3660   3.625   3.583   8.070  0.0470 -0.0006  0.3144
  229loPI   C1B 3661   3.722   2.917  10.181 -0.1093 -0.0873 -0.1361
  229loPI   C2B 3662   3.573   2.806   9.851 -0.2144 -0.0518  0.1146
  229loPI   C3B 3663   3.703   2.728   9.406  0.2538 -0.0202 -0.1066
  229loPI   C4B 3664   3.643   2.634   9.007 -0.1276 -0.1823 -0.1144
  230loPI    C1 3665  14.174  16.744  10.808 -0.0171 -0.0442 -0.0674
  230loPI    C2 3666  13.892  16.858  11.068  0.1084  0.1490 -0.0136
  230loPI    C3 3667  14.119  16.539  11.147 -0.1289 -0.0402 -0.0824
  230loPI   PO4 3668  14.098  16.646  10.565  0.0258 -0.0468 -0.0509
  230loPI   GL1 3669  13.971  16.688  10.181  0.0387 -0.0907 -0.0135
  230loPI   GL2 3670  13.921  17.043  10.133 -0.1523 -0.1872  0.2605
  230loPI   C1A 3671  13.988  16.566   9.803  0.2696  0.0590  0.0129
  230loPI   C2A 3672  14.092  16.530   9.423 -0.0476 -0.0267  0.0598
  230loPI   C3A 3673  14.110  16.588   9.066  0.3091 -0.2829  0.0572
  230loPI   C4A 3674  13.980  16.497   8.625  0.0079 -0.2219  0.2463
  230loPI   C5A 3675  14.236  16.543   8.231  0.0836  0.0812 -0.1386
  230loPI   C6A 3676  14.343  16.862   7.927 -0.0546  0.0266 -0.0906
  230loPI   C1B 3677  14.079  17.025   9.743  0.2865 -0.3588  0.2566
  230loPI   C2B 3678  14.121  17.001   9.356  0.0558 -0.1084  0.2169
  230loPI   C3B 3679  14.052  17.061   8.940 -0.0264  0.1012  0.0109
  230loPI   C4B 3680  14.129  16.922   8.507  0.1847 -0.0168  0.1989
  231loPI    C1 3681   1.574   2.973  10.799  0.0913  0.0133 -0.0414
  231loPI    C2 3682   1.365   2.757  11.064 -0.0547 -0.0053 -0.1706
  231loPI    C3 3683   1.496   3.122  11.162  0.2560 -0.1778  0.0749
  231loPI   PO4 3684   1.454   2.922  10.579  0.1565  0.1114  0.0699
  231loPI   GL1 3685   1.262   2.839  10.219  0.1232 -0.2111  0.0636
  231loPI   GL2 3686   1.286   2.541  10.126  0.2581 -0.4482  0.0063
  231loPI   C1A 3687   1.421   2.860   9.749 -0.0466 -0.1322 -0.0179
  231loPI   C2A 3688   1.474   2.784   9.310 -0.1347  0.0743 -0.0897
  231loPI   C3A 3689   1.518   2.833   8.958 -0.2344  0.0479  0.0544
  231loPI   C4A 3690   1.550   2.682   8.586 -0.2400 -0.2701 -0.0963
  231loPI   C5A 3691   1.467   2.603   8.130  0.1220 -0.1255  0.1811
  231loPI   C6A 3692   1.348   2.653   7.602  0.1928  0.2174 -0.1830
  231loPI   C1B 3693   1.380   2.370   9.784  0.0943 -0.1616 -0.0621
  231loPI   C2B 3694   1.320   2.253   9.340 -0.1361 -0.2222  0.0002
  231loPI   C3B 3695   1.402   2.384   8.909  0.1886  0.0349  0.0664
  231loPI   C4B 3696   1.454   2.224   8.523 -0.0501  0.4035 -0.1620
  232loPI    C1 3697   5.474   9.264  10.612  0.3275 -0.1500 -0.0898
  232loPI    C2 3698   5.162   9.113  10.812  0.2463  0.2129  0.0657
  232loPI    C3 3699   5.524   9.120  10.982  0.3589 -0.2651 -0.1384
  232loPI   PO4 3700   5.433   9.200  10.351 -0.2291 -0.0967 -0.0438
  232loPI   GL1 3701   5.359   9.407   9.985 -0.2063  0.1361 -0.1905
  232loPI   GL2 3702   5.533   9.275   9.762 -0.4315  0.2842 -0.1016
  232loPI   C1A 3703   5.221   9.664   9.578  0.2602 -0.0345 -0.0297
  232loPI   C2A 3704   5.281   9.680   9.171  0.0272 -0.1517  0.0715
  232loPI   C3A 3705   5.276   9.703   8.696  0.1905  0.0967  0.0189
  232loPI   C4A 3706   5.198   9.731   8.166  0.1419 -0.0652  0.0906
  232loPI   C5A 3707   5.396  10.057   7.934  0.1313 -0.1421 -0.1294
  232loPI   C6A 3708   5.560  10.478   7.916 -0.2420  0.1155 -0.4387
  232loPI   C1B 3709   5.605   9.336   9.380  0.0845  0.1350 -0.1112
  232loPI   C2B 3710   5.629   9.381   8.947  0.1382 -0.0749  0.0757
  232loPI   C3B 3711   5.670   9.338   8.417  0.0172  0.2548 -0.0607
  232loPI   C4B 3712   6.017   9.101   8.246 -0.0236  0.2246  0.4266
  233loPI    C1 3713  11.233   6.831  10.347 -0.1880  0.1404  0.0883
  233loPI    C2 3714  11.358   7.111  10.604 -0.0621 -0.0111  0.1941
  233loPI    C3 3715  10.976   6.991  10.609 -0.1011  0.1112  0.1920
  233loPI   PO4 3716  11.475   6.795  10.151  0.2108 -0.2841  0.2913
  233loPI   GL1 3717  11.648   6.706   9.738 -0.3520  0.0828  0.2546
  233loPI   GL2 3718  11.440   6.756   9.620 -0.0049  0.0115  0.1255
  233loPI   C1A 3719  11.853   6.579   9.290 -0.0017  0.0067  0.1092
  233loPI   C2A 3720  11.810   6.582   8.853  0.2086 -0.2622  0.1530
  233loPI   C3A 3721  11.778   6.490   8.373 -0.0753 -0.1593 -0.1546
  233loPI   C4A 3722  11.722   6.441   7.946  0.1958  0.1298  0.0618
  233loPI   C5A 3723  11.269   6.436   7.670 -0.0168 -0.5237  0.0176
  233loPI   C6A 3724  10.898   6.533   7.710  0.0039  0.3990  0.1066
  233loPI   C1B 3725  11.229   6.772   9.314 -0.4681 -0.0587 -0.0577
  233loPI   C2B 3726  11.258   6.745   8.913 -0.0645 -0.3222  0.2100
  233loPI   C3B 3727  11.330   6.706   8.533 -0.0735 -0.1048 -0.2050
  233loPI   C4B 3728  11.268   6.559   8.170  0.3411 -0.1918  0.0279
  234loPI    C1 3729  13.405  10.961  10.417  0.2615  0.0264  0.1326
  234loPI    C2 3730  13.634  11.279  10.492  0.2289  0.0254  0.2381
  234loPI    C3 3731  13.468  11.077  10.794  0.1518 -0.0200  0.1658
  234loPI   PO4 3732  13.323  11.009  10.098 -0.2354  0.2892  0.0051
  234loPI   GL1 3733  12.953  10.921   9.847 -0.1627 -0.0373 -0.0736
  234loPI   GL2 3734  12.857  11.051  10.095  0.4439 -0.1882  0.1814
  234loPI   C1A 3735  12.970  11.105   9.449  0.2245  0.1484 -0.2776
  234loPI   C2A 3736  12.698  11.192   9.120 -0.1522  0.0666  0.1651
  234loPI   C3A 3737  12.595  11.333   8.765 -0.2654 -0.0442  0.2276
  234loPI   C4A 3738  12.339  11.131   8.470 -0.1319  0.2427 -0.0802
  234loPI   C5A 3739  12.414  11.171   7.969  0.1005 -0.5030  0.1015
  234loPI   C6A 3740  12.470  11.273   7.435  0.1603 -0.0973  0.3853
  234loPI   C1B 3741  13.014  11.492   9.847  0.2593  0.1894  0.1252
  234loPI   C2B 3742  12.962  11.574   9.370 -0.1573 -0.3768 -0.1744
  234loPI   C3B 3743  12.985  11.582   8.914 -0.0916  0.0916  0.0182
  234loPI   C4B 3744  12.947  11.786   8.577  0.3954 -0.1295  0.0725
  235loPI    C1 3745  11.931   6.941  10.075 -0.0184 -0.0263  0.1356
  235loPI    C2 3746  11.813   7.085  10.429  0.1322  0.0446  0.1579
  235loPI    C3 3747  12.140   6.857  10.405  0.1659  0.1031  0.0536
  235loPI   PO4 3748  12.066   7.189   9.946 -0.0165 -0.0959  0.2087
  235loPI   GL1 3749  12.355   7.203   9.654 -0.3131  0.0504  0.3837
  235loPI   GL2 3750  12.572   7.361   9.477  0.4203  0.2084  0.2660
  235loPI   C1A 3751  12.134   7.326   9.225  0.1680 -0.1777  0.0804
  235loPI   C2A 3752  11.980   7.463   8.918  0.0838 -0.0106 -0.0552
  235loPI   C3A 3753  11.941   7.379   8.502  0.0288 -0.2963  0.2464
  235loPI   C4A 3754  11.883   7.415   8.077 -0.2350  0.3747  0.1620
  235loPI   C5A 3755  11.905   7.406   7.628 -0.5263  0.0589  0.1342
  235loPI   C6A 3756  11.764   7.855   7.351 -0.1336 -0.1803 -0.4032
  235loPI   C1B 3757  12.758   7.250   9.037  0.0817  0.2044 -0.1746
  235loPI   C2B 3758  12.834   7.145   8.618  0.1458 -0.3611  0.0443
  235loPI   C3B 3759  12.802   7.145   8.149  0.1493 -0.1404 -0.0118
  235loPI   C4B 3760  12.813   7.247   7.637  0.1576  0.0136  0.0566
  236loPI    C1 3761   1.458   5.642  10.885 -0.2756 -0.0825  0.0099
  236loPI    C2 3762   1.529   5.422  11.211  0.0851  0.0887  0.0517
  236loPI    C3 3763   1.577   5.818  11.224  0.1260  0.0941 -0.2167
  236loPI   PO4 3764   1.444   5.551  10.606  0.1689 -0.2397  0.0064
  236loPI   GL1 3765   1.567   5.357  10.350  0.5138 -0.1798  0.0313
  236loPI   GL2 3766   1.713   5.097  10.261 -0.1372  0.3090  0.1008
  236loPI   C1A 3767   1.740   5.436   9.881 -0.3209  0.4597  0.0644
  236loPI   C2A 3768   1.766   5.424   9.426 -0.0499  0.0103  0.2384
  236loPI   C3A 3769   1.860   5.324   9.002 -0.1256  0.1322 -0.1661
  236loPI   C4A 3770   1.928   5.441   8.606 -0.2834 -0.2611  0.2702
  236loPI   C5A 3771   2.014   5.438   8.178 -0.0701 -0.0638 -0.1485
  236loPI   C6A 3772   2.280   5.276   7.902 -0.2936 -0.1765  0.1442
  236loPI   C1B 3773   1.679   4.894   9.847  0.0413  0.2345 -0.0226
  236loPI   C2B 3774   1.674   4.779   9.472  0.0066  0.2526  0.0389
  236loPI   C3B 3775   1.776   4.867   9.131  0.1085  0.2730 -0.2542
  236loPI   C4B 3776   1.823   4.806   8.682  0.1023 -0.0760 -0.0658
  237loPI    C1 3777   9.459   2.298  10.629  0.0717  0.1824  0.0857
  237loPI    C2 3778   9.503   2.366  11.021  0.2451 -0.0520  0.1087
  237loPI    C3 3779   9.635   2.024  10.861 -0.2647 -0.1738 -0.0697
  237loPI   PO4 3780   9.237   2.412  10.524  0.0823  0.0981  0.0031
  237loPI   GL1 3781   9.176   2.342  10.183  0.0328  0.1457 -0.0579
  237loPI   GL2 3782   8.906   2.257  10.232  0.0188 -0.3017 -0.4127
  237loPI   C1A 3783   9.183   2.503   9.838 -0.0504  0.1000 -0.1406
  237loPI   C2A 3784   9.115   2.494   9.400 -0.1484 -0.1378 -0.0522
  237loPI   C3A 3785   9.142   2.557   8.957  0.0494  0.0580  0.1185
  237loPI   C4A 3786   9.070   2.484   8.493  0.0196  0.2049 -0.3622
  237loPI   C5A 3787   9.101   2.443   8.043 -0.1488 -0.1752 -0.2925
  237loPI   C6A 3788   9.156   2.446   7.622  0.0439  0.0763  0.1982
  237loPI   C1B 3789   8.636   2.366   9.885  0.1946 -0.2245 -0.2433
  237loPI   C2B 3790   8.629   2.277   9.557  0.0174 -0.0154 -0.1949
  237loPI   C3B 3791   8.731   2.364   9.156  0.1299  0.1300  0.1598
  237loPI   C4B 3792   8.652   2.384   8.744  0.2531 -0.0259 -0.1320
  238loPI    C1 3793   9.619  11.792  10.475 -0.0404 -0.0092  0.0133
  238loPI    C2 3794   9.945  11.797  10.707  0.1173  0.2965 -0.2083
  238loPI    C3 3795   9.586  11.725  10.868  0.3101 -0.2180  0.0108
  238loPI   PO4 3796   9.698  11.680  10.228 -0.1490  0.1151 -0.2980
  238loPI   GL1 3797   9.794  11.592   9.799 -0.1239  0.2137  0.0738
  238loPI   GL2 3798  10.038  11.411   9.729 -0.0825  0.1396  0.0199
  238loPI   C1A 3799   9.562  11.608   9.560 -0.0616 -0.2247 -0.0936
  238loPI   C2A 3800   9.327  11.660   9.226 -0.1948  0.1375  0.0455
  238loPI   C3A 3801   9.243  11.672   8.842  0.0033 -0.0575 -0.1109
  238loPI   C4A 3802   9.304  11.643   8.468 -0.1528  0.1850 -0.0487
  238loPI   C5A 3803   9.252  11.525   8.145  0.1655 -0.1381  0.0013
  238loPI   C6A 3804   9.049  11.087   7.925 -0.1591  0.2285 -0.1632
  238loPI   C1B 3805   9.989  11.278   9.315  0.0032 -0.0412 -0.0704
  238loPI   C2B 3806   9.819  11.341   8.867 -0.1819 -0.1962  0.3389
  238loPI   C3B 3807   9.811  11.388   8.383 -0.0616  0.0688 -0.0296
  238loPI   C4B 3808   9.796  11.659   8.018  0.0869  0.1871  0.0207
  239loPI    C1 3809   0.324  15.855  10.880  0.0798  0.0874 -0.1620
  239loPI    C2 3810   0.477  15.926  11.243  0.1042  0.0729 -0.1694
  239loPI    C3 3811   0.081  15.942  11.186  0.0853 -0.1177 -0.0977
  239loPI   PO4 3812   0.532  15.726  10.757  0.0846 -0.1895  0.3431
  239loPI   GL1 3813   0.706  15.968  10.402 -0.0862  0.2768  0.2831
  239loPI   GL2 3814   0.989  15.754  10.522  0.0761 -0.1837  0.0826
  239loPI   C1A 3815   0.692  16.082   9.984  0.0969  0.0548 -0.0851
  239loPI   C2A 3816   0.678  16.079   9.620 -0.0427 -0.3035 -0.2099
  239loPI   C3A 3817   0.713  16.010   9.290 -0.1056 -0.1333  0.0028
  239loPI   C4A 3818   0.630  15.986   8.808  0.3637  0.3513  0.0906
  239loPI   C5A 3819   0.702  15.734   8.393 -0.2100  0.0414  0.1148
  239loPI   C6A 3820   0.397  15.520   8.269 -0.1676  0.2387 -0.3783
  239loPI   C1B 3821   1.101  15.701  10.040 -0.2691  0.0045 -0.1013
  239loPI   C2B 3822   1.103  15.799   9.625 -0.2056  0.0710 -0.0171
  239loPI   C3B 3823   1.097  15.746   9.131 -0.2366  0.0024 -0.1791
  239loPI   C4B 3824   1.114  15.821   8.640  0.0970  0.2847  0.2793
  240loPI    C1 3825   5.887   5.454  10.602  0.2028 -0.1363  0.0194
  240loPI    C2 3826   6.047   5.145  10.801  0.2877 -0.0121  0.1463
  240loPI    C3 3827   6.157   5.519  10.890 -0.0657  0.0763  0.2275
  240loPI   PO4 3828   5.878   5.409  10.311  0.1684  0.1722  0.1049
  240loPI   GL1 3829   5.600   5.438  10.059  0.0181  0.0252 -0.2451
  240loPI   GL2 3830   5.332   5.584   9.986  0.0284 -0.0900  0.1766
  240loPI   C1A 3831   5.771   5.141   9.606  0.0103  0.0391  0.0611
  240loPI   C2A 3832   5.992   5.074   9.374 -0.4074  0.0158  0.0748
  240loPI   C3A 3833   5.831   5.022   8.943  0.3919  0.0721  0.2389
  240loPI   C4A 3834   5.932   5.025   8.587 -0.1801  0.1228  0.2171
  240loPI   C5A 3835   5.875   5.116   8.157 -0.0059 -0.2381  0.0587
  240loPI   C6A 3836   5.909   5.569   7.917  0.0640 -0.2729  0.0956
  240loPI   C1B 3837   5.479   5.531   9.499 -0.0776  0.4682  0.2175
  240loPI   C2B 3838   5.468   5.390   9.085  0.3010  0.3261  0.0932
  240loPI   C3B 3839   5.383   5.311   8.644 -0.0446 -0.3052  0.0118
  240loPI   C4B 3840   5.334   5.291   8.184 -0.2136 -0.3991  0.1972
  241loPI    C1 3841  10.337  18.126  10.669 -0.0431  0.0190 -0.0790
  241loPI    C2 3842  10.181  18.426  10.884  0.0241 -0.0901  0.1251
  241loPI    C3 3843  10.357  18.119  11.069  0.0856 -0.1851 -0.0881
  241loPI   PO4 3844  10.180  18.105  10.481 -0.0097  0.2026  0.0443
  241loPI   GL1 3845   9.949  17.950  10.224  0.2976 -0.1267  0.5144
  241loPI   GL2 3846   9.716  18.125  10.209  0.2233 -0.2147 -0.2269
  241loPI   C1A 3847  10.022  17.997   9.719  0.2367 -0.1465  0.1379
  241loPI   C2A 3848  10.148  17.844   9.367 -0.2700  0.1876  0.1985
  241loPI   C3A 3849  10.172  17.802   8.858  0.2028 -0.0418  0.0986
  241loPI   C4A 3850  10.192  17.831   8.529 -0.2313 -0.1393  0.5191
  241loPI   C5A 3851   9.927  17.893   8.150 -0.0616  0.0268  0.1162
  241loPI   C6A 3852   9.692  17.817   7.850 -0.0697  0.2382  0.0247
  241loPI   C1B 3853   9.580  18.296   9.880 -0.3508 -0.0025 -0.1236
  241loPI   C2B 3854   9.693  18.286   9.417 -0.2977 -0.0468 -0.3125
  241loPI   C3B 3855   9.742  18.268   8.923 -0.1498  0.2000 -0.0518
  241loPI   C4B 3856   9.776  18.093   8.599  0.4312  0.4132  0.0472
  242loPI    C1 3857  18.127  17.153  11.092  0.2420 -0.3037 -0.2229
  242loPI    C2 3858  18.104  16.888  11.391  0.0495 -0.2298 -0.1708
  242loPI    C3 3859  17.911  17.237  11.419  0.0911 -0.1921 -0.3500
  242loPI   PO4 3860  18.027  17.015  10.859 -0.1012  0.2369 -0.0499
  242loPI   GL1 3861  17.853  17.019  10.438  0.0513 -0.1200  0.2702
  242loPI   GL2 3862  18.061  16.759  10.400  0.2311 -0.1009  0.1802
  242loPI   C1A 3863  17.834  17.021   9.984  0.1546  0.2846  0.1403
  242loPI   C2A 3864  17.850  17.029   9.462 -0.0087 -0.2738  0.1443
  242loPI   C3A 3865  17.879  17.013   9.073  0.0684 -0.0486  0.1248
  242loPI   C4A 3866  17.840  17.081   8.622  0.0472 -0.0270 -0.2828
  242loPI   C5A 3867  18.082  17.097   8.292 -0.0268 -0.3623 -0.0042
  242loPI   C6A 3868  18.395  17.190   8.303  0.1169 -0.1346  0.3869
  242loPI   C1B 3869  18.311  16.646   9.971 -0.0363 -0.0229 -0.0518
  242loPI   C2B 3870  18.312  16.757   9.467  0.1400  0.2177 -0.0868
  242loPI   C3B 3871  18.351  16.703   9.113 -0.1304 -0.0908  0.3808
  242loPI   C4B 3872  18.325  16.659   8.652 -0.2595  0.0779  0.0056
  243loPI    C1 3873   7.677   7.245  10.729 -0.2359 -0.1488 -0.2315
  243loPI    C2 3874   7.421   7.284  11.034 -0.0953 -0.1885 -0.1069
  243loPI    C3 3875   7.773   7.103  11.091  0.1968  0.3488 -0.1389
  243loPI   PO4 3876   7.463   7.245  10.504  0.2004  0.2614  0.1766
  243loPI   GL1 3877   7.303   7.288  10.081 -0.4053  0.1085  0.0182
  243loPI   GL2 3878   7.290   7.473   9.833 -0.1871  0.1169  0.3513
  243loPI   C1A 3879   6.826   7.377   9.813  0.2706 -0.0617  0.0649
  243loPI   C2A 3880   6.753   7.386   9.414 -0.2274 -0.0151 -0.0847
  243loPI   C3A 3881   6.683   7.407   9.004 -0.0179  0.0881 -0.3496
  243loPI   C4A 3882   6.614   7.444   8.627 -0.0653 -0.1518 -0.0349
  243loPI   C5A 3883   6.636   7.329   8.184 -0.1208 -0.1465  0.0845
  243loPI   C6A 3884   6.599   7.206   7.674 -0.2649 -0.2411 -0.1135
  243loPI   C1B 3885   7.188   7.148   9.555  0.3039 -0.0383  0.0429
  243loPI   C2B 3886   7.061   7.067   9.093  0.0293  0.0550 -0.3872
  243loPI   C3B 3887   6.971   7.113   8.681  0.0388  0.0649 -0.0783
  243loPI   C4B 3888   7.003   6.999   8.284 -0.0793 -0.0372 -0.2740
  244loPI    C1 3889  11.075  11.461  10.439  0.2002  0.0743  0.0617
  244loPI    C2 3890  11.226  11.372  10.799 -0.0053 -0.2190  0.0784
  244loPI    C3 3891  10.833  11.341  10.734  0.0013  0.0538 -0.1082
  244loPI   PO4 3892  11.267  11.559  10.281  0.0384 -0.3458  0.0623
  244loPI   GL1 3893  11.317  11.568   9.856 -0.1680  0.1439  0.0743
  244loPI   GL2 3894  11.226  11.836   9.647  0.1457  0.0745  0.0793
  244loPI   C1A 3895  11.056  11.499   9.415 -0.1663 -0.2131 -0.1618
  244loPI   C2A 3896  10.915  11.316   9.030  0.1937  0.1773  0.0458
  244loPI   C3A 3897  10.836  11.454   8.601 -0.3502 -0.0601  0.1199
  244loPI   C4A 3898  10.749  11.834   8.340  0.1635  0.1033  0.0668
  244loPI   C5A 3899  10.556  12.247   8.071  0.0333 -0.3095  0.2182
  244loPI   C6A 3900  10.475  12.561   8.090 -0.0706 -0.0349 -0.0960
  244loPI   C1B 3901  11.392  12.063   9.335  0.0804  0.1595 -0.2931
  244loPI   C2B 3902  11.388  12.266   8.956 -0.1247  0.0493  0.0872
  244loPI   C3B 3903  11.345  12.495   8.604  0.1883  0.0873  0.1260
  244loPI   C4B 3904  11.375  12.915   8.327 -0.2541  0.1140 -0.0743
  245loPI    C1 3905   7.548  12.988  10.818  0.0211  0.0129 -0.1671
  245loPI    C2 3906   7.167  13.066  10.913  0.0984  0.0812  0.0955
  245loPI    C3 3907   7.450  13.079  11.195  0.3077  0.1043 -0.1124
  245loPI   PO4 3908   7.667  13.169  10.623  0.0926  0.4175 -0.2646
  245loPI   GL1 3909   7.670  13.207  10.221 -0.1225 -0.1510 -0.0390
  245loPI   GL2 3910   7.721  13.048  10.027  0.0613 -0.1861  0.0175
  245loPI   C1A 3911   7.641  13.487   9.815 -0.0148  0.1399 -0.1604
  245loPI   C2A 3912   7.690  13.520   9.373  0.1482 -0.3980  0.0127
  245loPI   C3A 3913   7.674  13.499   9.051 -0.3350  0.4541 -0.1078
  245loPI   C4A 3914   7.684  13.425   8.560 -0.1205 -0.0024 -0.0859
  245loPI   C5A 3915   7.604  13.752   8.288  0.0866 -0.0371  0.1120
  245loPI   C6A 3916   7.590  14.114   8.001  0.0854  0.1547  0.0487
  245loPI   C1B 3917   7.760  12.912   9.666  0.0746  0.0506  0.3943
  245loPI   C2B 3918   7.614  12.891   9.196 -0.2821 -0.0871 -0.0925
  245loPI   C3B 3919   7.710  12.945   8.798 -0.4243 -0.0942 -0.0026
  245loPI   C4B 3920   7.436  12.998   8.385 -0.0745 -0.3558 -0.0328
  246loPI    C1 3921   5.870   6.032  10.685 -0.3212 -0.1218 -0.1578
  246loPI    C2 3922   5.571   6.027  10.952 -0.1521  0.0076  0.0370
  246loPI    C3 3923   5.944   5.939  11.067 -0.0755  0.0736 -0.1559
  246loPI   PO4 3924   5.748   6.053  10.466 -0.0748 -0.1546 -0.1404
  246loPI   GL1 3925   5.633   6.345  10.074 -0.0612  0.0686 -0.2248
  246loPI   GL2 3926   5.791   6.532   9.979 -0.2094 -0.3056  0.3706
  246loPI   C1A 3927   5.575   6.001   9.775  0.2014  0.0800  0.2336
  246loPI   C2A 3928   5.527   5.969   9.292  0.0161  0.5342  0.3412
  246loPI   C3A 3929   5.539   5.995   8.848 -0.0474 -0.0689 -0.0230
  246loPI   C4A 3930   5.464   5.801   8.555 -0.0284 -0.4056 -0.0774
  246loPI   C5A 3931   5.520   5.800   8.178  0.0994 -0.1219 -0.0130
  246loPI   C6A 3932   5.654   6.030   7.812  0.0398  0.4600  0.2432
  246loPI   C1B 3933   5.733   6.606   9.469 -0.2985  0.3548 -0.0770
  246loPI   C2B 3934   5.592   6.455   9.125 -0.0330  0.1405  0.0119
  246loPI   C3B 3935   5.642   6.405   8.642 -0.0139  0.3082 -0.0421
  246loPI   C4B 3936   5.599   6.348   8.195 -0.2198 -0.2161 -0.1686
  247loPI    C1 3937  13.048   7.454   9.938  0.1346  0.0788  0.0883
  247loPI    C2 3938  12.815   7.613  10.222  0.0269 -0.0451  0.0702
  247loPI    C3 3939  13.149   7.417  10.323 -0.0395 -0.1355  0.1155
  247loPI   PO4 3940  12.939   7.641   9.734 -0.0003  0.0178  0.0710
  247loPI   GL1 3941  12.968   8.098   9.552 -0.0872  0.0545 -0.0134
  247loPI   GL2 3942  13.319   8.163   9.342  0.0480  0.0672  0.1291
  247loPI   C1A 3943  12.716   8.192   9.220  0.2366  0.1409  0.2552
  247loPI   C2A 3944  12.515   8.071   8.753  0.3385 -0.0423 -0.2617
  247loPI   C3A 3945  12.457   7.976   8.317  0.0010 -0.1090  0.0879
  247loPI   C4A 3946  12.290   7.834   7.950 -0.0409 -0.1932  0.2070
  247loPI   C5A 3947  12.425   7.621   7.491  0.1154 -0.1469 -0.1654
  247loPI   C6A 3948  12.627   7.363   7.205 -0.0213  0.0368  0.4742
  247loPI   C1B 3949  13.137   8.398   9.053 -0.3945  0.2792  0.0273
  247loPI   C2B 3950  13.015   8.326   8.767 -0.0301 -0.2223 -0.1860
  247loPI   C3B 3951  12.774   8.372   8.374 -0.2751 -0.0315 -0.1136
  247loPI   C4B 3952  12.723   8.203   7.955 -0.1371  0.1350  0.5021
  248loPI    C1 3953   7.720   4.319  10.435 -0.0364 -0.2566  0.2371
  248loPI    C2 3954   7.869   4.673  10.324 -0.2524 -0.2635 -0.0883
  248loPI    C3 3955   8.091   4.422  10.542  0.1907 -0.2471 -0.5058
  248loPI   PO4 3956   7.621   4.240  10.167  0.2140 -0.1824  0.1311
  248loPI   GL1 3957   7.788   4.483   9.831 -0.2930 -0.1870  0.2600
  248loPI   GL2 3958   7.909   4.199   9.671 -0.2118  0.0048  0.3318
  248loPI   C1A 3959   7.588   4.468   9.428  0.0224 -0.0994 -0.1787
  248loPI   C2A 3960   7.651   4.378   9.178 -0.0306 -0.2060 -0.0823
  248loPI   C3A 3961   7.602   4.323   8.765  0.0646  0.1270 -0.0423
  248loPI   C4A 3962   7.476   4.372   8.373 -0.0637 -0.1856  0.0082
  248loPI   C5A 3963   7.505   4.469   7.961 -0.1164 -0.0299 -0.5464
  248loPI   C6A 3964   7.590   4.910   7.702  0.0500  0.1737 -0.3573
  248loPI   C1B 3965   7.959   3.987   9.378 -0.0487  0.0508 -0.0419
  248loPI   C2B 3966   7.985   3.954   8.953 -0.1446  0.1917 -0.1486
  248loPI   C3B 3967   7.977   4.037   8.589  0.0279  0.3165  0.4832
  248loPI   C4B 3968   7.892   4.143   8.157 -0.0621 -0.4369 -0.0941
  249loPI    C1 3969  18.204   7.699  10.605 -0.2430  0.1264 -0.0409
  249loPI    C2 3970  18.196   7.391  10.860  0.3242  0.0861 -0.0576
  249loPI    C3 3971  17.949   7.701  10.913  0.0750 -0.1550  0.2331
  249loPI   PO4 3972  18.352   7.634  10.436  0.5687 -0.1504 -0.2468
  249loPI   GL1 3973  18.231   7.631  10.012  0.0422 -0.0497  0.1727
  249loPI   GL2 3974  18.583   7.659   9.932  0.2025  0.2444  0.0546
  249loPI   C1A 3975  18.093   7.657   9.560  0.0164 -0.0437  0.3424
  249loPI   C2A 3976  18.246   7.553   9.209 -0.0219 -0.1643  0.1488
  249loPI   C3A 3977  18.220   7.512   8.778  0.2125 -0.1850 -0.1359
  249loPI   C4A 3978  18.235   7.650   8.388  0.3688 -0.1048  0.0106
  249loPI   C5A 3979  18.343   7.851   7.993 -0.0392 -0.2410  0.1515
  249loPI   C6A 3980  18.430   8.086   7.584 -0.1295 -0.0806 -0.0225
  249loPI   C1B 3981  18.504   7.324   9.710 -0.0413  0.0902  0.1878
  249loPI   C2B 3982  18.664   7.264   9.251  0.1148  0.2460  0.0490
  249loPI   C3B 3983  18.705   7.223   8.856  0.1376 -0.2964  0.1726
  249loPI   C4B 3984  18.559   7.283   8.381 -0.7088 -0.1964 -0.1439
  250loPI    C1 3985   2.600  16.545  11.407 -0.0293  0.0210 -0.2177
  250loPI    C2 3986   2.417  16.899  11.380 -0.2294 -0.0542  0.0939
  250loPI    C3 3987   2.599  16.794  11.720  0.3910  0.0121 -0.2033
  250loPI   PO4 3988   2.726  16.546  11.174  0.3221  0.0829  0.1211
  250loPI   GL1 3989   2.769  16.509  10.782  0.0367  0.1264  0.0864
  250loPI   GL2 3990   3.073  16.625  10.690  0.2660  0.0347 -0.1947
  250loPI   C1A 3991   2.500  16.475  10.421  0.0857  0.2100  0.2545
  250loPI   C2A 3992   2.609  16.441  10.043 -0.0057  0.0529  0.0492
  250loPI   C3A 3993   2.671  16.348   9.523  0.0406 -0.2381 -0.1444
  250loPI   C4A 3994   2.559  16.260   9.120  0.1971 -0.3387 -0.1932
  250loPI   C5A 3995   2.679  16.233   8.740 -0.0764 -0.0617  0.6775
  250loPI   C6A 3996   3.088  16.337   8.452  0.1706 -0.2021  0.3777
  250loPI   C1B 3997   3.120  16.591  10.233  0.0665  0.1452  0.1974
  250loPI   C2B 3998   3.035  16.586   9.832 -0.1048 -0.0744  0.2436
  250loPI   C3B 3999   3.136  16.531   9.345 -0.0905 -0.0779  0.2656
  250loPI   C4B 4000   3.066  16.492   8.928 -0.0466  0.0018  0.0616
  251loPI    C1 4001  12.663  10.480  10.196 -0.0613  0.2239  0.0544
  251loPI    C2 4002  12.673  10.393  10.586 -0.0304 -0.0366 -0.0024
  251loPI    C3 4003  12.928  10.661  10.435 -0.0684  0.0941  0.1621
  251loPI   PO4 4004  12.411  10.389  10.040  0.0364 -0.1923 -0.0939
  251loPI   GL1 4005  12.176  10.545   9.727  0.0344  0.0780  0.1419
  251loPI   GL2 4006  12.499  10.680   9.602  0.2496  0.1578 -0.1538
  251loPI   C1A 4007  12.249  10.340   9.338  0.0365 -0.2075 -0.0709
  251loPI   C2A 4008  12.318  10.183   8.891  0.0074  0.0032 -0.2496
  251loPI   C3A 4009  12.486  10.311   8.632  0.0552  0.0523 -0.0287
  251loPI   C4A 4010  12.450  10.318   8.178  0.1217  0.2039 -0.0472
  251loPI   C5A 4011  12.426  10.337   7.747 -0.2937  0.0787 -0.0384
  251loPI   C6A 4012  12.421  10.385   7.395  0.0491  0.1082 -0.3005
  251loPI   C1B 4013  12.381  10.819   9.214  0.0524  0.0657 -0.2131
  251loPI   C2B 4014  12.271  10.694   8.890  0.2821 -0.1051  0.0592
  251loPI   C3B 4015  12.091  10.717   8.367 -0.0144 -0.0151 -0.4082
  251loPI   C4B 4016  12.122  10.761   7.945  0.0838 -0.1049 -0.0651
  252loPI    C1 4017   9.447   8.682  10.077  0.1416  0.3147  0.1135
  252loPI    C2 4018   9.667   8.802  10.388  0.1381  0.0738  0.2108
  252loPI    C3 4019   9.449   8.468  10.414  0.1707  0.0282 -0.0652
  252loPI   PO4 4020   9.564   8.677   9.916  0.1510 -0.0511  0.0980
  252loPI   GL1 4021   9.656   8.783   9.480  0.0571 -0.3312  0.0538
  252loPI   GL2 4022   9.945   8.631   9.547  0.2644 -0.4118  0.2205
  252loPI   C1A 4023   9.418   8.846   9.098 -0.1074 -0.2187 -0.2232
  252loPI   C2A 4024   9.359   8.859   8.676  0.2660  0.1969 -0.0128
  252loPI   C3A 4025   9.210   8.996   8.278 -0.2905  0.1583  0.1290
  252loPI   C4A 4026   8.893   9.119   8.016  0.4635 -0.0682  0.1254
  252loPI   C5A 4027   8.514   9.331   7.960 -0.0799 -0.0761 -0.0070
  252loPI   C6A 4028   8.183   9.362   7.677 -0.1702  0.1208 -0.1572
  252loPI   C1B 4029   9.946   8.801   9.002  0.0166  0.6227 -0.0181
  252loPI   C2B 4030   9.937   8.807   8.582  0.1469  0.0816 -0.0044
  252loPI   C3B 4031   9.686   8.823   8.277 -0.1137 -0.1178 -0.1883
  252loPI   C4B 4032   9.557   8.811   7.917 -0.0848 -0.1291 -0.2244
  253loPI    C1 4033   0.042   1.904  10.709 -0.1309  0.1708 -0.0018
  253loPI    C2 4034  -0.040   1.518  10.775  0.1670  0.1229  0.1015
  253loPI    C3 4035   0.066   1.754  11.080  0.1188  0.2543  0.0171
  253loPI   PO4 4036  -0.079   1.962  10.455  0.2183  0.1639  0.0508
  253loPI   GL1 4037  -0.158   1.775  10.057 -0.1852 -0.1217 -0.2435
  253loPI   GL2 4038  -0.473   1.914   9.977  0.1227 -0.1051 -0.0932
  253loPI   C1A 4039  -0.186   1.772   9.598 -0.0972 -0.2272 -0.3725
  253loPI   C2A 4040  -0.043   1.734   9.149 -0.1534 -0.0433  0.0413
  253loPI   C3A 4041   0.011   1.650   8.730 -0.0740 -0.1604  0.0275
  253loPI   C4A 4042   0.081   1.724   8.267  0.0681 -0.0289  0.0191
  253loPI   C5A 4043   0.108   2.078   7.894 -0.1165 -0.2413 -0.2603
  253loPI   C6A 4044  -0.173   2.239   7.514 -0.1956 -0.1955 -0.2104
  253loPI   C1B 4045  -0.566   2.122   9.563  0.1241  0.3124 -0.0725
  253loPI   C2B 4046  -0.452   2.135   9.144 -0.3117 -0.0203  0.2323
  253loPI   C3B 4047  -0.429   1.926   8.813  0.0450  0.0573 -0.0111
  253loPI   C4B 4048  -0.430   2.038   8.357 -0.1142 -0.1494 -0.1312
  254loPI    C1 4049   5.652   2.385  11.121  0.1933 -0.2369  0.0029
  254loPI    C2 4050   6.015   2.324  11.279  0.3085  0.3725 -0.0009
  254loPI    C3 4051   5.748   2.552  11.471 -0.0117  0.0793 -0.0869
  254loPI   PO4 4052   5.694   2.305  10.851  0.0803 -0.0076 -0.1366
  254loPI   GL1 4053   5.891   2.362  10.460 -0.3743  0.1244 -0.1368
  254loPI   GL2 4054   5.564   2.575  10.466 -0.0091 -0.6496  0.1827
  254loPI   C1A 4055   5.955   2.298  10.006  0.1144 -0.1159 -0.2045
  254loPI   C2A 4056   5.953   2.213   9.586  0.1896  0.0370  0.1420
  254loPI   C3A 4057   5.864   2.154   9.211  0.0934 -0.0456  0.0392
  254loPI   C4A 4058   5.832   2.240   8.819  0.0348  0.0702  0.2112
  254loPI   C5A 4059   5.765   2.400   8.522 -0.1799  0.3619 -0.1433
  254loPI   C6A 4060   5.490   2.189   8.087 -0.1448 -0.0576 -0.0329
  254loPI   C1B 4061   5.532   2.605  10.043  0.1327 -0.4162  0.0610
  254loPI   C2B 4062   5.464   2.581   9.613  0.3364 -0.0758 -0.0461
  254loPI   C3B 4063   5.475   2.467   9.161  0.1689 -0.1202  0.0228
  254loPI   C4B 4064   5.417   2.649   8.815  0.1606  0.1130 -0.3517
  255loPI    C1 4065   1.548   7.264  10.852 -0.0521  0.0163  0.1311
  255loPI    C2 4066   1.794   7.561  10.958 -0.0586  0.0520  0.0466
  255loPI    C3 4067   1.655   7.308  11.235  0.1891 -0.0575  0.0740
  255loPI   PO4 4068   1.633   7.175  10.680  0.0624  0.3245 -0.0219
  255loPI   GL1 4069   1.612   7.211  10.260 -0.0785  0.3111  0.1864
  255loPI   GL2 4070   1.749   7.004  10.162  0.0314  0.0323 -0.0088
  255loPI   C1A 4071   1.528   7.292   9.790 -0.0001  0.0452  0.0165
  255loPI   C2A 4072   1.647   7.251   9.366  0.0442 -0.1515 -0.2288
  255loPI   C3A 4073   1.723   7.268   8.886 -0.0805 -0.0979  0.1020
  255loPI   C4A 4074   1.664   7.256   8.492  0.2645  0.2028  0.1254
  255loPI   C5A 4075   1.627   7.343   8.034 -0.1102  0.0658 -0.1352
  255loPI   C6A 4076   1.778   7.431   7.578  0.1036 -0.3332 -0.2885
  255loPI   C1B 4077   1.953   6.972   9.722 -0.0018  0.4308  0.0287
  255loPI   C2B 4078   2.026   6.858   9.296 -0.0208  0.1512 -0.0241
  255loPI   C3B 4079   2.128   6.949   8.854  0.3133  0.1666  0.3424
  255loPI   C4B 4080   2.083   6.928   8.401 -0.2553  0.2179 -0.0334
  256loPI    C1 4081  14.750  17.632  10.984 -0.0644  0.1173  0.0476
  256loPI    C2 4082  14.685  17.368  11.278 -0.4465 -0.0177 -0.1505
  256loPI    C3 4083  14.514  17.730  11.292  0.1691  0.2775  0.1788
  256loPI   PO4 4084  14.744  17.528  10.721  0.1383  0.2438 -0.0810
  256loPI   GL1 4085  14.666  17.234  10.423  0.0587  0.2474 -0.1532
  256loPI   GL2 4086  14.394  17.044  10.356 -0.0874 -0.2510  0.0686
  256loPI   C1A 4087  14.957  17.358  10.101  0.1011 -0.0402  0.0653
  256loPI   C2A 4088  15.022  17.457   9.662 -0.0636  0.1513 -0.2056
  256loPI   C3A 4089  15.045  17.398   9.207  0.0725  0.0140 -0.1486
  256loPI   C4A 4090  15.055  17.347   8.827 -0.0894 -0.2595 -0.2192
  256loPI   C5A 4091  15.126  17.497   8.412 -0.2225  0.1173 -0.1717
  256loPI   C6A 4092  14.925  17.646   8.103  0.0415 -0.1041 -0.0190
  256loPI   C1B 4093  14.498  17.265   9.903 -0.1865  0.2053 -0.3907
  256loPI   C2B 4094  14.561  17.281   9.536  0.0838 -0.0250 -0.2087
  256loPI   C3B 4095  14.625  17.182   9.130  0.0968  0.0423  0.1502
  256loPI   C4B 4096  14.523  17.206   8.732 -0.2576 -0.1226  0.1925
  257loPI    C1 4097  13.128   3.984   9.935  0.1228 -0.0811  0.1724
  257loPI    C2 4098  13.490   3.845   9.840  0.0386 -0.3835  0.2821
  257loPI    C3 4099  13.434   4.034  10.188  0.2908  0.5001 -0.1295
  257loPI   PO4 4100  13.050   4.046   9.758  0.0662 -0.1168  0.2451
  257loPI   GL1 4101  13.117   3.986   9.357  0.1171 -0.2486  0.1793
  257loPI   GL2 4102  13.535   3.877   9.322  0.0274 -0.0593 -0.2932
  257loPI   C1A 4103  12.950   4.021   9.023 -0.1625 -0.1696 -0.0803
  257loPI   C2A 4104  12.930   3.980   8.579  0.0410 -0.1569  0.3230
  257loPI   C3A 4105  12.859   4.021   8.177 -0.0139 -0.2330  0.0914
  257loPI   C4A 4106  12.880   4.011   7.831  0.2180 -0.2484  0.1238
  257loPI   C5A 4107  12.988   3.685   7.484  0.0491  0.1477  0.2705
  257loPI   C6A 4108  12.767   3.393   7.164 -0.0898  0.0723  0.1417
  257loPI   C1B 4109  13.440   3.870   8.869 -0.2529 -0.1576 -0.2976
  257loPI   C2B 4110  13.375   3.693   8.440 -0.3229  0.0319 -0.1161
  257loPI   C3B 4111  13.239   3.677   8.051  0.1513 -0.0404 -0.1429
  257loPI   C4B 4112  13.258   3.275   7.829  0.2520  0.0615 -0.2068
  258loPI    C1 4113  10.990   1.443  10.516 -0.1077 -0.1518  0.2081
  258loPI    C2 4114  10.981   1.539  10.905  0.0977  0.0781  0.1582
  258loPI    C3 4115  11.122   1.183  10.790  0.0916  0.0326  0.2905
  258loPI   PO4 4116  10.963   1.710  10.392  0.0390 -0.1142 -0.1376
  258loPI   GL1 4117  11.147   1.832   9.964  0.0560 -0.1059 -0.3153
  258loPI   GL2 4118  10.798   1.871   9.914  0.0252 -0.1065  0.2362
  258loPI   C1A 4119  11.241   1.506   9.722  0.0760  0.1102 -0.1251
  258loPI   C2A 4120  11.296   1.492   9.293 -0.2085 -0.2934 -0.1684
  258loPI   C3A 4121  11.264   1.419   8.961  0.1522 -0.2812  0.2232
  258loPI   C4A 4122  11.200   1.414   8.486  0.0002  0.2473 -0.1570
  258loPI   C5A 4123  11.213   1.439   8.047  0.1243  0.1050  0.1660
  258loPI   C6A 4124  11.091   1.291   7.539 -0.0262  0.0487 -0.1897
  258loPI   C1B 4125  10.901   1.775   9.447  0.0607  0.1067 -0.0052
  258loPI   C2B 4126  10.869   1.650   9.084 -0.0425 -0.1459  0.1187
  258loPI   C3B 4127  10.808   1.702   8.762 -0.1872 -0.3387  0.1239
  258loPI   C4B 4128  10.776   1.622   8.245  0.2940  0.2726  0.3109
  259loPI    C1 4129   4.936  13.769  10.949 -0.0664  0.0091 -0.0772
  259loPI    C2 4130   4.911  13.953  11.304 -0.4217 -0.0046 -0.0912
  259loPI    C3 4131   5.136  14.110  11.012  0.1393 -0.1656  0.2404
  259loPI   PO4 4132   4.602  13.687  10.916 -0.0528 -0.0450 -0.1142
  259loPI   GL1 4133   4.486  13.606  10.491  0.0774 -0.0172 -0.1834
  259loPI   GL2 4134   4.755  13.796  10.432  0.0378 -0.4394 -0.3811
  259loPI   C1A 4135   4.426  13.668  10.134 -0.1103 -0.0172  0.0346
  259loPI   C2A 4136   4.462  13.658   9.729 -0.0889  0.1368 -0.1545
  259loPI   C3A 4137   4.510  13.650   9.307 -0.2144 -0.0658 -0.0805
  259loPI   C4A 4138   4.487  13.617   8.901 -0.0781  0.1369  0.2214
  259loPI   C5A 4139   4.394  13.702   8.468 -0.1087  0.1214 -0.1213
  259loPI   C6A 4140   4.315  13.938   8.151 -0.0964  0.1211 -0.0661
  259loPI   C1B 4141   4.951  13.898   9.976  0.1962  0.0198  0.3180
  259loPI   C2B 4142   4.905  13.875   9.497 -0.1804 -0.4069 -0.1348
  259loPI   C3B 4143   4.936  13.890   9.064  0.1728 -0.0238 -0.0009
  259loPI   C4B 4144   4.918  13.767   8.651 -0.1007  0.2845  0.0167
  260loPI    C1 4145   4.034  14.181  11.051  0.0193 -0.1398  0.0872
  260loPI    C2 4146   4.389  14.195  11.234  0.0999  0.1129 -0.0835
  260loPI    C3 4147   4.085  13.998  11.403  0.3406 -0.1715  0.0272
  260loPI   PO4 4148   4.102  14.099  10.882 -0.2592  0.2382  0.2461
  260loPI   GL1 4149   4.302  14.064  10.513 -0.1303  0.1461 -0.1046
  260loPI   GL2 4150   4.552  14.221  10.253 -0.0563  0.3307  0.1148
  260loPI   C1A 4151   4.095  14.040  10.029  0.3348  0.1798  0.0685
  260loPI   C2A 4152   4.063  14.035   9.585 -0.1691 -0.1990  0.2266
  260loPI   C3A 4153   4.054  14.011   9.182  0.0134 -0.2257 -0.0928
  260loPI   C4A 4154   4.067  14.049   8.688  0.2750  0.2410  0.0383
  260loPI   C5A 4155   4.220  14.466   8.431  0.0126  0.2334  0.0900
  260loPI   C6A 4156   4.387  14.889   8.202 -0.0098  0.1489  0.1018
  260loPI   C1B 4157   4.547  14.161   9.772  0.0962  0.0275 -0.1079
  260loPI   C2B 4158   4.519  14.159   9.312 -0.1051 -0.1925  0.1527
  260loPI   C3B 4159   4.559  14.102   8.831 -0.1938 -0.1959 -0.1987
  260loPI   C4B 4160   4.652  14.183   8.382  0.2854 -0.1972 -0.0770
  261loPI    C1 4161   1.039  12.152  11.012 -0.0689  0.1064 -0.0341
  261loPI    C2 4162   0.993  11.858  11.278 -0.2220  0.1984  0.0430
  261loPI    C3 4163   1.269  12.141  11.339 -0.0658  0.0648 -0.0376
  261loPI   PO4 4164   1.017  11.993  10.654  0.3189  0.0856  0.2652
  261loPI   GL1 4165   0.818  11.867  10.255 -0.2099  0.1782  0.0430
  261loPI   GL2 4166   0.948  12.271  10.274  0.1506 -0.1200 -0.0312
  261loPI   C1A 4167   0.854  11.825   9.850 -0.2646  0.3632  0.0653
  261loPI   C2A 4168   0.953  11.762   9.470 -0.0600 -0.1933 -0.0220
  261loPI   C3A 4169   0.962  11.860   9.126 -0.2427 -0.0358  0.2200
  261loPI   C4A 4170   0.929  11.955   8.655 -0.5381  0.2390 -0.0939
  261loPI   C5A 4171   0.776  12.004   8.244  0.0858  0.1066 -0.1149
  261loPI   C6A 4172   0.427  12.219   8.081  0.2831 -0.4473  0.1615
  261loPI   C1B 4173   1.014  12.368   9.866  0.4483 -0.0043  0.0672
  261loPI   C2B 4174   1.047  12.312   9.519  0.1075  0.1931  0.2347
  261loPI   C3B 4175   0.969  12.330   9.049 -0.0048  0.1768 -0.1678
  261loPI   C4B 4176   1.004  12.416   8.643  0.0659 -0.2143 -0.0009
  262loPI    C1 4177  16.854  14.286  10.718 -0.0995  0.1807 -0.0215
  262loPI    C2 4178  16.542  14.309  10.967 -0.1144  0.2054 -0.0422
  262loPI    C3 4179  16.853  14.557  11.012  0.0604 -0.0488  0.1955
  262loPI   PO4 4180  16.710  14.152  10.505  0.0885  0.1542 -0.0057
  262loPI   GL1 4181  16.403  14.251  10.175  0.0874 -0.1589  0.1610
  262loPI   GL2 4182  16.732  14.121   9.980 -0.1340  0.0915  0.3430
  262loPI   C1A 4183  16.538  14.531   9.796  0.1406 -0.0619  0.0712
  262loPI   C2A 4184  16.470  14.525   9.397 -0.1198  0.0382  0.1514
  262loPI   C3A 4185  16.521  14.535   8.922 -0.3651 -0.1197 -0.0741
  262loPI   C4A 4186  16.566  14.610   8.575  0.1919  0.1036 -0.2430
  262loPI   C5A 4187  16.486  14.467   8.150  0.1086  0.0607 -0.1009
  262loPI   C6A 4188  16.684  14.098   8.077  0.0944  0.0069  0.1380
  262loPI   C1B 4189  16.867  14.186   9.575 -0.0471 -0.1549  0.1238
  262loPI   C2B 4190  16.897  14.222   9.201 -0.1310  0.1883 -0.0736
  262loPI   C3B 4191  16.891  14.282   8.778 -0.1046  0.2378  0.2333
  262loPI   C4B 4192  16.969  14.338   8.369 -0.1521  0.1550  0.1040
  263loPI    C1 4193   6.728   6.859  10.615  0.0885 -0.0803  0.1150
  263loPI    C2 4194   7.105   6.794  10.499  0.0145  0.0993 -0.2410
  263loPI    C3 4195   7.029   7.045  10.801  0.1911 -0.1115 -0.0182
  263loPI   PO4 4196   6.582   6.983  10.443 -0.0550 -0.1824 -0.1332
  263loPI   GL1 4197   6.907   6.989  10.046 -0.0528 -0.1059 -0.0144
  263loPI   GL2 4198   7.151   6.765   9.904  0.0199 -0.2885  0.2565
  263loPI   C1A 4199   6.651   6.947   9.628  0.2602 -0.2143 -0.0160
  263loPI   C2A 4200   6.261   7.173   9.414 -0.0497 -0.1031  0.1064
  263loPI   C3A 4201   6.141   7.255   8.994  0.0143  0.2463  0.0224
  263loPI   C4A 4202   6.155   7.392   8.641 -0.1732 -0.0488  0.2050
  263loPI   C5A 4203   6.152   7.213   8.264  0.1168  0.0717  0.1117
  263loPI   C6A 4204   6.158   7.075   7.896 -0.1197  0.4540  0.1626
  263loPI   C1B 4205   7.300   6.712   9.481  0.2885 -0.1821 -0.0974
  263loPI   C2B 4206   7.527   6.736   9.127 -0.0731  0.1914 -0.1498
  263loPI   C3B 4207   7.765   6.740   8.758  0.0908 -0.0333  0.1433
  263loPI   C4B 4208   7.768   6.741   8.307 -0.1662 -0.1557  0.1479
  264loPI    C1 4209  14.456   2.262  10.495  0.0316 -0.0572 -0.1864
  264loPI    C2 4210  14.152   2.522  10.477  0.0914  0.0238 -0.0386
  264loPI    C3 4211  14.485   2.616  10.678  0.2790  0.0001 -0.3330
  264loPI   PO4 4212  14.556   2.177  10.350  0.0016 -0.0252  0.2392
  264loPI   GL1 4213  14.331   2.159   9.981  0.0058  0.2680  0.0535
  264loPI   GL2 4214  14.306   1.811  10.066 -0.0174  0.3736 -0.0260
  264loPI   C1A 4215  14.226   2.083   9.551 -0.0632  0.0268 -0.0437
  264loPI   C2A 4216  14.186   2.083   9.165  0.3361  0.2890 -0.0128
  264loPI   C3A 4217  14.162   2.185   8.751 -0.0645  0.0469 -0.0858
  264loPI   C4A 4218  14.215   2.057   8.381 -0.1013  0.0537 -0.4239
  264loPI   C5A 4219  14.022   1.847   8.039  0.3778  0.0933 -0.2916
  264loPI   C6A 4220  14.075   1.378   7.788 -0.2345  0.1909 -0.0998
  264loPI   C1B 4221  14.215   1.625   9.653  0.3123 -0.2352  0.2235
  264loPI   C2B 4222  14.123   1.494   9.282 -0.1980  0.0655 -0.0120
  264loPI   C3B 4223  14.066   1.572   8.899 -0.0753  0.2211 -0.1930
  264loPI   C4B 4224  14.098   1.582   8.518 -0.1096 -0.0250 -0.1263
  265loPI    C1 4225   9.624  14.341  10.811 -0.2269  0.1020 -0.0424
  265loPI    C2 4226   9.778  14.174  11.141  0.1729  0.2204 -0.1634
  265loPI    C3 4227   9.389  14.129  11.056  0.0737  0.1566  0.3012
  265loPI   PO4 4228   9.679  14.555  10.802  0.2604 -0.0369  0.3800
  265loPI   GL1 4229   9.667  14.691  10.382 -0.2191 -0.3501  0.1041
  265loPI   GL2 4230   9.493  14.468  10.268  0.0883 -0.1014  0.1797
  265loPI   C1A 4231   9.619  14.823   9.930 -0.1826  0.2421 -0.0911
  265loPI   C2A 4232   9.689  14.788   9.509 -0.2670 -0.0927  0.4017
  265loPI   C3A 4233   9.619  14.797   9.031  0.1006 -0.2349  0.0317
  265loPI   C4A 4234   9.543  14.854   8.572 -0.3333  0.3695 -0.0892
  265loPI   C5A 4235   9.630  14.890   8.215  0.1702  0.0093  0.2983
  265loPI   C6A 4236   9.339  14.678   7.972  0.3502 -0.0230  0.0468
  265loPI   C1B 4237   9.592  14.350   9.770  0.0392 -0.1577 -0.1590
  265loPI   C2B 4238   9.597  14.273   9.308 -0.0514 -0.1075  0.1431
  265loPI   C3B 4239   9.531  14.320   8.879 -0.1196  0.1953 -0.0991
  265loPI   C4B 4240   9.585  14.167   8.518  0.3366 -0.0529 -0.0104
  266loPI    C1 4241   8.074   3.936  10.558  0.1294  0.0236 -0.1268
  266loPI    C2 4242   8.133   3.738  10.901 -0.0849  0.1109 -0.0379
  266loPI    C3 4243   8.381   4.034  10.795  0.1582 -0.1128 -0.1064
  266loPI   PO4 4244   8.054   3.815  10.375 -0.1554 -0.0725 -0.2595
  266loPI   GL1 4245   7.882   3.779  10.083 -0.1124 -0.2718 -0.1008
  266loPI   GL2 4246   7.691   3.837   9.954 -0.0649  0.0227 -0.2948
  266loPI   C1A 4247   7.960   3.529   9.683  0.0371  0.0303 -0.0665
  266loPI   C2A 4248   7.871   3.473   9.233  0.1903 -0.1766 -0.1695
  266loPI   C3A 4249   7.907   3.486   8.816  0.1474  0.0460 -0.2445
  266loPI   C4A 4250   7.855   3.459   8.378  0.1370 -0.0076  0.3143
  266loPI   C5A 4251   7.862   3.469   7.987  0.2506  0.0798 -0.0324
  266loPI   C6A 4252   7.868   3.916   7.715  0.0725  0.2810 -0.3141
  266loPI   C1B 4253   7.508   3.797   9.593  0.1176 -0.2676  0.0849
  266loPI   C2B 4254   7.491   3.920   9.193  0.0928 -0.1003  0.3491
  266loPI   C3B 4255   7.530   3.798   8.711 -0.1485  0.1882 -0.0883
  266loPI   C4B 4256   7.517   3.836   8.262 -0.1736 -0.0644  0.1536
  267loPI    C1 4257   7.008  14.420  11.026  0.0460 -0.1291  0.0833
  267loPI    C2 4258   7.272  14.677  11.181 -0.1372  0.1572 -0.0687
  267loPI    C3 4259   7.062  14.437  11.422 -0.0737  0.2566  0.0879
  267loPI   PO4 4260   7.044  14.307  10.824 -0.0525 -0.0083 -0.0882
  267loPI   GL1 4261   6.856  14.128  10.402  0.2805  0.0303 -0.0611
  267loPI   GL2 4262   6.643  13.959  10.300  0.1247  0.3146  0.1883
  267loPI   C1A 4263   6.890  14.130   9.852  0.5293 -0.1291 -0.3772
  267loPI   C2A 4264   6.749  14.125   9.368 -0.3374 -0.6254 -0.1564
  267loPI   C3A 4265   6.764  14.138   8.949  0.0199  0.0712  0.2490
  267loPI   C4A 4266   6.761  14.157   8.486 -0.0434 -0.0567 -0.0411
  267loPI   C5A 4267   6.566  14.166   8.103 -0.0353 -0.1360 -0.0176
  267loPI   C6A 4268   6.520  14.297   7.782  0.0979  0.2402 -0.1059
  267loPI   C1B 4269   6.387  13.866   9.954 -0.0460  0.0149  0.1194
  267loPI   C2B 4270   6.253  13.978   9.494 -0.0363  0.3259  0.0069
  267loPI   C3B 4271   6.287  13.980   9.056  0.1959 -0.1819  0.4160
  267loPI   C4B 4272   6.275  13.975   8.551 -0.0805 -0.1300 -0.0289
  268loPI    C1 4273   8.920   8.341  10.322 -0.2144  0.1001  0.2073
  268loPI    C2 4274   8.970   7.996  10.518  0.4302  0.1216  0.1038
  268loPI    C3 4275   9.012   8.344  10.712  0.2869  0.1440  0.0957
  268loPI   PO4 4276   9.030   8.348  10.177  0.2628  0.2017  0.4957
  268loPI   GL1 4277   9.111   8.427   9.790  0.2165  0.0877  0.2469
  268loPI   GL2 4278   8.784   8.289   9.707 -0.2389 -0.0848  0.2350
  268loPI   C1A 4279   9.090   8.578   9.384  0.3191  0.0533  0.2836
  268loPI   C2A 4280   9.011   8.590   8.969  0.0324 -0.1722  0.0860
  268loPI   C3A 4281   8.954   8.414   8.476 -0.0866  0.1711  0.0768
  268loPI   C4A 4282   8.974   8.108   8.102  0.1207  0.0893  0.2153
  268loPI   C5A 4283   8.818   8.157   7.694  0.1336  0.1686  0.0423
  268loPI   C6A 4284   8.861   7.929   7.323 -0.1209 -0.3202 -0.0404
  268loPI   C1B 4285   8.633   8.326   9.179  0.0270 -0.0105 -0.4978
  268loPI   C2B 4286   8.531   8.347   8.719 -0.2801 -0.2238  0.4455
  268loPI   C3B 4287   8.411   8.327   8.316  0.0139 -0.0873  0.1273
  268loPI   C4B 4288   8.328   8.201   7.930  0.1032  0.0291 -0.0499
  269loPI    C1 4289   9.310  14.920  11.219  0.1183  0.1061 -0.2136
  269loPI    C2 4290   9.496  14.569  11.266 -0.0048  0.0516 -0.1249
  269loPI    C3 4291   9.706  14.896  11.169  0.1569  0.0198  0.1090
  269loPI   PO4 4292   9.035  14.976  10.976  0.0510  0.0165  0.2450
  269loPI   GL1 4293   8.826  15.025  10.543  0.3050 -0.3548 -0.1205
  269loPI   GL2 4294   8.708  14.830  10.550 -0.1364  0.0910 -0.2146
  269loPI   C1A 4295   8.839  15.234  10.203 -0.0461  0.1180 -0.0699
  269loPI   C2A 4296   8.764  15.389   9.877 -0.0100  0.1645 -0.0723
  269loPI   C3A 4297   8.892  15.392   9.532 -0.4791  0.1985 -0.2622
  269loPI   C4A 4298   8.840  15.451   9.090  0.2306  0.1627 -0.0310
  269loPI   C5A 4299   8.788  15.407   8.708  0.1343  0.1000  0.2220
  269loPI   C6A 4300   8.621  15.447   8.343 -0.2109  0.0270  0.1015
  269loPI   C1B 4301   8.557  14.721  10.095 -0.1802 -0.1309 -0.1876
  269loPI   C2B 4302   8.694  14.883   9.795 -0.1148 -0.2628 -0.0893
  269loPI   C3B 4303   8.833  14.948   9.335 -0.0331  0.3000 -0.1833
  269loPI   C4B 4304   8.674  14.967   8.923 -0.0072 -0.1211  0.1612
  270loPI    C1 4305   2.876   5.525  10.403 -0.2103  0.0619  0.0952
  270loPI    C2 4306   2.913   5.723  10.748 -0.1961  0.0617  0.0938
  270loPI    C3 4307   3.138   5.826  10.435 -0.2466  0.0964  0.0688
  270loPI   PO4 4308   2.898   5.292  10.513  0.2820 -0.1870  0.3297
  270loPI   GL1 4309   2.988   4.821  10.322  0.0306  0.0105  0.2352
  270loPI   GL2 4310   3.075   5.085  10.128 -0.0482 -0.0191  0.2014
  270loPI   C1A 4311   2.945   4.462   9.894 -0.2874 -0.2157 -0.0350
  270loPI   C2A 4312   3.086   4.404   9.469  0.1286 -0.4052  0.2270
  270loPI   C3A 4313   3.064   4.390   9.016  0.3647 -0.0331 -0.4130
  270loPI   C4A 4314   3.061   4.412   8.598  0.0235  0.1993  0.0344
  270loPI   C5A 4315   2.790   4.341   8.381  0.1270  0.0078  0.0424
  270loPI   C6A 4316   2.565   4.041   8.162  0.3127 -0.4120 -0.0977
  270loPI   C1B 4317   2.983   4.945   9.732  0.1052 -0.1327 -0.2447
  270loPI   C2B 4318   3.090   4.905   9.294 -0.2382  0.2908 -0.0378
  270loPI   C3B 4319   3.041   4.837   8.865 -0.0512 -0.0131  0.0758
  270loPI   C4B 4320   3.156   4.906   8.445  0.5196  0.1595  0.2976
  271loPI    C1 4321   8.217  16.262  11.157  0.0860 -0.1198 -0.2320
  271loPI    C2 4322   8.344  16.508  11.444 -0.3520  0.0910 -0.2103
  271loPI    C3 4323   8.187  16.153  11.540 -0.0494 -0.0490 -0.2217
  271loPI   PO4 4324   8.064  16.444  10.963  0.0395  0.2496  0.2282
  271loPI   GL1 4325   7.851  16.330  10.583 -0.1703 -0.0548  0.3060
  271loPI   GL2 4326   7.564  16.282  10.490 -0.1198  0.1287 -0.1228
  271loPI   C1A 4327   7.899  16.057  10.226  0.2479  0.4465  0.0399
  271loPI   C2A 4328   8.000  15.966   9.821  0.1967 -0.2755  0.1357
  271loPI   C3A 4329   8.057  16.024   9.439 -0.0282 -0.1121  0.1053
  271loPI   C4A 4330   8.034  16.023   9.044 -0.1634 -0.2754  0.0146
  271loPI   C5A 4331   7.875  16.204   8.607 -0.1123  0.1061 -0.4512
  271loPI   C6A 4332   8.073  16.267   8.170 -0.0644 -0.1435  0.1272
  271loPI   C1B 4333   7.660  16.423  10.138  0.0873 -0.1990 -0.1061
  271loPI   C2B 4334   7.551  16.363   9.796  0.0006 -0.2373 -0.0644
  271loPI   C3B 4335   7.649  16.290   9.413 -0.4092 -0.5899  0.0164
  271loPI   C4B 4336   7.546  16.398   9.091  0.2073  0.2070  0.1195
  272loPI    C1 4337   3.421   8.385  10.540 -0.0128 -0.2770  0.1534
  272loPI    C2 4338   3.528   8.322  10.920  0.0187 -0.0863  0.1773
  272loPI    C3 4339   3.258   8.603  10.833  0.0665 -0.0786  0.0515
  272loPI   PO4 4340   3.371   8.130  10.465  0.3650  0.1885  0.3254
  272loPI   GL1 4341   3.103   7.985  10.168  0.0575  0.2384 -0.0099
  272loPI   GL2 4342   2.819   8.139  10.174  0.1382  0.3880  0.0616
  272loPI   C1A 4343   3.016   7.836   9.713  0.0981  0.0530  0.2599
  272loPI   C2A 4344   3.075   7.863   9.289 -0.0900  0.0539 -0.0853
  272loPI   C3A 4345   3.126   7.893   8.889  0.0943 -0.1594 -0.1330
  272loPI   C4A 4346   3.120   7.796   8.525  0.0626 -0.0145  0.3646
  272loPI   C5A 4347   2.934   7.939   8.114 -0.0061  0.1439  0.1388
  272loPI   C6A 4348   2.665   7.829   7.858  0.1209 -0.0058  0.0799
  272loPI   C1B 4349   2.650   8.142   9.838 -0.3137  0.2004 -0.2344
  272loPI   C2B 4350   2.641   8.119   9.462 -0.1477  0.2222  0.1080
  272loPI   C3B 4351   2.733   8.186   8.997 -0.2075 -0.1289  0.2465
  272loPI   C4B 4352   2.696   8.103   8.583 -0.0476  0.2664 -0.1484
  273loPI    C1 4353   6.705   2.923  11.373 -0.1391 -0.1208  0.2314
  273loPI    C2 4354   6.526   3.280  11.388  0.0082 -0.0262 -0.1465
  273loPI    C3 4355   6.334   2.954  11.519 -0.2427  0.1468 -0.0765
  273loPI   PO4 4356   6.804   2.902  11.088  0.0536 -0.0056  0.0657
  273loPI   GL1 4357   6.835   2.691  10.665  0.1476  0.1548  0.2542
  273loPI   GL2 4358   6.567   2.564  10.612  0.0147 -0.1056 -0.2522
  273loPI   C1A 4359   6.918   2.748  10.236  0.1622  0.0691 -0.0435
  273loPI   C2A 4360   6.800   2.744   9.857 -0.1466 -0.2126  0.0981
  273loPI   C3A 4361   6.773   2.589   9.405  0.1885 -0.0744  0.0077
  273loPI   C4A 4362   6.868   2.489   8.951  0.2282 -0.3748 -0.2494
  273loPI   C5A 4363   6.754   2.505   8.554 -0.0665 -0.2596 -0.2485
  273loPI   C6A 4364   6.741   2.399   8.227  0.0417  0.3980  0.3893
  273loPI   C1B 4365   6.419   2.496  10.201  0.1570 -0.1754  0.4784
  273loPI   C2B 4366   6.372   2.515   9.698  0.0832  0.1759 -0.0403
  273loPI   C3B 4367   6.302   2.401   9.268  0.1208 -0.6728 -0.4220
  273loPI   C4B 4368   6.332   2.379   8.808  0.1546  0.1618  0.1146
  274loPI    C1 4369  15.522  15.597  10.881 -0.2053 -0.1622 -0.0128
  274loPI    C2 4370  15.383  15.270  11.065  0.0248 -0.1981  0.1018
  274loPI    C3 4371  15.538  15.569  11.280  0.0514 -0.1247 -0.0184
  274loPI   PO4 4372  15.678  15.449  10.678 -0.1393  0.4373  0.4782
  274loPI   GL1 4373  15.964  15.558  10.329  0.0251  0.0265  0.1412
  274loPI   GL2 4374  16.322  15.758  10.331 -0.3167  0.0862  0.0626
  274loPI   C1A 4375  15.740  15.820   9.911 -0.0360  0.0622  0.1118
  274loPI   C2A 4376  15.735  15.736   9.462  0.1586  0.3674  0.1729
  274loPI   C3A 4377  15.800  15.694   8.992 -0.0188  0.0250 -0.0026
  274loPI   C4A 4378  15.790  15.705   8.593  0.0848 -0.0411  0.1216
  274loPI   C5A 4379  15.993  15.904   8.192  0.1066 -0.2804 -0.1841
  274loPI   C6A 4380  15.790  15.884   7.760  0.1993 -0.1455 -0.2737
  274loPI   C1B 4381  16.206  15.987   9.994  0.3433  0.1807 -0.3349
  274loPI   C2B 4382  16.269  16.016   9.548 -0.0359  0.1441 -0.3185
  274loPI   C3B 4383  16.299  15.922   9.067 -0.0372 -0.1301  0.0827
  274loPI   C4B 4384  16.338  15.942   8.671  0.2248  0.1624  0.0196
  275loPI    C1 4385  13.279  12.415  10.645 -0.1322  0.3527  0.1802
  275loPI    C2 4386  13.466  12.149  10.877  0.1085  0.0932 -0.2960
  275loPI    C3 4387  13.280  12.462  11.042  0.2224 -0.1115  0.2429
  275loPI   PO4 4388  13.178  12.303  10.417  0.1207  0.1354  0.0634
  275loPI   GL1 4389  13.122  12.055  10.071  0.3970  0.0801  0.2749
  275loPI   GL2 4390  13.375  12.119   9.925 -0.1047 -0.0696 -0.2049
  275loPI   C1A 4391  12.922  12.019   9.706 -0.1083 -0.4287 -0.2731
  275loPI   C2A 4392  12.874  12.064   9.233 -0.3329 -0.0274 -0.0740
  275loPI   C3A 4393  12.809  12.260   8.824 -0.0250  0.1435  0.0276
  275loPI   C4A 4394  12.559  12.173   8.429  0.0470 -0.2241 -0.1409
  275loPI   C5A 4395  12.344  12.181   7.981  0.0003 -0.3702 -0.2181
  275loPI   C6A 4396  12.134  12.432   7.703 -0.0251 -0.3391  0.0422
  275loPI   C1B 4397  13.382  12.211   9.517 -0.1223  0.1271 -0.1701
  275loPI   C2B 4398  13.472  12.290   9.143  0.1080  0.1435 -0.1494
  275loPI   C3B 4399  13.459  12.380   8.773  0.0352  0.2152 -0.0723
  275loPI   C4B 4400  13.146  12.270   8.455 -0.0697  0.0123 -0.0450
  276loPI    C1 4401  12.412  14.503  10.919 -0.1770 -0.1843 -0.2162
  276loPI    C2 4402  12.643  14.221  11.083  0.0001 -0.0151 -0.1703
  276loPI    C3 4403  12.346  14.385  11.296 -0.0563 -0.1132 -0.1723
  276loPI   PO4 4404  12.416  14.470  10.680 -0.1705  0.2763 -0.0105
  276loPI   GL1 4405  12.382  14.564  10.277  0.0332  0.2983  0.4444
  276loPI   GL2 4406  12.368  14.869  10.372 -0.1402 -0.2488 -0.0696
  276loPI   C1A 4407  12.220  14.361   9.860  0.0753 -0.1479 -0.0757
  276loPI   C2A 4408  12.281  14.305   9.457 -0.0594 -0.2596 -0.1530
  276loPI   C3A 4409  12.387  14.370   9.116  0.0339 -0.0292  0.3269
  276loPI   C4A 4410  12.409  14.505   8.619 -0.0512  0.0738 -0.1579
  276loPI   C5A 4411  12.388  14.574   8.150 -0.0226 -0.0106 -0.2967
  276loPI   C6A 4412  12.218  14.619   7.738 -0.2613  0.2228 -0.0998
  276loPI   C1B 4413  12.436  14.922   9.868 -0.1146  0.1487  0.1580
  276loPI   C2B 4414  12.474  14.927   9.420  0.0549 -0.1702  0.2022
  276loPI   C3B 4415  12.447  14.943   8.931 -0.0215 -0.0790  0.4302
  276loPI   C4B 4416  12.188  14.945   8.539 -0.2074  0.1733 -0.3957
  277loPI    C1 4417   0.929   8.716  10.406 -0.0664 -0.0439 -0.1324
  277loPI    C2 4418   0.971   8.369  10.211 -0.2092 -0.1181 -0.0336
  277loPI    C3 4419   1.062   8.393  10.600 -0.0418 -0.0015 -0.0784
  277loPI   PO4 4420   1.050   8.885  10.156 -0.1536 -0.2735  0.1759
  277loPI   GL1 4421   1.144   8.930   9.686 -0.0893  0.0336  0.0635
  277loPI   GL2 4422   0.888   9.027   9.559 -0.2990 -0.0432 -0.1121
  277loPI   C1A 4423   1.422   9.072   9.497  0.2921  0.1475 -0.2288
  277loPI   C2A 4424   1.495   9.212   9.107 -0.0151  0.5007 -0.1076
  277loPI   C3A 4425   1.402   9.215   8.694 -0.0096 -0.0633  0.0484
  277loPI   C4A 4426   1.512   9.208   8.228  0.3143 -0.2483 -0.0467
  277loPI   C5A 4427   1.437   9.339   7.882 -0.1176  0.0687 -0.0335
  277loPI   C6A 4428   1.200   9.647   7.598  0.0581 -0.4217  0.0401
  277loPI   C1B 4429   1.023   8.982   9.156  0.1206  0.0093  0.1470
  277loPI   C2B 4430   0.971   8.992   8.759 -0.1562  0.0233 -0.1027
  277loPI   C3B 4431   1.050   8.910   8.376  0.0649 -0.4191  0.0205
  277loPI   C4B 4432   0.956   9.137   7.924 -0.1601 -0.0948  0.4120
  278loPI    C1 4433  11.928  12.560  10.676 -0.2461  0.0866  0.0648
  278loPI    C2 4434  12.016  12.394  11.029 -0.1527  0.0157  0.0088
  278loPI    C3 4435  11.978  12.164  10.704 -0.2821  0.0760 -0.0195
  278loPI   PO4 4436  11.701  12.767  10.627  0.0811  0.1496 -0.0572
  278loPI   GL1 4437  11.521  12.979  10.271 -0.0541 -0.0199 -0.0890
  278loPI   GL2 4438  11.493  12.757  10.155 -0.1080  0.1211 -0.0963
  278loPI   C1A 4439  11.582  13.082   9.785  0.0667 -0.0977 -0.1559
  278loPI   C2A 4440  11.440  13.180   9.408  0.1691 -0.3025  0.0038
  278loPI   C3A 4441  11.583  13.274   9.122  0.3338  0.0872  0.0349
  278loPI   C4A 4442  11.603  13.137   8.712  0.3590  0.1702 -0.0003
  278loPI   C5A 4443  11.668  13.432   8.497  0.0106 -0.1266 -0.3737
  278loPI   C6A 4444  11.562  13.579   8.100  0.3019 -0.3553 -0.0109
  278loPI   C1B 4445  11.117  12.883   9.947 -0.3809  0.3233  0.4410
  278loPI   C2B 4446  11.009  12.802   9.601  0.0337 -0.0576 -0.1815
  278loPI   C3B 4447  10.911  13.096   9.288 -0.0029  0.3127  0.0221
  278loPI   C4B 4448  10.849  13.409   9.055 -0.0096 -0.0154 -0.0681
  279loPI    C1 4449  11.120   3.352  10.193 -0.0890  0.0192 -0.1274
  279loPI    C2 4450  11.027   3.560  10.522  0.1533 -0.1135  0.0272
  279loPI    C3 4451  11.318   3.689  10.279 -0.0062 -0.0306 -0.1216
  279loPI   PO4 4452  10.850   3.289  10.100  0.0778 -0.2838  0.1709
  279loPI   GL1 4453  10.480   3.397   9.842 -0.2086  0.1289 -0.2428
  279loPI   GL2 4454  10.591   3.687   9.727  0.0046 -0.0594 -0.0488
  279loPI   C1A 4455  10.194   3.083   9.558 -0.2562 -0.0820  0.1040
  279loPI   C2A 4456  10.128   2.829   9.175  0.2497  0.0364  0.1819
  279loPI   C3A 4457  10.052   2.918   8.829  0.0428 -0.0538 -0.0295
  279loPI   C4A 4458  10.027   2.845   8.449 -0.1128 -0.3715 -0.2762
  279loPI   C5A 4459   9.928   2.819   8.034 -0.0176 -0.1084 -0.0595
  279loPI   C6A 4460  10.192   2.715   7.712 -0.1858  0.0499  0.2529
  279loPI   C1B 4461  10.662   3.727   9.305 -0.0657  0.2877  0.2504
  279loPI   C2B 4462  10.567   3.667   8.844  0.0505 -0.0286 -0.3228
  279loPI   C3B 4463  10.536   3.560   8.418 -0.1032 -0.0294 -0.0476
  279loPI   C4B 4464  10.585   3.447   7.989  0.3049 -0.1985 -0.1334
  280loPI    C1 4465  13.081   9.887  10.036 -0.0260  0.0977 -0.1157
  280loPI    C2 4466  13.018  10.091  10.374  0.1779  0.0702 -0.0598
  280loPI    C3 4467  13.091   9.698  10.388 -0.3461 -0.0384 -0.1767
  280loPI   PO4 4468  13.275  10.092   9.957  0.2394 -0.0290 -0.3237
  280loPI   GL1 4469  13.376  10.450   9.740 -0.2367  0.0248  0.0709
  280loPI   GL2 4470  13.587  10.723   9.808  0.0051 -0.3372 -0.2047
  280loPI   C1A 4471  13.317  10.282   9.352 -0.0463  0.0148 -0.1086
  280loPI   C2A 4472  13.464  10.252   8.953  0.1190 -0.0630  0.1655
  280loPI   C3A 4473  13.480  10.223   8.601 -0.2782 -0.4008  0.0303
  280loPI   C4A 4474  13.629  10.430   8.199 -0.1695 -0.0169  0.0648
  280loPI   C5A 4475  13.511  10.680   7.827 -0.0142  0.1437 -0.1256
  280loPI   C6A 4476  13.080  10.893   7.739  0.0946 -0.0209 -0.0415
  280loPI   C1B 4477  13.373  10.771   9.373 -0.0437 -0.1119 -0.1548
  280loPI   C2B 4478  13.310  10.742   8.984 -0.2966  0.1270  0.1688
  280loPI   C3B 4479  13.227  10.792   8.595  0.3520 -0.0380 -0.0225
  280loPI   C4B 4480  13.269  10.811   8.266 -0.2009  0.2166  0.1701
  281loPI    C1 4481   1.587   4.088  11.179 -0.1064  0.1074 -0.0340
  281loPI    C2 4482   1.280   4.339  11.230 -0.0728  0.1626 -0.1018
  281loPI    C3 4483   1.607   4.375  11.456 -0.1206  0.0964 -0.0216
  281loPI   PO4 4484   1.598   4.007  10.895  0.0811 -0.3026 -0.3186
  281loPI   GL1 4485   1.564   4.164  10.407  0.0690 -0.2053  0.2940
  281loPI   GL2 4486   1.463   3.858  10.324 -0.1477 -0.0894  0.1935
  281loPI   C1A 4487   1.622   4.385   9.972  0.0746  0.1770 -0.0097
  281loPI   C2A 4488   1.580   4.313   9.530 -0.0330 -0.3710 -0.3982
  281loPI   C3A 4489   1.572   4.362   9.136 -0.0491 -0.1762 -0.0680
  281loPI   C4A 4490   1.669   4.302   8.722  0.0453 -0.2578 -0.0548
  281loPI   C5A 4491   1.730   4.370   8.381  0.1434 -0.0969 -0.1102
  281loPI   C6A 4492   1.697   4.238   7.921 -0.0238  0.0240  0.2019
  281loPI   C1B 4493   1.529   3.829   9.926 -0.1167 -0.0818  0.1703
  281loPI   C2B 4494   1.529   3.843   9.532 -0.0173 -0.1402 -0.1530
  281loPI   C3B 4495   1.643   3.905   9.047 -0.1676  0.0803  0.2427
  281loPI   C4B 4496   1.643   3.811   8.601  0.0398 -0.3412  0.0917
  282loPI    C1 4497   3.922  18.135  11.358 -0.2873 -0.0698 -0.0609
  282loPI    C2 4498   4.175  18.339  11.591 -0.2012 -0.1139 -0.1154
  282loPI    C3 4499   3.900  18.099  11.756 -0.2101 -0.0633 -0.0561
  282loPI   PO4 4500   3.997  18.278  11.143  0.3231 -0.2561  0.3576
  282loPI   GL1 4501   3.734  18.557  10.850  0.1508  0.4454 -0.0865
  282loPI   GL2 4502   4.032  18.804  10.770 -0.3335  0.0560  0.0746
  282loPI   C1A 4503   3.718  18.397  10.394 -0.0404 -0.2106  0.1777
  282loPI   C2A 4504   3.728  18.326  10.002 -0.2237  0.0173 -0.1760
  282loPI   C3A 4505   3.715  18.328   9.532 -0.1082 -0.0543 -0.1561
  282loPI   C4A 4506   3.770  18.179   9.059  0.2074 -0.3494 -0.3058
  282loPI   C5A 4507   3.841  18.240   8.687 -0.0570  0.0622 -0.1156
  282loPI   C6A 4508   4.126  17.971   8.477  0.1388 -0.1488  0.1381
  282loPI   C1B 4509   4.193  18.592  10.315 -0.2554  0.0578  0.2632
  282loPI   C2B 4510   4.179  18.527   9.851  0.2827 -0.0966  0.0423
  282loPI   C3B 4511   4.181  18.451   9.361 -0.0304  0.0519  0.3974
  282loPI   C4B 4512   4.276  18.524   8.921 -0.0597 -0.1257 -0.1694
  283loPI    C1 4513  16.243   7.527  10.381  0.0670  0.1215  0.1321
  283loPI    C2 4514  16.387   7.342  10.705 -0.0464 -0.0886  0.0649
  283loPI    C3 4515  16.229   7.708  10.737  0.0803 -0.0460  0.2189
  283loPI   PO4 4516  16.490   7.461  10.199 -0.1665 -0.2103  0.1752
  283loPI   GL1 4517  16.594   7.285   9.742 -0.1808 -0.0393  0.0416
  283loPI   GL2 4518  16.323   7.131   9.665  0.0701 -0.1641 -0.0063
  283loPI   C1A 4519  16.855   7.191   9.339  0.1293 -0.3551  0.2919
  283loPI   C2A 4520  16.811   6.958   8.970 -0.0810  0.5304  0.1650
  283loPI   C3A 4521  16.890   6.950   8.627 -0.0949 -0.1101 -0.1789
  283loPI   C4A 4522  16.948   6.966   8.183  0.2381  0.1065  0.0864
  283loPI   C5A 4523  16.937   6.814   7.804  0.2116  0.2318  0.0527
  283loPI   C6A 4524  16.748   6.824   7.405  0.1216  0.0151 -0.2166
  283loPI   C1B 4525  16.352   7.137   9.217 -0.2602  0.2546  0.0807
  283loPI   C2B 4526  16.338   7.156   8.789 -0.0291  0.1084 -0.3888
  283loPI   C3B 4527  16.551   7.226   8.374 -0.2128  0.2633 -0.0396
  283loPI   C4B 4528  16.577   7.140   7.917  0.0132  0.2694  0.0975
  284loPI    C1 4529   7.490  14.011  10.706 -0.0143  0.0576 -0.0409
  284loPI    C2 4530   7.563  14.299  10.974  0.2068 -0.1120  0.0848
  284loPI    C3 4531   7.356  13.974  11.081 -0.1488  0.0503 -0.0889
  284loPI   PO4 4532   7.362  14.095  10.527 -0.1009  0.0896  0.0610
  284loPI   GL1 4533   7.337  14.297  10.178 -0.2594  0.0837  0.1577
  284loPI   GL2 4534   7.595  14.425  10.172 -0.1728 -0.2258 -0.0800
  284loPI   C1A 4535   7.366  14.270   9.697  0.1544 -0.0981  0.1399
  284loPI   C2A 4536   7.413  14.358   9.317 -0.1744 -0.2018  0.3512
  284loPI   C3A 4537   7.268  14.313   8.848  0.0685 -0.3202 -0.0221
  284loPI   C4A 4538   7.391  14.420   8.410  0.2122 -0.2196  0.1096
  284loPI   C5A 4539   7.353  14.603   7.954  0.1478  0.0032  0.3977
  284loPI   C6A 4540   7.500  14.436   7.524  0.0710  0.1268 -0.1753
  284loPI   C1B 4541   7.796  14.557   9.837  0.0111 -0.3010 -0.0371
  284loPI   C2B 4542   7.840  14.509   9.553  0.1061  0.3414  0.0917
  284loPI   C3B 4543   7.790  14.659   9.125  0.3037  0.2912 -0.2062
  284loPI   C4B 4544   7.744  14.620   8.708  0.0916  0.2633 -0.3301
  285loPI    C1 4545  17.546   2.716  10.831  0.1276 -0.0543  0.1389
  285loPI    C2 4546  17.231   2.865  11.028  0.0080  0.1097 -0.1685
  285loPI    C3 4547  17.314   2.474  11.050 -0.1443  0.0857  0.0116
  285loPI   PO4 4548  17.432   2.826  10.519  0.0977  0.1342 -0.1405
  285loPI   GL1 4549  17.545   2.834  10.142 -0.1257  0.2713 -0.1396
  285loPI   GL2 4550  17.445   3.052  10.083  0.0688 -0.2354  0.2400
  285loPI   C1A 4551  17.756   2.659   9.835  0.1756  0.0558 -0.1211
  285loPI   C2A 4552  17.927   2.621   9.420 -0.1159 -0.0162 -0.0235
  285loPI   C3A 4553  18.105   2.614   9.032 -0.1110 -0.2757  0.3315
  285loPI   C4A 4554  18.127   2.486   8.690  0.0226 -0.0920 -0.1699
  285loPI   C5A 4555  18.078   2.517   8.275  0.0573  0.0184 -0.1399
  285loPI   C6A 4556  18.231   2.572   7.895 -0.3393 -0.3879 -0.0134
  285loPI   C1B 4557  17.437   2.971   9.671  0.1754 -0.0326 -0.0765
  285loPI   C2B 4558  17.540   2.919   9.251 -0.0285 -0.1248  0.0186
  285loPI   C3B 4559  17.608   2.869   8.845  0.0719  0.1954  0.3697
  285loPI   C4B 4560  17.741   2.859   8.429 -0.0478 -0.1160 -0.0095
  286loPI    C1 4561   3.195   9.882  10.513  0.2387 -0.0770  0.0765
  286loPI    C2 4562   3.089   9.840  10.896  0.3151  0.2450  0.1358
  286loPI    C3 4563   3.322  10.145  10.785  0.1427  0.2601 -0.1975
  286loPI   PO4 4564   2.998   9.745  10.332 -0.4002  0.1776  0.2757
  286loPI   GL1 4565   2.992   9.637   9.940  0.0222  0.0472 -0.5376
  286loPI   GL2 4566   3.384   9.458   9.838 -0.1752  0.1158  0.1418
  286loPI   C1A 4567   2.881   9.787   9.610  0.1829 -0.2986  0.3082
  286loPI   C2A 4568   2.940   9.794   9.133  0.2344  0.0496  0.0022
  286loPI   C3A 4569   2.975   9.736   8.723 -0.2208 -0.0823  0.3789
  286loPI   C4A 4570   3.033   9.833   8.284 -0.0793 -0.2112 -0.0238
  286loPI   C5A 4571   2.859   9.920   7.972  0.3765 -0.1280 -0.3077
  286loPI   C6A 4572   2.660  10.409   7.900  0.1294  0.2136  0.1455
  286loPI   C1B 4573   3.329   9.448   9.371 -0.1264 -0.1531  0.0822
  286loPI   C2B 4574   3.375   9.510   8.889 -0.2199  0.3668 -0.0202
  286loPI   C3B 4575   3.277   9.411   8.371 -0.0773  0.2516  0.1583
  286loPI   C4B 4576   2.925   9.325   8.103 -0.0884 -0.1963 -0.5842
  287loPI    C1 4577   4.385   7.711  10.469 -0.0617 -0.0590 -0.1730
  287loPI    C2 4578   4.248   7.875  10.807  0.2148  0.1175 -0.1438
  287loPI    C3 4579   4.209   7.482  10.745 -0.2067  0.1472 -0.0915
  287loPI   PO4 4580   4.286   7.755  10.336 -0.0277 -0.0493  0.5616
  287loPI   GL1 4581   3.902   7.841  10.041 -0.0533  0.3335  0.2936
  287loPI   GL2 4582   3.757   8.021   9.940  0.1610 -0.0101 -0.2147
  287loPI   C1A 4583   3.990   7.687   9.658 -0.4868 -0.0006 -0.3627
  287loPI   C2A 4584   3.982   7.762   9.284  0.4648  0.3655  0.1395
  287loPI   C3A 4585   3.963   7.740   8.958 -0.0329 -0.0446  0.2678
  287loPI   C4A 4586   3.952   7.799   8.468 -0.2032 -0.0284  0.0423
  287loPI   C5A 4587   3.929   7.681   8.028  0.1035  0.1253 -0.1288
  287loPI   C6A 4588   4.011   7.613   7.630  0.0626  0.1719 -0.0976
  287loPI   C1B 4589   3.675   8.073   9.500 -0.2125  0.0126  0.0579
  287loPI   C2B 4590   3.683   8.136   9.004 -0.0935 -0.1180  0.1988
  287loPI   C3B 4591   3.546   8.043   8.580 -0.1584 -0.0716 -0.1772
  287loPI   C4B 4592   3.481   8.005   8.174  0.0885  0.2310  0.2910
  288loPI    C1 4593  14.854   9.636   9.866  0.0553 -0.0498 -0.0163
  288loPI    C2 4594  15.025   9.283   9.946 -0.1278 -0.1057  0.1330
  288loPI    C3 4595  14.852   9.493  10.239 -0.0318  0.1029  0.0422
  288loPI   PO4 4596  14.693   9.545   9.649  0.2461 -0.4373 -0.0594
  288loPI   GL1 4597  14.483   9.628   9.367 -0.1657  0.0180 -0.0842
  288loPI   GL2 4598  14.641   9.587   9.151  0.2804 -0.0620 -0.0448
  288loPI   C1A 4599  14.110   9.676   9.023 -0.0488 -0.0726  0.0752
  288loPI   C2A 4600  14.230   9.636   8.519 -0.3130  0.2036  0.2967
  288loPI   C3A 4601  14.406   9.718   8.122  0.2037 -0.1677  0.1153
  288loPI   C4A 4602  14.551   9.730   7.781 -0.0307 -0.0086 -0.0036
  288loPI   C5A 4603  14.529   9.944   7.412 -0.1158  0.2678 -0.2044
  288loPI   C6A 4604  14.621   9.832   7.015 -0.2252  0.1029  0.0025
  288loPI   C1B 4605  14.654   9.591   8.781  0.1168 -0.0097  0.2120
  288loPI   C2B 4606  14.732   9.503   8.382  0.1690 -0.1220 -0.0559
  288loPI   C3B 4607  14.907   9.432   8.069 -0.1687  0.0039 -0.2291
  288loPI   C4B 4608  15.076   9.313   7.770 -0.1588 -0.1140 -0.3144
  289loPI    C1 4609   8.358   2.132  11.266  0.0869 -0.1147 -0.3056
  289loPI    C2 4610   8.182   1.834  11.467 -0.0577  0.0856 -0.1289
  289loPI    C3 4611   8.065   2.211  11.527  0.1459  0.1828 -0.3259
  289loPI   PO4 4612   8.303   2.203  10.997 -0.3348  0.0974  0.0380
  289loPI   GL1 4613   8.210   2.214  10.583  0.0353 -0.0440  0.2868
  289loPI   GL2 4614   8.258   2.486  10.506  0.3970 -0.3065  0.0830
  289loPI   C1A 4615   8.227   2.170  10.136 -0.1186  0.0951 -0.3588
  289loPI   C2A 4616   8.148   2.199   9.732  0.1778 -0.0259  0.0422
  289loPI   C3A 4617   8.196   2.062   9.293  0.3006 -0.0977  0.0096
  289loPI   C4A 4618   8.218   2.164   8.897 -0.2478  0.1824 -0.4646
  289loPI   C5A 4619   8.096   2.093   8.490  0.3470  0.2347 -0.1273
  289loPI   C6A 4620   8.310   1.869   8.119  0.1097 -0.2102 -0.4920
  289loPI   C1B 4621   7.963   2.666  10.249  0.3048 -0.3744 -0.2191
  289loPI   C2B 4622   7.794   2.590   9.790 -0.1620  0.1293 -0.2448
  289loPI   C3B 4623   7.797   2.485   9.370  0.0781  0.1398 -0.1556
  289loPI   C4B 4624   7.821   2.426   8.944 -0.1554 -0.2916  0.3215
  290loPI    C1 4625   2.765  17.173  11.156  0.0017 -0.1487 -0.1893
  290loPI    C2 4626   2.937  16.987  11.465 -0.0056 -0.0783 -0.1425
  290loPI    C3 4627   2.821  17.368  11.501 -0.2348 -0.1460 -0.1510
  290loPI   PO4 4628   2.921  17.058  10.929 -0.0152  0.1796 -0.3048
  290loPI   GL1 4629   2.743  17.018  10.480 -0.0734  0.1551 -0.1941
  290loPI   GL2 4630   2.738  17.329  10.522 -0.0251 -0.1579 -0.0537
  290loPI   C1A 4631   2.673  16.908  10.004  0.0926 -0.0616 -0.2113
  290loPI   C2A 4632   2.658  16.876   9.608 -0.0749 -0.1247  0.1081
  290loPI   C3A 4633   2.708  16.741   9.201 -0.1786 -0.0894  0.1098
  290loPI   C4A 4634   2.596  16.700   8.795  0.2434  0.2308 -0.1138
  290loPI   C5A 4635   2.292  16.492   8.528 -0.2847  0.2751 -0.3963
  290loPI   C6A 4636   2.256  16.398   8.100 -0.1926 -0.0605  0.2857
  290loPI   C1B 4637   2.745  17.431  10.020 -0.0005 -0.1582  0.0611
  290loPI   C2B 4638   2.791  17.330   9.580  0.2611 -0.1611 -0.0215
  290loPI   C3B 4639   2.720  17.310   9.088 -0.0368 -0.1226  0.0933
  290loPI   C4B 4640   2.846  17.331   8.713 -0.3048 -0.2867  0.0669
  291loPI    C1 4641  12.240   8.431  10.133 -0.4630 -0.0811 -0.1831
  291loPI    C2 4642  12.075   8.685  10.395  0.0165  0.0308  0.0206
  291loPI    C3 4643  12.318   8.393  10.523  0.0145 -0.1042 -0.2742
  291loPI   PO4 4644  12.329   8.548   9.884  0.4827 -0.1510 -0.1594
  291loPI   GL1 4645  12.458   8.488   9.498 -0.2352 -0.0442 -0.2591
  291loPI   GL2 4646  12.456   8.870   9.494 -0.1479 -0.0855  0.2933
  291loPI   C1A 4647  12.249   8.412   9.137  0.1333 -0.2566 -0.0325
  291loPI   C2A 4648  11.974   8.551   8.813  0.3156  0.1515 -0.1526
  291loPI   C3A 4649  11.787   8.447   8.369  0.1300  0.0233 -0.3354
  291loPI   C4A 4650  11.600   8.509   7.835 -0.0561  0.0980  0.1414
  291loPI   C5A 4651  11.563   8.438   7.434 -0.1312 -0.1656  0.2345
  291loPI   C6A 4652  11.726   8.362   6.980 -0.2081  0.1342  0.3630
  291loPI   C1B 4653  12.279   8.919   9.006 -0.2822  0.0232 -0.2051
  291loPI   C2B 4654  12.359   8.970   8.628  0.2964  0.1151  0.0727
  291loPI   C3B 4655  12.223   8.989   8.191  0.1723  0.1421 -0.1916
  291loPI   C4B 4656  12.027   8.738   7.804 -0.0134 -0.0086  0.1652
  292loPI    C1 4657  11.398   5.382  10.023  0.1227 -0.1841 -0.0935
  292loPI    C2 4658  11.795   5.386   9.970  0.1376 -0.0561  0.0200
  292loPI    C3 4659  11.629   5.611  10.256 -0.0407  0.0825 -0.1887
  292loPI   PO4 4660  11.288   5.314   9.847 -0.1032  0.0216 -0.3123
  292loPI   GL1 4661  11.194   5.449   9.475 -0.0723  0.1061  0.1140
  292loPI   GL2 4662  10.933   5.378   9.353 -0.1495  0.2555 -0.0115
  292loPI   C1A 4663  11.361   5.617   9.133 -0.1092  0.1829 -0.1754
  292loPI   C2A 4664  11.405   5.521   8.734 -0.1378 -0.1557  0.0465
  292loPI   C3A 4665  11.681   5.545   8.292 -0.0138  0.1365 -0.4738
  292loPI   C4A 4666  11.894   5.507   7.862 -0.2174 -0.1194  0.1977
  292loPI   C5A 4667  11.875   5.442   7.438  0.0850 -0.2232 -0.0901
  292loPI   C6A 4668  12.036   5.377   7.138  0.2323  0.0157 -0.2591
  292loPI   C1B 4669  10.876   5.305   9.007  0.0094  0.1519 -0.2332
  292loPI   C2B 4670  10.993   5.264   8.648 -0.0969  0.0341  0.0473
  292loPI   C3B 4671  11.196   5.250   8.193 -0.2253 -0.0743 -0.0547
  292loPI   C4B 4672  11.417   5.493   7.857  0.2353  0.2365  0.2083
  293loPI    C1 4673   8.723   2.013  10.916  0.1575 -0.0575 -0.0522
  293loPI    C2 4674   9.088   2.173  10.938 -0.0047  0.3051  0.0878
  293loPI    C3 4675   8.786   2.338  11.140 -0.2011 -0.1273  0.1572
  293loPI   PO4 4676   8.683   1.986  10.729 -0.0807  0.2954  0.0004
  293loPI   GL1 4677   8.534   1.868  10.356  0.0806 -0.0729  0.1204
  293loPI   GL2 4678   8.344   1.573  10.330  0.0068 -0.1072  0.2000
  293loPI   C1A 4679   8.583   1.834   9.916 -0.3164 -0.0154 -0.3128
  293loPI   C2A 4680   8.539   1.814   9.486  0.0390  0.2529 -0.1098
  293loPI   C3A 4681   8.609   1.837   9.109 -0.1889 -0.1887  0.3052
  293loPI   C4A 4682   8.503   1.864   8.675  0.0428  0.1757 -0.2956
  293loPI   C5A 4683   8.408   1.545   8.432 -0.1568 -0.1335  0.0766
  293loPI   C6A 4684   8.152   1.175   8.419  0.0837 -0.2915  0.0575
  293loPI   C1B 4685   8.427   1.365   9.999 -0.1118  0.0065 -0.1300
  293loPI   C2B 4686   8.475   1.357   9.650  0.0513 -0.0534 -0.1881
  293loPI   C3B 4687   8.557   1.302   9.207 -0.2720  0.0211  0.0189
  293loPI   C4B 4688   8.639   1.244   8.761  0.0467 -0.0157  0.1233
  294loPI    C1 4689   8.964  10.433  10.385  0.1768 -0.1255  0.0818
  294loPI    C2 4690   9.244  10.537  10.650  0.1143  0.2557  0.0046
  294loPI    C3 4691   9.272  10.189  10.456  0.3752  0.1572  0.2122
  294loPI   PO4 4692   8.894  10.499  10.129  0.2888  0.0082  0.0300
  294loPI   GL1 4693   8.840  10.745   9.799 -0.1639 -0.1386  0.3219
  294loPI   GL2 4694   9.157  10.751   9.805  0.0253 -0.3696  0.0147
  294loPI   C1A 4695   8.546  10.792   9.428 -0.0714 -0.2686 -0.0224
  294loPI   C2A 4696   8.460  10.786   9.066 -0.0956 -0.2698 -0.1695
  294loPI   C3A 4697   8.226  10.659   8.735  0.2730 -0.0418 -0.1023
  294loPI   C4A 4698   8.155  10.704   8.309 -0.2136  0.2134  0.0768
  294loPI   C5A 4699   8.169  10.928   7.929  0.0854 -0.0930  0.1198
  294loPI   C6A 4700   8.118  11.095   7.452  0.2208 -0.0150  0.1249
  294loPI   C1B 4701   9.168  10.777   9.425  0.1133  0.2370 -0.0086
  294loPI   C2B 4702   8.993  10.851   9.041 -0.0536 -0.2096  0.4039
  294loPI   C3B 4703   8.777  10.867   8.706  0.1149  0.0454 -0.0635
  294loPI   C4B 4704   8.661  10.824   8.234  0.0731 -0.1328 -0.0883
  295loPI    C1 4705   2.129  17.326  10.941  0.0100 -0.0810 -0.0023
  295loPI    C2 4706   2.323  17.514  11.236 -0.2188  0.0161  0.0887
  295loPI    C3 4707   2.058  17.227  11.322  0.1164 -0.3440 -0.0485
  295loPI   PO4 4708   2.331  17.197  10.775 -0.1497 -0.2906 -0.2651
  295loPI   GL1 4709   1.999  17.207  10.470  0.0534  0.0604  0.0511
  295loPI   GL2 4710   2.083  16.849  10.425 -0.3210 -0.1509  0.3754
  295loPI   C1A 4711   2.226  17.199  10.100 -0.2046  0.0728  0.1432
  295loPI   C2A 4712   2.287  17.194   9.741 -0.1267 -0.1853 -0.0993
  295loPI   C3A 4713   2.260  17.128   9.319  0.1865 -0.0169 -0.0324
  295loPI   C4A 4714   2.251  17.016   8.943  0.1464  0.1301  0.0507
  295loPI   C5A 4715   2.370  17.163   8.629 -0.3010  0.0526 -0.0445
  295loPI   C6A 4716   2.456  17.246   8.173 -0.3471  0.0877  0.2113
  295loPI   C1B 4717   2.114  16.699  10.039  0.1054 -0.1867 -0.0994
  295loPI   C2B 4718   2.168  16.737   9.740 -0.2128  0.1950 -0.1191
  295loPI   C3B 4719   2.295  16.632   9.421  0.3580 -0.0499  0.1575
  295loPI   C4B 4720   2.149  16.542   9.039 -0.0624 -0.1788 -0.0537
  296loPI    C1 4721   4.373   9.299  10.945  0.1372 -0.1219 -0.2947
  296loPI    C2 4722   4.038   9.119  11.070  0.1392  0.0997  0.0442
  296loPI    C3 4723   4.391   9.015  11.226  0.1868  0.1172 -0.0514
  296loPI   PO4 4724   4.299   9.325  10.703  0.3726 -0.0290  0.2666
  296loPI   GL1 4725   4.603   9.200  10.375 -0.0676 -0.3390 -0.0032
  296loPI   GL2 4726   4.911   9.400  10.253  0.0923 -0.0337 -0.2622
  296loPI   C1A 4727   4.541   9.084  10.013  0.3505  0.3448 -0.2030
  296loPI   C2A 4728   4.627   8.972   9.543  0.3393 -0.0970  0.2425
  296loPI   C3A 4729   4.628   8.962   9.050  0.0303 -0.0317  0.0473
  296loPI   C4A 4730   4.626   8.897   8.650 -0.0020  0.2349  0.0239
  296loPI   C5A 4731   4.552   8.967   8.106  0.1052  0.0021 -0.2194
  296loPI   C6A 4732   4.701   8.989   7.727  0.1757  0.1492 -0.1114
  296loPI   C1B 4733   4.854   9.474   9.844 -0.0749 -0.2660  0.0593
  296loPI   C2B 4734   4.775   9.441   9.412  0.2178  0.1183 -0.2199
  296loPI   C3B 4735   4.789   9.420   8.948 -0.1307 -0.0451  0.0180
  296loPI   C4B 4736   4.827   9.567   8.599  0.2067 -0.1127 -0.0378
  297loPI    C1 4737   9.515   3.947  10.646  0.0217 -0.0619  0.1196
  297loPI    C2 4738   9.263   4.214  10.804 -0.1062 -0.0870 -0.0392
  297loPI    C3 4739   9.574   4.082  11.018 -0.0836  0.1331  0.0670
  297loPI   PO4 4740   9.525   4.149  10.356  0.3355  0.0380 -0.0611
  297loPI   GL1 4741   9.419   4.097   9.944 -0.2543 -0.1448  0.0600
  297loPI   GL2 4742   9.548   3.768   9.949  0.0150  0.1839 -0.0440
  297loPI   C1A 4743   9.422   4.114   9.553  0.1412 -0.1135  0.0153
  297loPI   C2A 4744   9.382   4.069   9.176  0.0263  0.2769 -0.1010
  297loPI   C3A 4745   9.329   4.132   8.794  0.2678 -0.3113 -0.1105
  297loPI   C4A 4746   9.327   4.032   8.342  0.2325 -0.0607  0.0430
  297loPI   C5A 4747   9.130   4.018   7.946  0.2918 -0.0395 -0.1222
  297loPI   C6A 4748   8.964   3.915   7.619  0.1028  0.1474 -0.2549
  297loPI   C1B 4749   9.710   3.720   9.543 -0.2359 -0.1381 -0.0336
  297loPI   C2B 4750   9.819   3.818   9.207 -0.0127  0.0306 -0.2212
  297loPI   C3B 4751   9.658   3.771   8.742 -0.0996  0.2939  0.2318
  297loPI   C4B 4752   9.638   3.634   8.259  0.0662 -0.1533  0.1846
  298loPI    C1 4753   0.091   9.078  10.287 -0.1812  0.2354  0.1294
  298loPI    C2 4754   0.406   8.982  10.513 -0.2811  0.0722  0.2012
  298loPI    C3 4755   0.040   8.994  10.675 -0.3343  0.0955  0.0802
  298loPI   PO4 4756   0.172   9.378  10.213  0.3030 -0.1120  0.2120
  298loPI   GL1 4757   0.421   9.468   9.857  0.2395 -0.1580 -0.2011
  298loPI   GL2 4758   0.664   9.654   9.875  0.0812 -0.0153  0.0248
  298loPI   C1A 4759   0.533   9.403   9.429  0.0835 -0.0974 -0.0168
  298loPI   C2A 4760   0.549   9.312   9.073  0.0450 -0.1241 -0.1932
  298loPI   C3A 4761   0.579   9.313   8.740 -0.3869  0.3322  0.0227
  298loPI   C4A 4762   0.634   9.301   8.298 -0.0430  0.0484  0.1239
  298loPI   C5A 4763   0.424   9.125   7.857  0.1004  0.3232  0.0444
  298loPI   C6A 4764   0.776   9.020   7.438  0.3021  0.4193 -0.1460
  298loPI   C1B 4765   0.736   9.896   9.466  0.0726  0.0838  0.0790
  298loPI   C2B 4766   0.680   9.817   9.055  0.0746 -0.3553 -0.1696
  298loPI   C3B 4767   0.562   9.791   8.682 -0.1640 -0.0437 -0.0954
  298loPI   C4B 4768   0.727   9.846   8.340 -0.0754  0.0775  0.1787
  299loPI    C1 4769  12.590   5.307   9.835  0.2061  0.1774  0.0240
  299loPI    C2 4770  12.201   5.216   9.822  0.2679 -0.0932 -0.0040
  299loPI    C3 4771  12.354   5.396  10.145  0.0639  0.2925 -0.1159
  299loPI   PO4 4772  12.658   5.179   9.682 -0.1168 -0.1021  0.2030
  299loPI   GL1 4773  12.420   4.948   9.454  0.4217 -0.0779 -0.2754
  299loPI   GL2 4774  12.280   5.083   9.247  0.1250 -0.0188  0.1413
  299loPI   C1A 4775  12.571   4.592   9.211  0.1020  0.1146 -0.1433
  299loPI   C2A 4776  12.413   4.239   8.982  0.3209 -0.0214  0.4126
  299loPI   C3A 4777  12.456   4.081   8.637 -0.1013  0.0024 -0.2948
  299loPI   C4A 4778  12.428   3.785   8.420  0.1925  0.1358  0.1836
  299loPI   C5A 4779  12.384   3.809   8.031 -0.1103  0.2437 -0.0583
  299loPI   C6A 4780  12.347   3.787   7.580  0.4544 -0.0051 -0.0608
  299loPI   C1B 4781  12.246   5.107   8.844  0.3564  0.2079 -0.0063
  299loPI   C2B 4782  12.133   5.125   8.374 -0.0808 -0.0586  0.2376
  299loPI   C3B 4783  12.111   5.034   7.923 -0.1054 -0.2922 -0.0935
  299loPI   C4B 4784  12.170   5.075   7.541  0.0758  0.3517 -0.0854
  300loPI    C1 4785  10.964  17.816  11.308  0.0210 -0.1690  0.0091
  300loPI    C2 4786  10.734  17.960  11.602 -0.0906 -0.0531 -0.1339
  300loPI    C3 4787  11.130  18.015  11.613 -0.1102  0.0820 -0.0805
  300loPI   PO4 4788  10.865  17.885  11.039  0.1494 -0.2642 -0.1721
  300loPI   GL1 4789  10.843  17.675  10.615 -0.0347  0.1602  0.3042
  300loPI   GL2 4790  10.959  17.297  10.373 -0.0421 -0.0536  0.1196
  300loPI   C1A 4791  10.946  17.696  10.119 -0.0635  0.2420 -0.0552
  300loPI   C2A 4792  11.008  17.861   9.609 -0.0629 -0.1062  0.4152
  300loPI   C3A 4793  11.044  17.914   9.194  0.1749 -0.0006 -0.0123
  300loPI   C4A 4794  11.014  17.742   8.804  0.1523  0.0036 -0.2179
  300loPI   C5A 4795  11.021  17.705   8.432  0.3259 -0.0646 -0.0974
  300loPI   C6A 4796  10.976  17.911   8.012  0.3059 -0.0911  0.2278
  300loPI   C1B 4797  10.974  17.319   9.848  0.2115 -0.2446 -0.1746
  300loPI   C2B 4798  10.953  17.387   9.318  0.1963 -0.1560 -0.4917
  300loPI   C3B 4799  10.961  17.248   8.919 -0.0172  0.2463  0.1197
  300loPI   C4B 4800  11.029  17.146   8.448  0.0714  0.4764  0.0182
  301loPI    C1 4801  16.637   3.808   9.989 -0.0095  0.2342  0.1195
  301loPI    C2 4802  16.547   3.845  10.377 -0.0328  0.1280  0.1246
  301loPI    C3 4803  16.922   3.762  10.266 -0.0714 -0.0673  0.1364
  301loPI   PO4 4804  16.381   3.954   9.890  0.2256  0.2848 -0.0719
  301loPI   GL1 4805  16.207   3.829   9.554 -0.1742  0.2046  0.1979
  301loPI   GL2 4806  16.172   4.041   9.349 -0.1377 -0.1155 -0.0806
  301loPI   C1A 4807  16.211   3.439   9.230  0.2612  0.1578  0.0203
  301loPI   C2A 4808  16.273   3.308   8.815  0.0803 -0.2314 -0.0232
  301loPI   C3A 4809  16.377   3.323   8.405  0.0884 -0.3378  0.3455
  301loPI   C4A 4810  16.438   3.373   7.984  0.0092  0.1782 -0.2219
  301loPI   C5A 4811  16.283   3.701   7.582 -0.1732  0.1327  0.0256
  301loPI   C6A 4812  16.560   3.793   7.293  0.0537  0.3966  0.0602
  301loPI   C1B 4813  16.319   3.815   8.967 -0.1577  0.3685  0.0704
  301loPI   C2B 4814  16.371   3.811   8.536 -0.1973  0.0163  0.0094
  301loPI   C3B 4815  16.413   3.893   8.107 -0.1762  0.1861 -0.0312
  301loPI   C4B 4816  16.083   4.040   7.918  0.0464 -0.0154 -0.2038
  302loPI    C1 4817   7.084   0.246  11.200  0.1252 -0.1365  0.1122
  302loPI    C2 4818   7.394   0.487  11.274  0.1140 -0.1000  0.0406
  302loPI    C3 4819   7.235   0.270  11.570 -0.0773  0.2171  0.1758
  302loPI   PO4 4820   7.058   0.177  10.849 -0.1199 -0.1099 -0.1560
  302loPI   GL1 4821   7.054   0.338  10.480 -0.0915  0.1270  0.0382
  302loPI   GL2 4822   7.317   0.583  10.377  0.1953 -0.1226 -0.0725
  302loPI   C1A 4823   6.931   0.354  10.206 -0.1135  0.4187  0.0289
  302loPI   C2A 4824   6.962   0.277   9.777  0.2601 -0.2368 -0.1315
  302loPI   C3A 4825   7.031   0.292   9.300  0.0855  0.2586 -0.0555
  302loPI   C4A 4826   7.026   0.265   8.900 -0.1205  0.1374 -0.2936
  302loPI   C5A 4827   7.119   0.102   8.612  0.3130  0.0558  0.1824
  302loPI   C6A 4828   7.393  -0.243   8.433  0.2434  0.0786 -0.0884
  302loPI   C1B 4829   7.401   0.473   9.950 -0.2795  0.1602  0.2735
  302loPI   C2B 4830   7.360   0.560   9.561 -0.1187  0.2043  0.1585
  302loPI   C3B 4831   7.488   0.514   9.169  0.2732  0.1473 -0.0981
  302loPI   C4B 4832   7.571   0.353   8.810  0.0466 -0.0704  0.1534
  303loPI    C1 4833   7.910   6.657  10.121 -0.0874 -0.1098 -0.4325
  303loPI    C2 4834   7.567   6.550   9.944 -0.2591 -0.1016 -0.1121
  303loPI    C3 4835   7.561   6.784  10.269  0.0574 -0.0155 -0.1644
  303loPI   PO4 4836   8.040   6.786   9.819  0.1292  0.2938  0.1660
  303loPI   GL1 4837   7.971   6.906   9.317  0.0814  0.1595  0.0648
  303loPI   GL2 4838   8.330   6.960   9.371  0.0596  0.0955  0.1569
  303loPI   C1A 4839   7.968   7.170   8.917  0.1020 -0.1941  0.0907
  303loPI   C2A 4840   8.003   7.196   8.512  0.0866 -0.1298 -0.2259
  303loPI   C3A 4841   7.899   7.296   8.125  0.0845  0.2217 -0.1606
  303loPI   C4A 4842   7.775   7.198   7.702  0.2179 -0.0628 -0.0657
  303loPI   C5A 4843   7.910   7.153   7.269 -0.1250  0.2985 -0.2652
  303loPI   C6A 4844   8.175   7.204   6.938  0.1069  0.0135 -0.0262
  303loPI   C1B 4845   8.324   6.842   8.871 -0.1095 -0.1891  0.0175
  303loPI   C2B 4846   8.238   6.711   8.485  0.1755 -0.2696 -0.1636
  303loPI   C3B 4847   8.295   6.663   8.027  0.0488 -0.2303  0.2123
  303loPI   C4B 4848   7.992   6.781   7.775 -0.0180  0.0671  0.0524
  304loPI    C1 4849  13.668  16.444  10.910 -0.1596  0.0762  0.1703
  304loPI    C2 4850  13.387  16.256  11.124 -0.0663  0.0938  0.3095
  304loPI    C3 4851  13.774  16.187  11.197 -0.0333  0.0528  0.1036
  304loPI   PO4 4852  13.682  16.430  10.708 -0.3485 -0.0407 -0.0349
  304loPI   GL1 4853  13.524  16.466  10.352  0.0804  0.0826 -0.0518
  304loPI   GL2 4854  13.412  16.741  10.239  0.0854 -0.1248  0.2454
  304loPI   C1A 4855  13.479  16.378   9.938  0.1445  0.2393  0.2403
  304loPI   C2A 4856  13.549  16.402   9.490  0.0258 -0.0220  0.0717
  304loPI   C3A 4857  13.655  16.346   9.048  0.2038  0.2846 -0.1831
  304loPI   C4A 4858  13.576  16.136   8.535 -0.2268 -0.4707 -0.0526
  304loPI   C5A 4859  13.433  16.065   8.098  0.2492 -0.0147 -0.2990
  304loPI   C6A 4860  13.549  16.286   7.770 -0.1972  0.0806  0.0330
  304loPI   C1B 4861  13.569  16.916   9.822  0.1803 -0.1967  0.2645
  304loPI   C2B 4862  13.660  16.913   9.432 -0.0567  0.2215  0.5383
  304loPI   C3B 4863  13.648  16.823   9.048 -0.2132 -0.1206  0.0607
  304loPI   C4B 4864  13.641  16.902   8.635  0.1124 -0.1592  0.2447
  305loPI    C1 4865  16.462   5.160  10.115 -0.1138  0.1459  0.2196
  305loPI    C2 4866  16.622   5.106  10.478  0.1322  0.1677  0.1167
  305loPI    C3 4867  16.677   4.831  10.192  0.0035  0.1867  0.0731
  305loPI   PO4 4868  16.576   5.332  10.015  0.0597  0.0334 -0.0152
  305loPI   GL1 4869  16.888   5.265   9.706 -0.2226  0.0423  0.4066
  305loPI   GL2 4870  16.815   4.975   9.689  0.3456 -0.0911  0.2711
  305loPI   C1A 4871  17.125   5.190   9.358  0.2419  0.3452 -0.2093
  305loPI   C2A 4872  17.200   5.127   8.885  0.3607 -0.0184  0.0396
  305loPI   C3A 4873  17.072   5.145   8.447 -0.1555 -0.0652  0.0027
  305loPI   C4A 4874  17.144   5.084   8.014  0.2008 -0.0268 -0.0481
  305loPI   C5A 4875  16.804   5.118   7.643  0.2878 -0.2674 -0.1839
  305loPI   C6A 4876  16.682   5.548   7.561 -0.0551 -0.3216  0.0747
  305loPI   C1B 4877  16.887   4.773   9.286  0.1083  0.0620  0.3513
  305loPI   C2B 4878  16.963   4.699   8.879  0.2056 -0.1126 -0.0766
  305loPI   C3B 4879  16.949   4.633   8.278  0.1077 -0.3253  0.0701
  305loPI   C4B 4880  17.035   4.491   7.880 -0.2343 -0.1758 -0.3969
  306loPI    C1 4881  10.656   0.130  11.060 -0.0192  0.0896 -0.0009
  306loPI    C2 4882  10.944  -0.042  11.279  0.1368  0.0215 -0.2537
  306loPI    C3 4883  10.588   0.040  11.444  0.1155 -0.3913 -0.0829
  306loPI   PO4 4884  10.741   0.042  10.728 -0.1939 -0.1424  0.1881
  306loPI   GL1 4885  10.661  -0.157  10.308 -0.0308 -0.1480 -0.0441
  306loPI   GL2 4886  10.944  -0.085  10.241 -0.0062  0.3193  0.0216
  306loPI   C1A 4887  10.482  -0.241   9.933 -0.2939  0.2027  0.3949
  306loPI   C2A 4888  10.587  -0.331   9.477  0.0051 -0.4730  0.0636
  306loPI   C3A 4889  10.582  -0.350   9.051  0.0292  0.1033 -0.1475
  306loPI   C4A 4890  10.648  -0.400   8.598 -0.0566  0.2034  0.2407
  306loPI   C5A 4891  10.489  -0.260   8.196 -0.2368 -0.2011 -0.2136
  306loPI   C6A 4892  10.641  -0.223   7.680  0.2405  0.2512 -0.1098
  306loPI   C1B 4893  10.929  -0.059   9.734 -0.0525 -0.1339  0.3728
  306loPI   C2B 4894  11.038  -0.018   9.294  0.1780  0.1132  0.3027
  306loPI   C3B 4895  11.134  -0.064   8.783 -0.1278 -0.0230  0.0388
  306loPI   C4B 4896  11.048  -0.176   8.419 -0.1531  0.1424 -0.0076
  307loPI    C1 4897  10.469   9.090  10.153  0.3341  0.2150  0.0589
  307loPI    C2 4898  10.140   8.936  10.320  0.3008  0.0276 -0.1728
  307loPI    C3 4899  10.355   9.211  10.516  0.1377 -0.0204  0.0783
  307loPI   PO4 4900  10.410   9.141   9.935  0.2321  0.1429 -0.0657
  307loPI   GL1 4901  10.625   8.967   9.507 -0.0909  0.1040  0.0206
  307loPI   GL2 4902  10.632   9.117   9.257 -0.1352  0.0826 -0.0880
  307loPI   C1A 4903  10.416   8.658   9.229 -0.2116  0.2255 -0.3255
  307loPI   C2A 4904  10.568   8.694   8.783  0.0781  0.0060 -0.0031
  307loPI   C3A 4905  10.411   8.854   8.427 -0.2534  0.1826 -0.0135
  307loPI   C4A 4906  10.204   8.900   8.106 -0.1036  0.1048  0.2006
  307loPI   C5A 4907   9.954   9.113   7.829 -0.1541  0.1479 -0.1200
  307loPI   C6A 4908   9.724   9.057   7.371  0.3302 -0.2255 -0.1887
  307loPI   C1B 4909  10.402   9.056   9.033  0.3819  0.2838  0.1871
  307loPI   C2B 4910  10.176   9.245   8.712  0.1035  0.1129 -0.0862
  307loPI   C3B 4911  10.167   9.359   8.240  0.0790 -0.0642 -0.1217
  307loPI   C4B 4912  10.192   9.683   8.042  0.2118 -0.0379  0.0996
  308loPI    C1 4913   5.966   2.814  11.116  0.1579  0.1189  0.0699
  308loPI    C2 4914   5.968   3.214  11.126  0.2379  0.1142  0.2858
  308loPI    C3 4915   5.815   3.006  11.432  0.0748 -0.0204  0.1160
  308loPI   PO4 4916   6.009   2.729  10.888 -0.0736  0.3556 -0.3087
  308loPI   GL1 4917   6.165   2.830  10.498  0.1116 -0.0953  0.0309
  308loPI   GL2 4918   6.534   3.032  10.420 -0.0368  0.0381  0.0321
  308loPI   C1A 4919   5.992   2.797  10.066  0.0653 -0.1000  0.6956
  308loPI   C2A 4920   5.957   2.781   9.624 -0.0467  0.2801 -0.0096
  308loPI   C3A 4921   5.947   2.687   9.107  0.1324 -0.0067 -0.0887
  308loPI   C4A 4922   6.044   2.774   8.631  0.2910 -0.1528  0.2581
  308loPI   C5A 4923   6.039   2.731   8.253  0.2455  0.1351 -0.0247
  308loPI   C6A 4924   6.325   2.618   7.928 -0.0477  0.2946 -0.0497
  308loPI   C1B 4925   6.373   3.001   9.861 -0.1267  0.0841 -0.2100
  308loPI   C2B 4926   6.378   2.962   9.392  0.0544  0.1868 -0.1993
  308loPI   C3B 4927   6.483   2.772   9.008 -0.1126  0.0517  0.0841
  308loPI   C4B 4928   6.464   2.873   8.515 -0.4095  0.1152 -0.0865
  309loPI    C1 4929   7.158  18.064  11.086  0.2615  0.0462  0.0396
  309loPI    C2 4930   7.363  18.147  11.419  0.3510 -0.0181  0.0009
  309loPI    C3 4931   7.018  17.946  11.441  0.0999  0.4109  0.1020
  309loPI   PO4 4932   7.366  17.963  10.937  0.1390  0.0472  0.1528
  309loPI   GL1 4933   7.454  17.863  10.524 -0.1579 -0.0531  0.6240
  309loPI   GL2 4934   7.358  18.320  10.554 -0.0647 -0.0619 -0.1303
  309loPI   C1A 4935   7.265  17.771  10.081  0.1254 -0.0773 -0.1488
  309loPI   C2A 4936   7.230  17.717   9.690 -0.3018  0.1633 -0.1388
  309loPI   C3A 4937   7.333  17.851   9.268 -0.0911  0.2218  0.0793
  309loPI   C4A 4938   7.364  17.610   8.893  0.1432  0.2931 -0.0630
  309loPI   C5A 4939   7.540  17.560   8.445 -0.0574 -0.2473 -0.2444
  309loPI   C6A 4940   7.677  17.308   7.931 -0.2246  0.1184 -0.0681
  309loPI   C1B 4941   7.336  18.378  10.114  0.2435 -0.0387 -0.2073
  309loPI   C2B 4942   7.342  18.359   9.676 -0.2133 -0.0259 -0.0112
  309loPI   C3B 4943   7.489  18.389   9.305 -0.1212 -0.1552  0.1109
  309loPI   C4B 4944   7.505  18.251   8.859  0.1361 -0.2379  0.0473
  310loPI    C1 4945  14.895  15.358  10.909 -0.1220  0.1271  0.1726
  310loPI    C2 4946  14.864  14.970  10.816 -0.0870  0.1788 -0.0593
  310loPI    C3 4947  14.579  15.147  11.033 -0.0755  0.0108  0.0948
  310loPI   PO4 4948  15.138  15.407  10.651 -0.0330  0.1642 -0.3422
  310loPI   GL1 4949  15.366  15.736  10.388  0.3168  0.0546  0.2767
  310loPI   GL2 4950  15.478  16.010  10.434 -0.1319  0.2771  0.0761
  310loPI   C1A 4951  15.290  15.664   9.885 -0.4684 -0.2848  0.0599
  310loPI   C2A 4952  15.286  15.596   9.437 -0.0483  0.3839 -0.1512
  310loPI   C3A 4953  15.254  15.508   9.002  0.0778  0.0112 -0.1114
  310loPI   C4A 4954  15.287  15.590   8.677  0.3118 -0.1727  0.2893
  310loPI   C5A 4955  15.395  15.835   8.273 -0.0510 -0.0896  0.0147
  310loPI   C6A 4956  15.463  16.163   7.977 -0.2077 -0.3060  0.2940
  310loPI   C1B 4957  15.300  16.138  10.026 -0.0846 -0.0799  0.2275
  310loPI   C2B 4958  15.349  16.077   9.527  0.0336  0.0479  0.0613
  310loPI   C3B 4959  15.390  16.063   9.140  0.0622 -0.0649 -0.0120
  310loPI   C4B 4960  15.297  16.088   8.709 -0.0462 -0.0070  0.0763
  311loPI    C1 4961   1.960   4.635  11.204  0.0455  0.1626  0.1636
  311loPI    C2 4962   2.086   5.002  11.304 -0.0108  0.1777  0.1793
  311loPI    C3 4963   1.922   4.763  11.581  0.0074  0.1482  0.1648
  311loPI   PO4 4964   2.327   4.555  10.960  0.0214  0.0277 -0.3861
  311loPI   GL1 4965   2.377   4.612  10.526 -0.1576 -0.3286 -0.0737
  311loPI   GL2 4966   2.626   4.406  10.347 -0.3637 -0.6963  0.1381
  311loPI   C1A 4967   2.050   4.589  10.223 -0.0408  0.2363  0.1599
  311loPI   C2A 4968   2.161   4.584   9.782  0.0079 -0.3379 -0.3337
  311loPI   C3A 4969   2.107   4.498   9.326  0.2978  0.0939  0.0283
  311loPI   C4A 4970   2.143   4.532   8.927  0.0271 -0.1127 -0.3241
  311loPI   C5A 4971   2.218   4.481   8.408  0.0912  0.0437  0.0436
  311loPI   C6A 4972   2.087   4.703   8.026  0.4815 -0.0888 -0.3212
  311loPI   C1B 4973   2.397   4.239  10.052 -0.3404 -0.3150 -0.0197
  311loPI   C2B 4974   2.489   4.265   9.600 -0.0235 -0.0689 -0.0642
  311loPI   C3B 4975   2.533   4.231   9.192 -0.1423  0.1771  0.0705
  311loPI   C4B 4976   2.564   4.208   8.751  0.1489  0.2161  0.0397
  312loPI    C1 4977  16.888  10.691  10.053 -0.0207 -0.1076  0.0083
  312loPI    C2 4978  17.057  10.771  10.406  0.0972 -0.0669 -0.0570
  312loPI    C3 4979  16.698  10.596  10.392  0.1366 -0.1611  0.0824
  312loPI   PO4 4980  16.918  10.946   9.906 -0.0317  0.0023 -0.2462
  312loPI   GL1 4981  17.177  11.063   9.639  0.0787 -0.0142 -0.0950
  312loPI   GL2 4982  17.391  10.928   9.495  0.2360 -0.0346 -0.0779
  312loPI   C1A 4983  16.965  11.131   9.334 -0.2855  0.1823  0.2889
  312loPI   C2A 4984  16.892  11.232   8.958  0.0879  0.0856  0.0223
  312loPI   C3A 4985  17.007  11.358   8.626  0.3875 -0.1916 -0.2248
  312loPI   C4A 4986  16.995  11.493   8.269 -0.0950 -0.1573  0.0107
  312loPI   C5A 4987  17.251  11.608   7.930  0.3521  0.1173 -0.0967
  312loPI   C6A 4988  17.404  11.372   7.548  0.0629 -0.2946  0.0398
  312loPI   C1B 4989  17.383  10.951   9.147 -0.2523 -0.0356  0.0827
  312loPI   C2B 4990  17.368  11.031   8.744 -0.2818  0.1497 -0.0838
  312loPI   C3B 4991  17.378  11.154   8.330 -0.1311  0.1565 -0.1606
  312loPI   C4B 4992  17.385  11.092   7.986 -0.0709 -0.2672  0.1707
  313loPI    C1 4993   6.376   3.480  10.624  0.0423  0.0878  0.0807
  313loPI    C2 4994   6.279   3.559  11.004  0.1615 -0.1180  0.1555
  313loPI    C3 4995   6.566   3.771  10.823 -0.1494  0.2313  0.0576
  313loPI   PO4 4996   6.188   3.390  10.537 -0.0710  0.2719 -0.3195
  313loPI   GL1 4997   6.141   3.276  10.200 -0.0225 -0.1046 -0.3887
  313loPI   GL2 4998   5.794   3.224  10.222 -0.0533  0.2701 -0.1666
  313loPI   C1A 4999   6.022   3.332   9.766 -0.2833  0.5749  0.1284
  313loPI   C2A 5000   5.915   3.267   9.343  0.2296 -0.1292 -0.2309
  313loPI   C3A 5001   6.061   3.170   8.936 -0.2112 -0.1551 -0.0667
  313loPI   C4A 5002   6.109   3.261   8.498 -0.0258 -0.2667  0.0736
  313loPI   C5A 5003   5.810   3.253   8.132 -0.0668  0.0265  0.2071
  313loPI   C6A 5004   5.454   3.128   7.836  0.0793 -0.2592  0.2410
  313loPI   C1B 5005   5.565   3.104   9.806  0.1137  0.3653 -0.2714
  313loPI   C2B 5006   5.463   3.059   9.382  0.0587 -0.3284 -0.3456
  313loPI   C3B 5007   5.539   3.076   8.930  0.1523 -0.2664  0.2468
  313loPI   C4B 5008   5.646   3.046   8.531  0.0923 -0.0562  0.0325
  314loPI    C1 5009  11.894  11.122  10.304  0.1281 -0.0160  0.0874
  314loPI    C2 5010  11.626  11.320  10.525  0.3020  0.1891  0.1175
  314loPI    C3 5011  11.714  10.939  10.611 -0.1386  0.0482 -0.0278
  314loPI   PO4 5012  11.828  11.057  10.083  0.1112 -0.1000  0.0932
  314loPI   GL1 5013  12.081  10.986   9.603  0.0392 -0.1791  0.0294
  314loPI   GL2 5014  11.855  10.765   9.395 -0.1078 -0.1422 -0.4276
  314loPI   C1A 5015  12.271  11.324   9.356 -0.1905  0.0149  0.3066
  314loPI   C2A 5016  12.150  11.422   8.951  0.2598  0.0621  0.4281
  314loPI   C3A 5017  11.958  11.515   8.559  0.0906  0.2798 -0.1515
  314loPI   C4A 5018  11.746  11.738   8.188  0.2683 -0.0906 -0.1254
  314loPI   C5A 5019  11.848  12.037   7.757  0.0715  0.0515 -0.1957
  314loPI   C6A 5020  11.838  12.325   7.368 -0.0066 -0.0831  0.0234
  314loPI   C1B 5021  11.914  10.976   9.090  0.1402 -0.1953 -0.0225
  314loPI   C2B 5022  11.870  11.039   8.635 -0.1483 -0.0224 -0.1362
  314loPI   C3B 5023  11.955  11.222   8.147 -0.0918 -0.1695  0.0555
  314loPI   C4B 5024  11.935  11.255   7.730 -0.1768 -0.2526 -0.1995
  315loPI    C1 5025   2.310   0.107  11.197  0.0111 -0.0126 -0.1016
  315loPI    C2 5026   2.477   0.417  11.386  0.1759 -0.0944 -0.1111
  315loPI    C3 5027   2.233   0.170  11.584  0.0346  0.0476 -0.1066
  315loPI   PO4 5028   2.188   0.175  11.014 -0.2091 -0.0468  0.0261
  315loPI   GL1 5029   2.265   0.137  10.626  0.0725  0.3272 -0.0386
  315loPI   GL2 5030   2.159  -0.131  10.641 -0.0648 -0.4278  0.1789
  315loPI   C1A 5031   1.941   0.183  10.363 -0.0796  0.1291  0.1138
  315loPI   C2A 5032   1.909   0.190   9.895 -0.3034  0.0822 -0.0847
  315loPI   C3A 5033   1.944   0.113   9.388  0.3430 -0.1754 -0.2450
  315loPI   C4A 5034   1.889   0.103   8.972 -0.0670 -0.0479 -0.1700
  315loPI   C5A 5035   1.898  -0.110   8.611  0.2283  0.2536  0.4772
  315loPI   C6A 5036   1.781  -0.452   8.464 -0.1795 -0.1219 -0.2865
  315loPI   C1B 5037   2.288  -0.111  10.193 -0.0197  0.0374 -0.2241
  315loPI   C2B 5038   2.329  -0.170   9.718  0.1073 -0.2880  0.0973
  315loPI   C3B 5039   2.407  -0.318   9.247  0.1321 -0.1913 -0.2224
  315loPI   C4B 5040   2.389  -0.215   8.733  0.0307 -0.1944 -0.1549
  316loPI    C1 5041   2.087   2.336  11.051 -0.0520 -0.1746 -0.1489
  316loPI    C2 5042   2.436   2.217  11.207 -0.0684  0.0685  0.0797
  316loPI    C3 5043   2.095   2.050  11.331 -0.0435 -0.0880 -0.0601
  316loPI   PO4 5044   2.221   2.360  10.777  0.1171 -0.1648  0.0911
  316loPI   GL1 5045   2.350   2.465  10.394 -0.1951  0.2831  0.1021
  316loPI   GL2 5046   2.499   2.070  10.311  0.0980 -0.3007 -0.2416
  316loPI   C1A 5047   2.269   2.300   9.951  0.0195 -0.1728 -0.2707
  316loPI   C2A 5048   2.317   2.189   9.482 -0.1658  0.0025  0.6329
  316loPI   C3A 5049   2.205   2.060   9.034  0.1197  0.2686 -0.4368
  316loPI   C4A 5050   2.113   2.063   8.590 -0.0181 -0.0450  0.2230
  316loPI   C5A 5051   1.889   2.028   8.166  0.2428 -0.2362  0.3497
  316loPI   C6A 5052   1.559   1.879   8.156  0.1013  0.0238  0.1656
  316loPI   C1B 5053   2.656   1.912   9.912 -0.1921 -0.1922  0.1003
  316loPI   C2B 5054   2.654   1.851   9.425  0.6039 -0.0158  0.0223
  316loPI   C3B 5055   2.688   1.828   9.088 -0.1324  0.0817 -0.0800
  316loPI   C4B 5056   2.516   1.754   8.526 -0.1265  0.0205 -0.2726
  317loPI    C1 5057   2.304   8.258  10.683 -0.0650  0.3173  0.1600
  317loPI    C2 5058   2.573   8.187  10.970 -0.0341 -0.0694  0.0409
  317loPI    C3 5059   2.329   8.502  10.998  0.2447  0.1300  0.2856
  317loPI   PO4 5060   2.400   8.185  10.455  0.0223  0.1059  0.2444
  317loPI   GL1 5061   2.320   7.834  10.321 -0.0780  0.0025  0.0342
  317loPI   GL2 5062   2.513   7.657  10.082 -0.0043 -0.4332  0.1815
  317loPI   C1A 5063   2.198   7.899   9.844 -0.1501  0.0540 -0.0687
  317loPI   C2A 5064   2.182   8.072   9.494  0.1964  0.0072 -0.1524
  317loPI   C3A 5065   2.300   8.017   9.100  0.2198  0.0642  0.0393
  317loPI   C4A 5066   2.236   7.922   8.653 -0.3085  0.1461  0.2064
  317loPI   C5A 5067   2.283   7.927   8.104  0.2428  0.1474 -0.2167
  317loPI   C6A 5068   2.072   7.781   7.820  0.0852 -0.0726  0.0501
  317loPI   C1B 5069   2.480   7.642   9.547 -0.0829 -0.2210 -0.1051
  317loPI   C2B 5070   2.622   7.674   9.165  0.2013  0.1486  0.1949
  317loPI   C3B 5071   2.639   7.622   8.863  0.1700 -0.2332  0.0522
  317loPI   C4B 5072   2.599   7.640   8.442  0.1603 -0.3245 -0.0265
  318loPI    C1 5073   6.059   3.984  10.745  0.0437 -0.0119 -0.2134
  318loPI    C2 5074   6.249   4.116  11.071  0.2752 -0.2096 -0.2651
  318loPI    C3 5075   5.886   4.258  10.980  0.3397  0.0753 -0.0924
  318loPI   PO4 5076   6.193   4.003  10.564  0.5134  0.0350  0.0343
  318loPI   GL1 5077   6.094   3.789  10.214  0.2639  0.0359 -0.3939
  318loPI   GL2 5078   5.810   3.781  10.294 -0.3639 -0.1722 -0.0849
  318loPI   C1A 5079   5.990   3.846   9.799 -0.2322 -0.1348 -0.1285
  318loPI   C2A 5080   6.030   3.763   9.327  0.0014 -0.2412  0.2532
  318loPI   C3A 5081   6.072   3.722   8.992 -0.2232 -0.1702 -0.1669
  318loPI   C4A 5082   6.194   3.725   8.599 -0.0197 -0.2464 -0.1692
  318loPI   C5A 5083   6.410   3.771   8.258  0.0654 -0.0515 -0.0568
  318loPI   C6A 5084   6.614   4.054   8.051 -0.2982  0.2019 -0.1918
  318loPI   C1B 5085   5.625   3.619   9.912 -0.2734  0.0592 -0.2185
  318loPI   C2B 5086   5.567   3.583   9.534  0.2118  0.0115 -0.0820
  318loPI   C3B 5087   5.583   3.615   9.151  0.0552  0.1863 -0.1091
  318loPI   C4B 5088   5.708   3.487   8.716 -0.0256 -0.0928  0.2667
  319loPI    C1 5089   2.751  13.365  10.833 -0.0292 -0.2178  0.1138
  319loPI    C2 5090   2.404  13.222  10.695 -0.1294 -0.0719  0.2124
  319loPI    C3 5091   2.431  13.351  11.073 -0.0373  0.1537  0.1302
  319loPI   PO4 5092   2.899  13.150  10.804  0.0481  0.1856 -0.2067
  319loPI   GL1 5093   2.901  12.990  10.414  0.0768  0.0953  0.3406
  319loPI   GL2 5094   2.872  12.583  10.337 -0.0610 -0.1579 -0.1226
  319loPI   C1A 5095   3.019  13.158   9.976  0.0337  0.2117  0.1719
  319loPI   C2A 5096   2.998  13.048   9.575 -0.2019 -0.4137 -0.0936
  319loPI   C3A 5097   2.959  13.130   9.146 -0.0185  0.1218 -0.0903
  319loPI   C4A 5098   3.011  13.269   8.694 -0.0767 -0.0661 -0.0824
  319loPI   C5A 5099   3.101  13.103   8.324  0.1539 -0.0239  0.0861
  319loPI   C6A 5100   3.273  12.952   7.999 -0.2326 -0.1028 -0.2073
  319loPI   C1B 5101   2.849  12.649   9.877  0.1441  0.1426  0.0269
  319loPI   C2B 5102   2.912  12.623   9.383  0.1354 -0.0176 -0.2376
  319loPI   C3B 5103   2.878  12.560   8.946 -0.1320 -0.3776 -0.1176
  319loPI   C4B 5104   2.936  12.696   8.546  0.0836 -0.1055 -0.0546
  320loPI    C1 5105   9.268   1.303  10.984  0.0941 -0.1684  0.0208
  320loPI    C2 5106   9.176   1.692  10.999 -0.1715 -0.2269 -0.0404
  320loPI    C3 5107   9.494   1.554  11.199 -0.0814  0.0189 -0.0101
  320loPI   PO4 5108   9.282   1.250  10.750  0.0854  0.5716  0.0551
  320loPI   GL1 5109   9.186   1.020  10.436  0.2204  0.2459 -0.2378
  320loPI   GL2 5110   9.361   1.266  10.251 -0.1979  0.0137 -0.1433
  320loPI   C1A 5111   9.212   0.748  10.143 -0.0562 -0.1734  0.0315
  320loPI   C2A 5112   9.316   0.656   9.650 -0.1608 -0.3183 -0.0549
  320loPI   C3A 5113   9.331   0.651   9.286 -0.0995 -0.0038  0.1945
  320loPI   C4A 5114   9.348   0.664   8.865  0.0411 -0.1198 -0.0835
  320loPI   C5A 5115   9.444   0.693   8.401  0.2044  0.0989  0.1188
  320loPI   C6A 5116   9.857   0.707   8.252 -0.2714 -0.1464  0.1436
  320loPI   C1B 5117   9.335   1.110   9.806 -0.1543 -0.0463  0.1719
  320loPI   C2B 5118   9.397   1.222   9.338  0.3987  0.4568 -0.0455
  320loPI   C3B 5119   9.310   1.171   8.931  0.1134 -0.1828 -0.3284
  320loPI   C4B 5120   9.408   1.170   8.564 -0.0822 -0.2696  0.0836
  321loPI    C1 5121   9.415  11.353  10.614 -0.2170  0.0610 -0.1379
  321loPI    C2 5122   9.207  11.046  10.762  0.2463 -0.3575 -0.3270
  321loPI    C3 5123   9.518  11.194  10.966 -0.2368  0.2905 -0.0265
  321loPI   PO4 5124   9.353  11.348  10.395 -0.1041  0.0588 -0.1551
  321loPI   GL1 5125   9.234  11.606  10.050 -0.0740 -0.1174 -0.0122
  321loPI   GL2 5126   9.340  11.311   9.915 -0.1066 -0.2311 -0.0965
  321loPI   C1A 5127   9.056  11.750   9.759 -0.2480  0.1370 -0.0691
  321loPI   C2A 5128   8.983  11.922   9.498 -0.0137  0.1637 -0.0851
  321loPI   C3A 5129   8.935  11.952   9.030  0.2154  0.0565  0.0520
  321loPI   C4A 5130   8.847  11.982   8.592  0.1573  0.0181 -0.1654
  321loPI   C5A 5131   8.837  11.807   8.223 -0.0221 -0.1303 -0.0329
  321loPI   C6A 5132   9.061  12.023   7.940  0.1348 -0.2694 -0.0470
  321loPI   C1B 5133   9.585  11.118   9.636  0.0580 -0.0962  0.0166
  321loPI   C2B 5134   9.409  11.167   9.164 -0.1408 -0.0488 -0.1422
  321loPI   C3B 5135   9.291  11.198   8.803 -0.1856  0.2733  0.1134
  321loPI   C4B 5136   9.361  11.030   8.421  0.1792  0.0747  0.0804
  322loPI    C1 5137  13.760  17.994  11.164  0.2437  0.2837  0.3978
  322loPI    C2 5138  13.957  17.679  11.312 -0.1237 -0.0508  0.1949
  322loPI    C3 5139  13.566  17.720  11.381 -0.1313  0.2261  0.0038
  322loPI   PO4 5140  13.787  17.978  10.919 -0.0943 -0.2451 -0.3054
  322loPI   GL1 5141  13.677  18.120  10.529  0.3239 -0.3673 -0.1477
  322loPI   GL2 5142  13.386  18.340  10.464  0.3586  0.0517  0.1377
  322loPI   C1A 5143  13.732  17.966  10.089 -0.1670  0.1226  0.0667
  322loPI   C2A 5144  13.734  17.831   9.691 -0.0083 -0.0089  0.2296
  322loPI   C3A 5145  13.794  17.842   9.268 -0.1110 -0.1692 -0.1469
  322loPI   C4A 5146  13.703  17.954   8.868  0.0096  0.3210 -0.3163
  322loPI   C5A 5147  13.800  17.983   8.442 -0.0770  0.0518 -0.0932
  322loPI   C6A 5148  14.074  18.031   8.106 -0.2024  0.0846  0.0748
  322loPI   C1B 5149  13.456  18.403  10.048  0.0302 -0.0066  0.4015
  322loPI   C2B 5150  13.411  18.255   9.625  0.0561  0.1644 -0.3185
  322loPI   C3B 5151  13.359  18.208   9.178 -0.0176  0.1905  0.2648
  322loPI   C4B 5152  13.285  18.185   8.777  0.0128  0.1948  0.0278
  323loPI    C1 5153   5.261   9.701  10.741  0.1533  0.0081  0.1416
  323loPI    C2 5154   5.646   9.708  10.848  0.1515  0.1514  0.1402
  323loPI    C3 5155   5.391   9.977  10.999  0.0912  0.1772 -0.0057
  323loPI   PO4 5156   5.239   9.735  10.526  0.0097 -0.1640  0.3108
  323loPI   GL1 5157   5.167   9.884  10.110  0.1305 -0.1674  0.2645
  323loPI   GL2 5158   5.454  10.030  10.134  0.0100 -0.1946  0.0746
  323loPI   C1A 5159   4.806   9.999   9.863 -0.1461 -0.0068 -0.0813
  323loPI   C2A 5160   4.859  10.039   9.498 -0.0726  0.3735  0.0424
  323loPI   C3A 5161   4.886   9.969   9.008  0.1236 -0.2563 -0.0526
  323loPI   C4A 5162   4.877  10.057   8.539 -0.1245 -0.1444 -0.3838
  323loPI   C5A 5163   4.717  10.002   8.151  0.1434  0.2046 -0.2043
  323loPI   C6A 5164   4.786   9.541   8.020  0.4224 -0.0260  0.1430
  323loPI   C1B 5165   5.289  10.203   9.749  0.3051  0.1367  0.2028
  323loPI   C2B 5166   5.305  10.142   9.314  0.3841 -0.1519 -0.1447
  323loPI   C3B 5167   5.321  10.182   8.773  0.0474  0.0631  0.2381
  323loPI   C4B 5168   5.234  10.337   8.332  0.0591 -0.0766  0.0704
  324loPI    C1 5169  10.800   7.293   9.851 -0.0943  0.0152 -0.2326
  324loPI    C2 5170  10.837   6.964  10.075 -0.3643 -0.0736 -0.3151
  324loPI    C3 5171  11.110   7.047   9.795 -0.1107 -0.0455 -0.0637
  324loPI   PO4 5172  10.606   7.329   9.720 -0.1635  0.0199 -0.0393
  324loPI   GL1 5173  10.406   7.184   9.253 -0.2608 -0.3674 -0.0366
  324loPI   GL2 5174  10.392   7.518   9.259 -0.0911  0.0612 -0.1064
  324loPI   C1A 5175  10.356   7.042   8.893 -0.0828 -0.0333  0.0781
  324loPI   C2A 5176  10.279   6.937   8.523  0.1629  0.3844  0.0950
  324loPI   C3A 5177  10.332   6.998   8.099 -0.2219 -0.0972  0.0767
  324loPI   C4A 5178  10.235   6.972   7.693  0.4443  0.1703  0.0270
  324loPI   C5A 5179  10.209   6.702   7.287  0.0383 -0.3147  0.1149
  324loPI   C6A 5180  10.298   6.739   6.880 -0.0583  0.1411  0.0710
  324loPI   C1B 5181  10.281   7.518   8.740  0.2329  0.4893 -0.2400
  324loPI   C2B 5182  10.327   7.557   8.220  0.1462 -0.2652 -0.0899
  324loPI   C3B 5183  10.392   7.430   7.769  0.2633 -0.1079 -0.0085
  324loPI   C4B 5184  10.592   7.632   7.383 -0.0175  0.0623  0.2316
  325loPI    C1 5185   6.455   1.766  10.966 -0.2645 -0.0169  0.1064
  325loPI    C2 5186   6.774   1.829  11.199 -0.1331 -0.0752 -0.0559
  325loPI    C3 5187   6.450   2.059  11.238 -0.1080 -0.0772  0.1755
  325loPI   PO4 5188   6.612   1.675  10.714  0.1517 -0.1147 -0.1092
  325loPI   GL1 5189   6.495   1.816  10.334  0.0161  0.0271 -0.2160
  325loPI   GL2 5190   6.242   2.036  10.331 -0.2281  0.1569  0.1878
  325loPI   C1A 5191   6.727   1.732   9.979 -0.0485 -0.1173 -0.0046
  325loPI   C2A 5192   6.727   1.644   9.565  0.1096 -0.0053 -0.0368
  325loPI   C3A 5193   6.637   1.571   9.153 -0.0201  0.4777  0.0805
  325loPI   C4A 5194   6.790   1.464   8.766 -0.0006 -0.0689 -0.2222
  325loPI   C5A 5195   6.770   1.267   8.332 -0.3118 -0.3310 -0.1780
  325loPI   C6A 5196   7.033   0.962   8.141  0.1212  0.1265 -0.3253
  325loPI   C1B 5197   6.227   1.879   9.904 -0.1433 -0.0323  0.1121
  325loPI   C2B 5198   6.334   1.913   9.397 -0.0826 -0.3021 -0.0956
  325loPI   C3B 5199   6.354   1.958   9.011  0.1088 -0.0017 -0.2685
  325loPI   C4B 5200   6.380   1.849   8.645 -0.2316  0.0533  0.3437
  326loPI    C1 5201  16.293   9.948  10.120  0.2169 -0.1030 -0.3015
  326loPI    C2 5202  16.201  10.317  10.243 -0.2797 -0.3103 -0.0238
  326loPI    C3 5203  16.516  10.127  10.399 -0.1887 -0.1116  0.0369
  326loPI   PO4 5204  16.235   9.871   9.774  0.0171 -0.2981  0.0747
  326loPI   GL1 5205  16.195  10.053   9.437  0.2725  0.0556  0.2428
  326loPI   GL2 5206  16.575  10.038   9.458 -0.0067 -0.0165  0.1078
  326loPI   C1A 5207  16.163  10.062   8.981  0.4345  0.0649 -0.1678
  326loPI   C2A 5208  16.075  10.167   8.629  0.2382 -0.0273 -0.2555
  326loPI   C3A 5209  15.810  10.029   8.276  0.0085 -0.4157 -0.0839
  326loPI   C4A 5210  15.725   9.972   7.824 -0.0869  0.0027 -0.2000
  326loPI   C5A 5211  15.568  10.187   7.489 -0.1401 -0.1061 -0.0782
  326loPI   C6A 5212  15.714  10.584   7.428  0.0591  0.0540 -0.2934
  326loPI   C1B 5213  16.644  10.203   9.066  0.0593  0.1789 -0.1112
  326loPI   C2B 5214  16.582  10.195   8.656 -0.1823 -0.0183  0.0391
  326loPI   C3B 5215  16.434  10.153   8.255 -0.0329  0.1162  0.1178
  326loPI   C4B 5216  16.315   9.912   7.888 -0.3409 -0.0475 -0.0295
  327loPI    C1 5217  10.651   6.492  10.252  0.2794  0.0773 -0.0427
  327loPI    C2 5218  10.845   6.178  10.404 -0.1903 -0.0983  0.2164
  327loPI    C3 5219  10.864   6.533  10.587  0.1928 -0.0139  0.0241
  327loPI   PO4 5220  10.572   6.458   9.989 -0.3537  0.3526 -0.2553
  327loPI   GL1 5221  10.728   6.626   9.656  0.0090 -0.0711  0.4870
  327loPI   GL2 5222  10.772   6.897   9.511  0.0204 -0.0387  0.0163
  327loPI   C1A 5223  10.957   6.343   9.348 -0.0646 -0.1235  0.0507
  327loPI   C2A 5224  10.947   6.362   8.872  0.1177 -0.4115  0.6484
  327loPI   C3A 5225  10.855   6.312   8.422 -0.1609  0.3180  0.0892
  327loPI   C4A 5226  10.909   6.112   8.069  0.1993  0.1599 -0.0431
  327loPI   C5A 5227  11.152   5.942   7.792 -0.1312  0.1317  0.1262
  327loPI   C6A 5228  11.583   5.874   7.604  0.0340 -0.1486 -0.0514
  327loPI   C1B 5229  10.773   6.865   9.126  0.0960  0.1444 -0.1314
  327loPI   C2B 5230  10.785   6.799   8.698  0.3478 -0.4410 -0.1035
  327loPI   C3B 5231  10.799   6.817   8.307  0.0511  0.2386  0.2083
  327loPI   C4B 5232  10.765   6.953   7.913 -0.2128  0.1040  0.1167
  328loPI    C1 5233  14.002   5.945  10.020 -0.1523  0.0509  0.1975
  328loPI    C2 5234  14.313   6.145  10.171 -0.2007  0.1590  0.1553
  328loPI    C3 5235  14.249   5.765  10.278 -0.0343  0.1247  0.1371
  328loPI   PO4 5236  14.046   6.078   9.802  0.1948 -0.2087  0.0321
  328loPI   GL1 5237  13.757   6.076   9.522  0.1449 -0.0286  0.3087
  328loPI   GL2 5238  13.773   5.915   9.217  0.3719 -0.1297  0.1612
  328loPI   C1A 5239  13.793   6.405   9.266 -0.0755  0.0740 -0.1454
  328loPI   C2A 5240  14.114   6.423   8.957 -0.2856  0.0801  0.1140
  328loPI   C3A 5241  14.219   6.399   8.550  0.0899  0.0347 -0.2228
  328loPI   C4A 5242  14.416   6.323   8.134  0.3390 -0.0507 -0.0881
  328loPI   C5A 5243  14.427   6.473   7.776 -0.0386 -0.2121 -0.0789
  328loPI   C6A 5244  14.046   6.391   7.584  0.0525  0.0166 -0.1058
  328loPI   C1B 5245  13.855   5.979   8.783 -0.3320  0.2888  0.0541
  328loPI   C2B 5246  13.926   6.025   8.307  0.0733  0.0901  0.2165
  328loPI   C3B 5247  13.774   6.056   7.831 -0.0210  0.3273  0.1073
  328loPI   C4B 5248  13.560   6.129   7.378  0.1208 -0.1301 -0.1319
  329loPI    C1 5249   5.325   8.147  10.632 -0.0229  0.0061  0.0513
  329loPI    C2 5250   5.273   7.756  10.702  0.1555 -0.0216  0.0340
  329loPI    C3 5251   5.112   8.027  10.949 -0.0752 -0.1033 -0.0248
  329loPI   PO4 5252   5.235   8.178  10.419 -0.1769  0.0095 -0.2323
  329loPI   GL1 5253   4.795   8.310  10.086 -0.2000 -0.2574 -0.1527
  329loPI   GL2 5254   4.931   8.140   9.904 -0.2968 -0.2757  0.0192
  329loPI   C1A 5255   4.624   8.560   9.782  0.0192  0.0627 -0.1351
  329loPI   C2A 5256   4.558   8.523   9.309 -0.0475  0.5007 -0.2490
  329loPI   C3A 5257   4.565   8.452   8.879 -0.1130  0.4095  0.3507
  329loPI   C4A 5258   4.525   8.391   8.496 -0.1212  0.0604  0.3065
  329loPI   C5A 5259   4.506   8.388   8.144  0.0387  0.0274  0.1229
  329loPI   C6A 5260   4.412   8.582   7.799  0.1912  0.0394  0.1209
  329loPI   C1B 5261   5.014   8.209   9.590  0.2521 -0.3200  0.1702
  329loPI   C2B 5262   4.902   8.199   9.166 -0.0114 -0.2155  0.1078
  329loPI   C3B 5263   4.922   8.158   8.686 -0.2126  0.2470  0.1040
  329loPI   C4B 5264   4.877   8.088   8.292 -0.0713 -0.0452 -0.1351
  330loPI    C1 5265   0.381   8.400  10.288  0.0701  0.1830 -0.2089
  330loPI    C2 5266   0.257   8.540  10.642 -0.0391 -0.0087 -0.1699
  330loPI    C3 5267   0.599   8.333  10.617 -0.2661 -0.4036 -0.0912
  330loPI   PO4 5268   0.389   8.597  10.150 -0.0575 -0.5118  0.2781
  330loPI   GL1 5269   0.173   8.749   9.823  0.1606  0.0056  0.0556
  330loPI   GL2 5270   0.321   8.886   9.538  0.2254 -0.2819  0.0749
  330loPI   C1A 5271   0.335   8.425   9.406  0.0653 -0.1923  0.2455
  330loPI   C2A 5272   0.406   8.146   8.960  0.4972  0.0486 -0.1764
  330loPI   C3A 5273   0.479   8.212   8.570  0.1746 -0.1143 -0.1380
  330loPI   C4A 5274   0.476   8.328   8.205 -0.0229 -0.1107 -0.1681
  330loPI   C5A 5275   0.474   8.125   7.831 -0.3282 -0.0308  0.0639
  330loPI   C6A 5276   0.658   7.907   7.380 -0.1293 -0.0606 -0.0428
  330loPI   C1B 5277   0.454   8.850   9.165 -0.0675 -0.0170 -0.0996
  330loPI   C2B 5278   0.573   8.676   8.772  0.0479  0.0564 -0.0739
  330loPI   C3B 5279   0.595   8.820   8.200 -0.2511 -0.0136 -0.0807
  330loPI   C4B 5280   0.734   8.684   7.878 -0.0309  0.1330  0.0114
  331loPI    C1 5281   8.992   9.010  10.163  0.2394 -0.3330 -0.1002
  331loPI    C2 5282   8.789   9.078  10.501  0.1780 -0.1081 -0.1800
  331loPI    C3 5283   9.099   8.825  10.501  0.0703 -0.2430  0.0043
  331loPI   PO4 5284   9.019   9.253  10.064  0.0699 -0.1562 -0.1631
  331loPI   GL1 5285   9.007   9.449   9.616 -0.2286 -0.0015  0.0492
  331loPI   GL2 5286   8.965   9.690   9.855  0.0899  0.0713 -0.1246
  331loPI   C1A 5287   8.995   9.093   9.258  0.0782 -0.0288 -0.3079
  331loPI   C2A 5288   9.100   9.277   8.797 -0.1684  0.1764  0.2222
  331loPI   C3A 5289   8.893   9.416   8.401  0.1217 -0.0509  0.0260
  331loPI   C4A 5290   8.853   9.726   8.126 -0.1731 -0.1135 -0.2803
  331loPI   C5A 5291   8.900  10.173   7.941 -0.1148 -0.3599  0.3014
  331loPI   C6A 5292   9.063  10.606   7.892 -0.1393  0.0435  0.2419
  331loPI   C1B 5293   8.660   9.831   9.585  0.0557 -0.3246  0.1006
  331loPI   C2B 5294   8.487   9.851   9.200  0.0599 -0.2003  0.2092
  331loPI   C3B 5295   8.594   9.787   8.851 -0.0631 -0.1479 -0.0220
  331loPI   C4B 5296   8.508   9.796   8.450  0.3206  0.0677  0.2418
  332loPI    C1 5297   2.602  15.204  11.276 -0.3158 -0.1784  0.0025
  332loPI    C2 5298   2.833  15.331  11.577 -0.0752 -0.1274 -0.2001
  332loPI    C3 5299   2.575  15.031  11.635  0.0739 -0.2156  0.0183
  332loPI   PO4 5300   2.616  15.422  11.118 -0.3038  0.1039 -0.1964
  332loPI   GL1 5301   2.604  15.331  10.772  0.0900  0.0379  0.2895
  332loPI   GL2 5302   2.718  15.083  10.623  0.1941 -0.0340 -0.0671
  332loPI   C1A 5303   2.556  15.614  10.394  0.2625 -0.1575  0.0417
  332loPI   C2A 5304   2.565  15.820   9.952  0.2092 -0.2313  0.1498
  332loPI   C3A 5305   2.506  15.851   9.422 -0.0608  0.2215  0.0158
  332loPI   C4A 5306   2.579  15.742   8.992 -0.2342  0.0256 -0.1336
  332loPI   C5A 5307   2.496  15.725   8.594 -0.1413 -0.0850  0.2194
  332loPI   C6A 5308   2.638  16.026   8.257 -0.1583  0.0949 -0.2734
  332loPI   C1B 5309   2.835  15.013  10.235 -0.0775 -0.0359 -0.1069
  332loPI   C2B 5310   2.888  14.921   9.791  0.1538 -0.1537 -0.0035
  332loPI   C3B 5311   2.864  15.008   9.354  0.2168  0.1571  0.2396
  332loPI   C4B 5312   2.854  14.965   8.934  0.2438  0.0523  0.0410
  333loPI    C1 5313   5.483  10.845  10.789  0.2715 -0.0366  0.0588
  333loPI    C2 5314   5.738  10.778  11.090  0.0535 -0.0285  0.2482
  333loPI    C3 5315   5.481  11.084  11.110 -0.0164 -0.0758  0.0888
  333loPI   PO4 5316   5.528  10.616  10.627 -0.0756  0.2432 -0.4078
  333loPI   GL1 5317   5.411  10.489  10.116  0.0238 -0.3068  0.2990
  333loPI   GL2 5318   5.182  10.786  10.301 -0.2201 -0.1846 -0.1328
  333loPI   C1A 5319   5.291  10.679   9.691  0.0806 -0.1097 -0.1039
  333loPI   C2A 5320   5.314  10.664   9.211  0.1833  0.0967  0.0584
  333loPI   C3A 5321   5.362  10.746   8.739 -0.0434 -0.4436 -0.1206
  333loPI   C4A 5322   5.245  10.827   8.381  0.1197 -0.3531  0.1959
  333loPI   C5A 5323   5.246  11.165   8.128 -0.1235  0.0965  0.4857
  333loPI   C6A 5324   5.580  11.198   7.872  0.0556 -0.1509  0.0687
  333loPI   C1B 5325   4.928  10.984   9.931  0.0246 -0.0523  0.3764
  333loPI   C2B 5326   4.893  10.959   9.507  0.3488  0.2780  0.1587
  333loPI   C3B 5327   4.998  11.004   9.090  0.1517  0.0157  0.0236
  333loPI   C4B 5328   4.948  11.079   8.640  0.1073  0.2064 -0.1545
  334loPI    C1 5329  10.310  15.950  11.170  0.0410 -0.0393  0.0016
  334loPI    C2 5330  10.604  16.201  11.272  0.1207 -0.0526 -0.1897
  334loPI    C3 5331  10.222  16.310  11.320  0.1528 -0.1165  0.2573
  334loPI   PO4 5332  10.328  15.849  10.844 -0.1496  0.1167  0.0872
  334loPI   GL1 5333  10.226  15.628  10.559 -0.0181  0.4102  0.3856
  334loPI   GL2 5334  10.054  15.442  10.449  0.0745  0.3996 -0.2239
  334loPI   C1A 5335  10.256  15.832  10.130 -0.1330 -0.3755  0.1098
  334loPI   C2A 5336  10.283  16.117   9.913  0.2396  0.3806  0.1089
  334loPI   C3A 5337  10.248  16.002   9.560  0.3193  0.4354  0.3602
  334loPI   C4A 5338  10.349  16.034   9.116 -0.1013  0.0976 -0.2001
  334loPI   C5A 5339  10.372  15.976   8.699  0.2222  0.1331 -0.1931
  334loPI   C6A 5340  10.137  15.654   8.448 -0.0528 -0.0019 -0.1919
  334loPI   C1B 5341  10.170  15.331  10.088  0.0585 -0.2027 -0.0477
  334loPI   C2B 5342  10.244  15.530   9.722  0.2391 -0.0074 -0.2777
  334loPI   C3B 5343  10.244  15.514   9.305  0.2636  0.1828  0.0488
  334loPI   C4B 5344  10.232  15.487   8.907  0.4399  0.0288  0.0998
  335loPI    C1 5345   4.991   2.289  11.074  0.3122  0.0147 -0.1596
  335loPI    C2 5346   5.245   2.362  11.374  0.3087 -0.0978 -0.1290
  335loPI    C3 5347   4.909   2.156  11.442  0.0845  0.2644 -0.1169
  335loPI   PO4 5348   5.175   2.141  10.872 -0.4036 -0.1775  0.5308
  335loPI   GL1 5349   5.081   1.923  10.499 -0.0562 -0.2441  0.0602
  335loPI   GL2 5350   5.330   2.111  10.356  0.0962  0.0961 -0.1854
  335loPI   C1A 5351   4.924   1.749  10.190 -0.1270 -0.0246  0.1296
  335loPI   C2A 5352   5.015   1.893   9.794 -0.2955  0.1767  0.0363
  335loPI   C3A 5353   4.962   1.823   9.389  0.1457 -0.2946  0.2374
  335loPI   C4A 5354   4.911   1.939   9.008  0.0965 -0.2232  0.0059
  335loPI   C5A 5355   4.852   1.727   8.689  0.0535 -0.3820 -0.1480
  335loPI   C6A 5356   4.743   1.458   8.439  0.2366 -0.1820  0.1375
  335loPI   C1B 5357   5.384   2.178   9.880  0.2814  0.0793 -0.2433
  335loPI   C2B 5358   5.442   2.066   9.457  0.0321 -0.3770  0.2701
  335loPI   C3B 5359   5.414   1.996   9.010 -0.0416 -0.1009  0.3071
  335loPI   C4B 5360   5.506   1.938   8.557  0.1568 -0.0937 -0.3404
  336loPI    C1 5361   6.521   9.753  10.680  0.0388 -0.0595 -0.0600
  336loPI    C2 5362   6.139   9.635  10.669  0.0112  0.0384 -0.1653
  336loPI    C3 5363   6.232  10.000  10.804  0.1058 -0.1368  0.2592
  336loPI   PO4 5364   6.554   9.699  10.294  0.4029 -0.2197  0.3234
  336loPI   GL1 5365   6.790   9.759   9.937 -0.1050  0.1605 -0.1473
  336loPI   GL2 5366   7.152   9.720  10.091  0.2132  0.1773  0.2973
  336loPI   C1A 5367   6.793   9.973   9.575  0.2815  0.3507  0.1674
  336loPI   C2A 5368   6.734  10.129   9.177 -0.3920  0.1369 -0.5975
  336loPI   C3A 5369   6.763  10.207   8.735  0.0830  0.5738 -0.2331
  336loPI   C4A 5370   6.652  10.316   8.409 -0.2283 -0.0771 -0.0207
  336loPI   C5A 5371   6.694  10.433   8.073 -0.1754 -0.0204 -0.1231
  336loPI   C6A 5372   6.522  10.548   7.598 -0.1467  0.3273  0.2583
  336loPI   C1B 5373   7.309   9.680   9.689  0.1865  0.2807 -0.2184
  336loPI   C2B 5374   7.613   9.968   9.314  0.0310  0.1013 -0.0727
  336loPI   C3B 5375   7.698   9.902   8.903  0.0373 -0.1355  0.1090
  336loPI   C4B 5376   7.552   9.967   8.443  0.4890 -0.0394 -0.2592
  337loPI    C1 5377   0.068  17.542  11.191 -0.2854 -0.1554  0.0432
  337loPI    C2 5378   0.256  17.660  11.523  0.0749  0.0650 -0.2315
  337loPI    C3 5379  -0.019  17.370  11.542  0.0992  0.0646  0.2526
  337loPI   PO4 5380   0.315  17.791  10.977 -0.0002 -0.2374  0.1061
  337loPI   GL1 5381   0.321  17.967  10.653  0.1286  0.2144 -0.0229
  337loPI   GL2 5382   0.596  18.195  10.902 -0.1250 -0.1009  0.0702
  337loPI   C1A 5383   0.579  18.005  10.250 -0.0361  0.0871  0.0252
  337loPI   C2A 5384   0.519  17.984   9.833 -0.3218  0.1404 -0.0036
  337loPI   C3A 5385   0.571  17.945   9.353  0.1732 -0.1785  0.3860
  337loPI   C4A 5386   0.524  17.892   8.972 -0.0163 -0.0745  0.1254
  337loPI   C5A 5387   0.682  18.007   8.580  0.2874  0.0422  0.0842
  337loPI   C6A 5388   1.134  18.212   8.453  0.1615 -0.0376  0.0720
  337loPI   C1B 5389   0.557  18.446  10.480  0.1906  0.1172  0.0446
  337loPI   C2B 5390   0.591  18.445  10.070 -0.2571 -0.0331 -0.0568
  337loPI   C3B 5391   0.610  18.506   9.627 -0.0787 -0.0542  0.0081
  337loPI   C4B 5392   0.537  18.463   9.158  0.2689  0.2953  0.1001
  338loPI    C1 5393   6.999  15.229  10.923  0.3637 -0.2477  0.0476
  338loPI    C2 5394   7.180  15.570  11.030  0.0876 -0.0424 -0.1243
  338loPI    C3 5395   6.885  15.420  11.255 -0.0329  0.0251 -0.2361
  338loPI   PO4 5396   7.226  15.050  10.821 -0.0336 -0.1815  0.3830
  338loPI   GL1 5397   7.114  14.928  10.439  0.2021  0.1842 -0.1792
  338loPI   GL2 5398   7.015  14.597  10.403 -0.3221  0.1731 -0.0325
  338loPI   C1A 5399   7.387  14.882  10.019 -0.0785  0.0753 -0.3424
  338loPI   C2A 5400   7.349  14.783   9.551 -0.1503 -0.0874  0.2122
  338loPI   C3A 5401   7.353  14.849   9.144 -0.0291 -0.4750  0.4478
  338loPI   C4A 5402   7.294  14.904   8.664  0.2784  0.0250 -0.1410
  338loPI   C5A 5403   7.483  14.963   8.246 -0.0012 -0.2463 -0.3073
  338loPI   C6A 5404   7.642  15.330   8.101  0.1396 -0.3222 -0.1752
  338loPI   C1B 5405   6.841  14.635   9.954 -0.0528 -0.2894 -0.0681
  338loPI   C2B 5406   6.907  14.547   9.577 -0.0476 -0.1044  0.0316
  338loPI   C3B 5407   6.900  14.672   9.155  0.0904 -0.1146  0.1999
  338loPI   C4B 5408   6.880  14.564   8.710 -0.0318  0.0734 -0.2230
  339loPI    C1 5409   0.378  17.036  11.201 -0.2264  0.1241 -0.1195
  339loPI    C2 5410   0.431  17.177  11.572 -0.0487 -0.0156 -0.0903
  339loPI    C3 5411   0.157  16.894  11.503  0.0355 -0.1117 -0.0338
  339loPI   PO4 5412   0.304  17.170  11.029  0.1544 -0.0680  0.0018
  339loPI   GL1 5413   0.017  17.168  10.578  0.2576 -0.3504 -0.0839
  339loPI   GL2 5414   0.104  17.459  10.662 -0.0620  0.0067 -0.0584
  339loPI   C1A 5415  -0.126  17.190  10.203 -0.2428  0.0482  0.1093
  339loPI   C2A 5416  -0.102  17.185   9.815  0.0913  0.2133  0.5899
  339loPI   C3A 5417   0.028  17.250   9.258 -0.2056 -0.0433 -0.1495
  339loPI   C4A 5418  -0.013  17.218   8.781 -0.1966  0.0446  0.1931
  339loPI   C5A 5419   0.439  17.278   8.485 -0.1955  0.0980 -0.3695
  339loPI   C6A 5420   0.541  17.266   8.022  0.0453 -0.0942 -0.1089
  339loPI   C1B 5421   0.366  17.575  10.324  0.1713  0.2614  0.0765
  339loPI   C2B 5422   0.423  17.473   9.952  0.2746 -0.1385  0.0130
  339loPI   C3B 5423   0.470  17.458   9.494  0.1713 -0.1624 -0.0329
  339loPI   C4B 5424   0.453  17.361   9.065 -0.2483  0.0010  0.1616
  340loPI    C1 5425   9.557   5.987  10.039 -0.0012 -0.1972  0.3032
  340loPI    C2 5426   9.743   6.340  10.011 -0.0500 -0.1842  0.1304
  340loPI    C3 5427   9.812   6.101  10.324  0.2618 -0.1818  0.0667
  340loPI   PO4 5428   9.536   5.830   9.783 -0.2772  0.1767 -0.4034
  340loPI   GL1 5429   9.566   5.559   9.483  0.1729  0.1376  0.1335
  340loPI   GL2 5430   9.688   5.335   9.557 -0.1937 -0.0606  0.0584
  340loPI   C1A 5431   9.590   5.831   9.140  0.2214  0.4027 -0.0545
  340loPI   C2A 5432   9.517   5.656   8.749  0.1260 -0.1077 -0.0351
  340loPI   C3A 5433   9.484   5.848   8.345  0.0089 -0.0003  0.0364
  340loPI   C4A 5434   9.483   5.555   8.006 -0.1245 -0.0814 -0.1781
  340loPI   C5A 5435   9.802   5.610   7.690 -0.0782  0.3269  0.2248
  340loPI   C6A 5436   9.961   5.589   7.333 -0.3351 -0.2004 -0.0673
  340loPI   C1B 5437   9.514   5.311   9.117  0.1565 -0.0622  0.2784
  340loPI   C2B 5438   9.466   5.103   8.713 -0.0258  0.2082 -0.1277
  340loPI   C3B 5439   9.422   5.083   8.283 -0.2928 -0.2630 -0.3362
  340loPI   C4B 5440   9.317   4.989   7.885  0.0192 -0.1357  0.3180
  341loPI    C1 5441   8.875  16.980  11.169 -0.0683  0.2175  0.1339
  341loPI    C2 5442   9.233  17.154  11.203  0.0033  0.0828  0.0749
  341loPI    C3 5443   9.196  16.759  11.257 -0.1459  0.1043  0.1358
  341loPI   PO4 5444   8.802  17.034  10.991  0.3399  0.4574 -0.0042
  341loPI   GL1 5445   8.715  17.208  10.605 -0.2368  0.0758 -0.0910
  341loPI   GL2 5446   8.497  16.895  10.582  0.0156  0.0658  0.2233
  341loPI   C1A 5447   8.681  17.492  10.269 -0.0705  0.0112 -0.4168
  341loPI   C2A 5448   8.607  17.393   9.898  0.0944  0.0606 -0.0368
  341loPI   C3A 5449   8.548  17.254   9.451 -0.1549  0.1020  0.4102
  341loPI   C4A 5450   8.740  17.288   9.051  0.2893  0.0568 -0.0863
  341loPI   C5A 5451   8.753  16.938   8.663 -0.0894  0.1970  0.0218
  341loPI   C6A 5452   8.696  16.891   8.249  0.4001 -0.3003  0.0908
  341loPI   C1B 5453   8.515  16.939  10.189 -0.1064 -0.2731 -0.0591
  341loPI   C2B 5454   8.494  16.827   9.760  0.0248 -0.0436 -0.1344
  341loPI   C3B 5455   8.588  16.732   9.422 -0.0963  0.1668 -0.0266
  341loPI   C4B 5456   8.576  16.742   9.089  0.0789 -0.1746  0.2812
  342loPI    C1 5457   4.499   8.450  10.703  0.2155  0.0320 -0.0411
  342loPI    C2 5458   4.646   8.166  10.944  0.1909  0.0397 -0.0169
  342loPI    C3 5459   4.542   8.521  11.095 -0.0050 -0.0215 -0.0058
  342loPI   PO4 5460   4.313   8.250  10.529 -0.0034 -0.3649  0.3524
  342loPI   GL1 5461   4.251   8.282  10.106 -0.1232  0.2957 -0.0112
  342loPI   GL2 5462   4.451   7.979   9.910 -0.0783 -0.0257  0.4220
  342loPI   C1A 5463   4.137   8.255   9.655  0.1040  0.1864 -0.0314
  342loPI   C2A 5464   4.128   8.254   9.234  0.1373  0.1031 -0.0838
  342loPI   C3A 5465   4.094   8.200   8.750 -0.2510  0.1671 -0.2193
  342loPI   C4A 5466   3.906   8.274   8.265 -0.3249  0.3289 -0.0329
  342loPI   C5A 5467   3.981   8.197   7.840  0.1658 -0.1447  0.1264
  342loPI   C6A 5468   4.122   8.063   7.370 -0.0210 -0.3184 -0.0621
  342loPI   C1B 5469   4.547   7.953   9.486 -0.2535 -0.1065  0.2743
  342loPI   C2B 5470   4.454   7.941   9.066 -0.0466  0.0357  0.4287
  342loPI   C3B 5471   4.495   7.886   8.678  0.0232  0.2919  0.1051
  342loPI   C4B 5472   4.391   7.935   8.231 -0.1582 -0.4092 -0.1694
  343loPI    C1 5473  13.596   1.419  10.642  0.0160  0.0764  0.0094
  343loPI    C2 5474  13.336   1.200  10.853  0.0945  0.1234  0.1564
  343loPI    C3 5475  13.328   1.599  10.879  0.0675  0.1317  0.0259
  343loPI   PO4 5476  13.597   1.293  10.403 -0.1873 -0.1552  0.0388
  343loPI   GL1 5477  13.829   1.184  10.080  0.1414  0.1654  0.0643
  343loPI   GL2 5478  13.632   0.862  10.057  0.1583 -0.0712  0.1158
  343loPI   C1A 5479  14.068   1.048   9.888 -0.1366  0.2057  0.0197
  343loPI   C2A 5480  14.122   0.989   9.470  0.0182  0.3642 -0.2582
  343loPI   C3A 5481  14.003   0.990   9.117 -0.0845 -0.1971  0.0260
  343loPI   C4A 5482  14.024   1.003   8.541  0.4000  0.1294 -0.2917
  343loPI   C5A 5483  14.092   0.970   8.176  0.0280  0.3780  0.2293
  343loPI   C6A 5484  14.198   0.656   7.920  0.2137  0.0466 -0.3233
  343loPI   C1B 5485  13.604   0.830   9.585 -0.4256  0.3294  0.1452
  343loPI   C2B 5486  13.507   0.791   9.186 -0.2131  0.2802 -0.1659
  343loPI   C3B 5487  13.571   0.882   8.772  0.0193  0.2679 -0.0337
  343loPI   C4B 5488  13.603   0.645   8.381  0.1739 -0.0910  0.1008
  344loPI    C1 5489   6.373   5.248  10.414  0.0607 -0.0955  0.1850
  344loPI    C2 5490   6.478   4.864  10.449 -0.0544 -0.1265  0.1938
  344loPI    C3 5491   6.536   5.115  10.754 -0.1463 -0.1777  0.2542
  344loPI   PO4 5492   6.427   5.295  10.205 -0.4286  0.1220 -0.0054
  344loPI   GL1 5493   6.570   5.047   9.797 -0.2275 -0.0534 -0.1192
  344loPI   GL2 5494   6.475   4.840   9.655 -0.2797 -0.1043 -0.0173
  344loPI   C1A 5495   6.438   5.252   9.408  0.0359 -0.0038 -0.0662
  344loPI   C2A 5496   6.310   5.165   8.987 -0.0690  0.2288  0.0593
  344loPI   C3A 5497   6.346   5.290   8.569  0.0586 -0.0311 -0.1407
  344loPI   C4A 5498   6.292   5.664   8.461  0.2973 -0.1224 -0.0857
  344loPI   C5A 5499   6.475   5.857   8.049 -0.1063 -0.0623 -0.1099
  344loPI   C6A 5500   6.175   5.908   7.652 -0.0279 -0.1725  0.0042
  344loPI   C1B 5501   6.454   4.751   9.235 -0.2427  0.2043  0.0490
  344loPI   C2B 5502   6.287   4.650   8.846 -0.0985 -0.2066 -0.0732
  344loPI   C3B 5503   6.355   4.828   8.451 -0.0547 -0.0077  0.2644
  344loPI   C4B 5504   6.371   4.818   7.974  0.0372 -0.1050 -0.0644
  345loPI    C1 5505   1.046   6.689  10.501 -0.0841  0.0156 -0.0626
  345loPI    C2 5506   1.202   6.824  10.844 -0.0771  0.0744 -0.0889
  345loPI    C3 5507   0.805   6.815  10.795 -0.0757  0.1606 -0.1173
  345loPI   PO4 5508   1.216   6.803  10.319 -0.0326  0.1544 -0.1266
  345loPI   GL1 5509   1.360   6.763   9.949 -0.0502 -0.2389 -0.1929
  345loPI   GL2 5510   1.130   7.088   9.938 -0.0971 -0.3880 -0.0567
  345loPI   C1A 5511   1.506   6.791   9.554  0.2140 -0.2413 -0.1055
  345loPI   C2A 5512   1.520   6.802   9.102  0.1175 -0.1503 -0.1099
  345loPI   C3A 5513   1.568   6.741   8.730  0.2474 -0.0152 -0.4312
  345loPI   C4A 5514   1.615   6.768   8.292 -0.3261  0.3020  0.4176
  345loPI   C5A 5515   1.542   6.389   8.039 -0.0410  0.1546 -0.1831
  345loPI   C6A 5516   1.718   6.134   7.812  0.0037 -0.0911  0.2074
  345loPI   C1B 5517   1.081   7.145   9.463 -0.1476 -0.0926  0.0490
  345loPI   C2B 5518   1.191   7.132   9.065 -0.0061  0.1167  0.3214
  345loPI   C3B 5519   1.206   7.033   8.661  0.0986 -0.2485 -0.0772
  345loPI   C4B 5520   1.180   7.135   8.250 -0.1662  0.1168  0.0726
  346loPI    C1 5521   5.521  16.100  11.393  0.0037  0.1528  0.0023
  346loPI    C2 5522   5.845  16.285  11.249  0.1124 -0.0093  0.0355
  346loPI    C3 5523   5.736  16.339  11.630  0.0955  0.0513  0.0222
  346loPI   PO4 5524   5.424  16.042  11.181 -0.1233 -0.1053  0.2773
  346loPI   GL1 5525   5.423  16.223  10.738 -0.0675 -0.2024  0.0541
  346loPI   GL2 5526   5.193  16.460  10.602 -0.2365  0.4674 -0.0849
  346loPI   C1A 5527   5.722  16.202  10.385  0.3290 -0.2250 -0.1225
  346loPI   C2A 5528   5.705  16.181   9.941 -0.0839  0.0897  0.0889
  346loPI   C3A 5529   5.561  16.110   9.555 -0.0644 -0.0571  0.1479
  346loPI   C4A 5530   5.697  16.133   9.072  0.0096 -0.2364 -0.2281
  346loPI   C5A 5531   5.704  16.059   8.621  0.0616  0.2053 -0.0472
  346loPI   C6A 5532   5.880  15.894   8.222  0.0321 -0.2089  0.0508
  346loPI   C1B 5533   5.325  16.460  10.164  0.0303  0.3420 -0.0534
  346loPI   C2B 5534   5.346  16.525   9.692 -0.0353  0.1621  0.1629
  346loPI   C3B 5535   5.193  16.436   9.235  0.1639 -0.0544  0.1021
  346loPI   C4B 5536   5.319  16.394   8.819  0.0181  0.2030  0.0649
  347loPI    C1 5537   6.473  12.525  11.211 -0.0812  0.0871 -0.0474
  347loPI    C2 5538   6.515  12.174  11.400  0.0959 -0.0085 -0.2599
  347loPI    C3 5539   6.247  12.441  11.530  0.0477 -0.1711 -0.0212
  347loPI   PO4 5540   6.564  12.498  10.964  0.0129 -0.1699  0.0552
  347loPI   GL1 5541   6.286  12.456  10.567 -0.0256 -0.0389  0.2757
  347loPI   GL2 5542   6.467  12.413  10.391  0.2198 -0.1453 -0.1382
  347loPI   C1A 5543   6.160  12.813  10.175 -0.1829  0.0835  0.5111
  347loPI   C2A 5544   6.099  12.936   9.748 -0.0040 -0.1266  0.0250
  347loPI   C3A 5545   6.156  12.873   9.431  0.1005 -0.2164  0.3530
  347loPI   C4A 5546   6.182  12.885   8.950  0.1203 -0.1955 -0.0379
  347loPI   C5A 5547   6.174  12.807   8.518 -0.0563  0.3681  0.1114
  347loPI   C6A 5548   6.202  12.666   8.125 -0.2874  0.2379 -0.0824
  347loPI   C1B 5549   6.327  12.293  10.021  0.1229  0.1847  0.1083
  347loPI   C2B 5550   6.004  12.415   9.778 -0.0256  0.2509  0.2725
  347loPI   C3B 5551   6.104  12.349   9.286 -0.3062  0.0614 -0.4445
  347loPI   C4B 5552   6.160  12.408   9.034  0.0025  0.0862  0.2134
  348loPI    C1 5553   7.823  17.065  11.149 -0.0622 -0.1950 -0.0658
  348loPI    C2 5554   8.020  16.957  11.480 -0.1391 -0.0414  0.0312
  348loPI    C3 5555   7.749  17.252  11.495 -0.1837 -0.0713 -0.1571
  348loPI   PO4 5556   7.751  16.811  11.064 -0.1326  0.1528  0.3079
  348loPI   GL1 5557   7.643  16.742  10.678 -0.0660 -0.2051  0.0169
  348loPI   GL2 5558   7.990  16.827  10.656  0.1653  0.0304  0.1696
  348loPI   C1A 5559   7.654  16.963  10.271  0.1941  0.0074  0.0165
  348loPI   C2A 5560   7.652  16.872   9.827  0.3422 -0.1594 -0.1974
  348loPI   C3A 5561   7.632  16.894   9.486  0.0488 -0.4756  0.2933
  348loPI   C4A 5562   7.656  16.888   9.064  0.2354 -0.1806  0.5556
  348loPI   C5A 5563   7.607  16.711   8.657 -0.2162 -0.0120  0.1443
  348loPI   C6A 5564   7.563  16.439   8.318  0.0223 -0.0536  0.0051
  348loPI   C1B 5565   8.123  16.699  10.238 -0.0958  0.1155  0.1609
  348loPI   C2B 5566   8.039  16.515   9.726 -0.2695 -0.0331 -0.1773
  348loPI   C3B 5567   8.068  16.553   9.287 -0.0636  0.2753  0.1712
  348loPI   C4B 5568   8.028  16.528   8.958  0.1409  0.0440  0.0036
  349loPI    C1 5569   4.687  17.755  11.340 -0.0197 -0.0340  0.0797
  349loPI    C2 5570   4.545  18.127  11.370  0.0265  0.0002 -0.1097
  349loPI    C3 5571   4.314  17.816  11.470  0.0449  0.0862  0.2108
  349loPI   PO4 5572   4.851  17.720  11.010  0.1032 -0.1096 -0.1768
  349loPI   GL1 5573   4.908  17.583  10.627 -0.0952  0.0004  0.0471
  349loPI   GL2 5574   4.861  17.369  10.612 -0.4735 -0.0368 -0.1456
  349loPI   C1A 5575   5.052  17.837  10.302 -0.0445 -0.0462 -0.1698
  349loPI   C2A 5576   5.102  17.849   9.890 -0.2336 -0.0826 -0.3826
  349loPI   C3A 5577   5.007  17.888   9.569 -0.1072  0.1163 -0.2944
  349loPI   C4A 5578   5.116  17.853   9.108 -0.3277 -0.3718 -0.0334
  349loPI   C5A 5579   4.967  17.822   8.638 -0.3119  0.0590  0.2550
  349loPI   C6A 5580   5.085  17.489   8.398  0.2987 -0.2417  0.2724
  349loPI   C1B 5581   5.008  17.298  10.237 -0.1790 -0.1812  0.1788
  349loPI   C2B 5582   4.963  17.419   9.770  0.0103  0.1492  0.0238
  349loPI   C3B 5583   5.061  17.219   9.394  0.2343 -0.1803  0.0319
  349loPI   C4B 5584   5.080  17.265   8.845  0.0326 -0.1562  0.3193
  350loPI    C1 5585   9.407   5.555  10.299  0.2454  0.0325 -0.1601
  350loPI    C2 5586   9.353   5.886  10.517 -0.0213 -0.0422 -0.1087
  350loPI    C3 5587   9.401   5.532  10.698  0.1524 -0.0488 -0.1655
  350loPI   PO4 5588   9.271   5.536  10.103  0.0944 -0.1754  0.1848
  350loPI   GL1 5589   9.162   5.443   9.692  0.2981  0.2406 -0.1344
  350loPI   GL2 5590   9.031   5.668   9.443  0.0315  0.0577 -0.4059
  350loPI   C1A 5591   9.084   5.118   9.274 -0.1355  0.0618 -0.0622
  350loPI   C2A 5592   9.029   4.920   8.869 -0.1694 -0.1911  0.1579
  350loPI   C3A 5593   8.956   4.926   8.470 -0.2375  0.1624 -0.1152
  350loPI   C4A 5594   8.860   4.864   8.008  0.2548 -0.1390 -0.0347
  350loPI   C5A 5595   8.909   4.934   7.557  0.1956  0.2773  0.0680
  350loPI   C6A 5596   9.061   5.083   7.237 -0.0680 -0.2287 -0.2633
  350loPI   C1B 5597   9.107   5.562   9.022 -0.2603  0.0611  0.1948
  350loPI   C2B 5598   9.071   5.434   8.622  0.3403 -0.0092  0.4367
  350loPI   C3B 5599   8.943   5.364   8.228  0.0410 -0.1480 -0.0049
  350loPI   C4B 5600   8.925   5.359   7.842 -0.0050 -0.5367 -0.2385
  351loPI    C1 5601   9.848   4.650  10.408  0.1282 -0.1766  0.1009
  351loPI    C2 5602   9.814   4.365  10.686 -0.0601 -0.1676  0.0880
  351loPI    C3 5603   9.505   4.608  10.609  0.0256 -0.1032 -0.0565
  351loPI   PO4 5604   9.900   4.540  10.193  0.0364 -0.0097  0.2555
  351loPI   GL1 5605   9.695   4.510   9.728  0.0040  0.3003 -0.1847
  351loPI   GL2 5606   9.834   4.250   9.750  0.1023  0.2076  0.1576
  351loPI   C1A 5607   9.410   4.671   9.450 -0.1353 -0.1079  0.1559
  351loPI   C2A 5608   9.409   4.595   9.005 -0.1621  0.0911  0.1456
  351loPI   C3A 5609   9.395   4.626   8.568 -0.0213  0.2116  0.1343
  351loPI   C4A 5610   9.344   4.537   8.133 -0.4486 -0.0499  0.3538
  351loPI   C5A 5611   9.196   4.505   7.758  0.0323  0.0504 -0.0866
  351loPI   C6A 5612   8.782   4.379   7.628  0.1543  0.1267  0.0657
  351loPI   C1B 5613   9.817   4.356   9.332  0.1055  0.1070 -0.1937
  351loPI   C2B 5614   9.817   4.303   8.954  0.0142 -0.1819 -0.0436
  351loPI   C3B 5615   9.797   4.274   8.507  0.1245 -0.1238 -0.4470
  351loPI   C4B 5616   9.734   4.097   8.118  0.0445 -0.0827 -0.2202
  352loPI    C1 5617  10.490  10.681  10.350 -0.0956  0.0078  0.1774
  352loPI    C2 5618  10.534  11.068  10.440 -0.0689  0.0914 -0.1817
  352loPI    C3 5619  10.168  10.909  10.419 -0.0805  0.0991 -0.0457
  352loPI   PO4 5620  10.592  10.610  10.172  0.0013 -0.1320 -0.1887
  352loPI   GL1 5621  10.579  10.910   9.880  0.0703  0.0735  0.2648
  352loPI   GL2 5622  10.314  11.100   9.939 -0.1468 -0.2731 -0.1125
  352loPI   C1A 5623  10.663  11.100   9.461  0.0528  0.1282 -0.4482
  352loPI   C2A 5624  10.385  11.089   9.075 -0.1553  0.0490 -0.2562
  352loPI   C3A 5625  10.155  10.916   8.754  0.0797  0.1318  0.3643
  352loPI   C4A 5626  10.074  10.895   8.382 -0.2094 -0.1262  0.1620
  352loPI   C5A 5627  10.102  10.833   7.903  0.2526  0.1954 -0.2185
  352loPI   C6A 5628  10.074  10.885   7.403  0.1497 -0.4257 -0.0883
  352loPI   C1B 5629  10.129  10.897   9.567 -0.1012  0.0039  0.3606
  352loPI   C2B 5630   9.781  10.831   9.261  0.2814  0.1305 -0.0929
  352loPI   C3B 5631   9.682  10.825   8.874 -0.0040 -0.0859  0.1315
  352loPI   C4B 5632   9.324  10.622   8.731  0.4442  0.1220 -0.2040
  353loPI    C1 5633  11.404  16.122  11.094 -0.0127 -0.1333  0.0819
  353loPI    C2 5634  11.781  16.158  11.223  0.0434 -0.0969 -0.0893
  353loPI    C3 5635  11.479  16.298  11.445  0.1346 -0.0751  0.0222
  353loPI   PO4 5636  11.359  16.155  10.922 -0.1490 -0.2933  0.1803
  353loPI   GL1 5637  11.391  15.853  10.566  0.1576  0.1004 -0.2490
  353loPI   GL2 5638  11.148  15.940  10.429  0.0764  0.0823 -0.1749
  353loPI   C1A 5639  11.676  16.010  10.191 -0.2781 -0.4609  0.2000
  353loPI   C2A 5640  11.660  16.093   9.813 -0.1499 -0.0744  0.3502
  353loPI   C3A 5641  11.629  16.151   9.406 -0.0262  0.1218 -0.1515
  353loPI   C4A 5642  11.644  16.106   9.010  0.0822 -0.1068 -0.0453
  353loPI   C5A 5643  11.777  16.120   8.559 -0.0078  0.0730  0.0240
  353loPI   C6A 5644  12.054  15.984   8.370 -0.2462  0.0001 -0.0883
  353loPI   C1B 5645  11.172  15.911  10.045 -0.1304 -0.1674 -0.2025
  353loPI   C2B 5646  11.205  15.895   9.511  0.1502  0.0197 -0.1225
  353loPI   C3B 5647  11.253  15.830   9.078  0.1634 -0.0736 -0.0845
  353loPI   C4B 5648  11.349  15.961   8.617  0.1254  0.0598  0.0789
  354loPI    C1 5649  14.735   0.552  10.739  0.0820  0.1843 -0.0513
  354loPI    C2 5650  14.966   0.859  10.852  0.1858  0.0258  0.1738
  354loPI    C3 5651  14.625   0.781  11.047  0.0565  0.1194 -0.0119
  354loPI   PO4 5652  14.798   0.564  10.456 -0.5211  0.0603 -0.0172
  354loPI   GL1 5653  14.853   0.348  10.100 -0.0692  0.0055 -0.0116
  354loPI   GL2 5654  14.840   0.749   9.986  0.2250  0.1516 -0.1471
  354loPI   C1A 5655  14.777   0.356   9.610  0.1925 -0.1648 -0.0077
  354loPI   C2A 5656  14.817   0.388   9.226  0.0296 -0.1706 -0.1029
  354loPI   C3A 5657  14.856   0.415   8.790 -0.0928  0.2427  0.0820
  354loPI   C4A 5658  14.942   0.349   8.416 -0.0298  0.0399  0.0944
  354loPI   C5A 5659  15.064   0.043   8.130  0.2773  0.1487  0.0597
  354loPI   C6A 5660  15.132  -0.326   7.804  0.3511  0.3171 -0.0661
  354loPI   C1B 5661  14.853   0.844   9.571 -0.0022  0.2144 -0.0028
  354loPI   C2B 5662  14.904   0.934   9.134  0.2877  0.0370  0.4891
  354loPI   C3B 5663  14.912   0.881   8.700  0.0910  0.3558 -0.0083
  354loPI   C4B 5664  14.929   0.831   8.340 -0.1362  0.2393  0.3287
  355loPI    C1 5665  17.090   9.425  10.037  0.1620 -0.0122  0.0871
  355loPI    C2 5666  16.950   9.179  10.320  0.0866  0.0354  0.0913
  355loPI    C3 5667  17.223   9.456  10.413  0.1709 -0.0460  0.0867
  355loPI   PO4 5668  17.222   9.269   9.765 -0.1030  0.0229  0.0253
  355loPI   GL1 5669  17.278   9.198   9.327 -0.0419 -0.3301 -0.2991
  355loPI   GL2 5670  16.947   9.048   9.374 -0.0678  0.0384  0.1753
  355loPI   C1A 5671  17.647   8.979   9.236  0.1285  0.0879 -0.0815
  355loPI   C2A 5672  17.930   8.822   8.999 -0.0197  0.1368 -0.0090
  355loPI   C3A 5673  18.117   8.840   8.551 -0.0435 -0.0772  0.2062
  355loPI   C4A 5674  18.193   8.814   8.017 -0.2322  0.0382  0.1075
  355loPI   C5A 5675  18.268   9.107   7.609 -0.1956 -0.1683 -0.3404
  355loPI   C6A 5676  18.629   9.106   7.328  0.1495  0.2152 -0.2038
  355loPI   C1B 5677  16.647   9.122   9.108 -0.6293  0.1866  0.2146
  355loPI   C2B 5678  16.683   9.031   8.786 -0.0880 -0.2643 -0.0724
  355loPI   C3B 5679  16.734   9.278   8.503 -0.1490 -0.2405  0.0076
  355loPI   C4B 5680  16.884   9.092   8.193  0.0071 -0.2147  0.1729
  356loPI    C1 5681   1.505   1.750  11.287  0.0165  0.2276 -0.0550
  356loPI    C2 5682   1.752   1.619  11.573  0.1406  0.3732 -0.0940
  356loPI    C3 5683   1.381   1.734  11.666 -0.0281 -0.1549 -0.0820
  356loPI   PO4 5684   1.418   1.531  10.977 -0.4422  0.1634  0.1605
  356loPI   GL1 5685   1.462   1.260  10.657  0.0668 -0.1985  0.0796
  356loPI   GL2 5686   1.166   1.320  10.571 -0.1492  0.1600  0.1035
  356loPI   C1A 5687   1.571   0.965  10.303 -0.0705  0.1755  0.2759
  356loPI   C2A 5688   1.641   0.964   9.847 -0.0551  0.0330 -0.1787
  356loPI   C3A 5689   1.607   0.930   9.470 -0.1966  0.2286  0.0583
  356loPI   C4A 5690   1.711   0.997   9.035  0.4419 -0.1779 -0.3057
  356loPI   C5A 5691   1.690   0.824   8.622  0.0438 -0.1074  0.0362
  356loPI   C6A 5692   1.417   0.615   8.146 -0.0533 -0.1978  0.2423
  356loPI   C1B 5693   1.230   1.270  10.162 -0.0883 -0.0602  0.1059
  356loPI   C2B 5694   1.236   1.344   9.702 -0.0950 -0.4019 -0.2174
  356loPI   C3B 5695   1.243   1.220   9.258 -0.0718  0.1166  0.1626
  356loPI   C4B 5696   1.285   1.202   8.867  0.0087  0.0138 -0.0320
  357loPI    C1 5697  13.155   8.842  10.061  0.1190 -0.0368 -0.2700
  357loPI    C2 5698  13.555   8.839  10.079  0.1124 -0.1111 -0.1213
  357loPI    C3 5699  13.339   8.744  10.402 -0.0290  0.2634 -0.1000
  357loPI   PO4 5700  13.086   9.023   9.865  0.0918  0.0465  0.0983
  357loPI   GL1 5701  12.943   8.941   9.492  0.1688  0.2265  0.1767
  357loPI   GL2 5702  13.163   9.262   9.416 -0.1633  0.0905  0.2513
  357loPI   C1A 5703  12.856   8.753   9.054  0.3320  0.0655  0.5406
  357loPI   C2A 5704  12.541   8.528   8.759  0.1019 -0.1095  0.2271
  357loPI   C3A 5705  12.334   8.536   8.384  0.1221  0.0904  0.0120
  357loPI   C4A 5706  12.170   8.322   8.059 -0.2547 -0.2159 -0.0624
  357loPI   C5A 5707  11.988   8.237   7.599 -0.0619  0.0854 -0.1492
  357loPI   C6A 5708  12.158   8.106   7.114 -0.0530 -0.0203 -0.0103
  357loPI   C1B 5709  13.411   9.454   9.172 -0.3072 -0.0382  0.1782
  357loPI   C2B 5710  13.296   9.358   8.830 -0.0693  0.3032  0.3030
  357loPI   C3B 5711  13.316   9.324   8.433  0.0961 -0.1854 -0.1031
  357loPI   C4B 5712  13.350   8.920   8.208  0.5307 -0.0720 -0.1571
  358loPI    C1 5713   1.048   3.835  10.942  0.0977 -0.0717 -0.0591
  358loPI    C2 5714   0.896   3.539  11.165  0.0375 -0.0192 -0.0298
  358loPI    C3 5715   1.291   3.603  11.159  0.0512 -0.1043 -0.0416
  358loPI   PO4 5716   0.937   3.723  10.668  0.2825 -0.3097  0.1077
  358loPI   GL1 5717   0.905   3.580  10.262  0.0630  0.4382  0.2657
  358loPI   GL2 5718   1.142   3.273  10.430  0.2083 -0.3208  0.0367
  358loPI   C1A 5719   0.973   3.770   9.872 -0.2557  0.2233 -0.1061
  358loPI   C2A 5720   1.020   3.699   9.454 -0.1713 -0.4796 -0.1449
  358loPI   C3A 5721   1.130   3.684   9.095 -0.0790 -0.1693  0.2794
  358loPI   C4A 5722   1.136   3.570   8.717  0.1453  0.0738 -0.1171
  358loPI   C5A 5723   1.191   3.611   8.337  0.0404  0.1649  0.0883
  358loPI   C6A 5724   1.635   3.708   8.122 -0.3455 -0.3095 -0.0079
  358loPI   C1B 5725   1.328   3.280  10.003  0.1538 -0.1448  0.2976
  358loPI   C2B 5726   1.497   3.345   9.568 -0.2552 -0.3193  0.1192
  358loPI   C3B 5727   1.499   3.332   9.155 -0.1889  0.0099 -0.0951
  358loPI   C4B 5728   1.614   3.311   8.728 -0.0126 -0.0521 -0.2819
  359loPI    C1 5729   4.361  16.662  11.168 -0.1645  0.0646 -0.2569
  359loPI    C2 5730   4.208  16.370  10.940 -0.1473 -0.0530 -0.1192
  359loPI    C3 5731   4.088  16.412  11.320 -0.0995  0.0772 -0.1176
  359loPI   PO4 5732   4.319  16.874  11.021  0.0477 -0.1729  0.1535
  359loPI   GL1 5733   4.281  16.899  10.654 -0.0965 -0.0624  0.0507
  359loPI   GL2 5734   4.242  16.629  10.490  0.0942 -0.2788 -0.2210
  359loPI   C1A 5735   4.416  17.159  10.358 -0.0774 -0.0903  0.2035
  359loPI   C2A 5736   4.481  17.192   9.950  0.1264  0.2122  0.1682
  359loPI   C3A 5737   4.418  17.115   9.519  0.3035  0.0941 -0.3636
  359loPI   C4A 5738   4.573  17.104   9.186 -0.0971  0.1009  0.2421
  359loPI   C5A 5739   4.610  17.041   8.706  0.1935 -0.0415 -0.0838
  359loPI   C6A 5740   4.909  16.929   8.440  0.3670  0.1324  0.0595
  359loPI   C1B 5741   4.391  16.731  10.084  0.2141  0.0598 -0.1308
  359loPI   C2B 5742   4.422  16.636   9.716  0.0276  0.0331  0.2193
  359loPI   C3B 5743   4.311  16.565   9.206  0.2174 -0.2070  0.1252
  359loPI   C4B 5744   4.349  16.578   8.816 -0.2691  0.2431  0.3532
  360loPI    C1 5745   6.489  14.375  10.870  0.0411  0.2188  0.1819
  360loPI    C2 5746   6.193  14.369  11.139 -0.1482  0.2497 -0.0223
  360loPI    C3 5747   6.574  14.350  11.259 -0.2414 -0.1784  0.2235
  360loPI   PO4 5748   6.425  14.319  10.604  0.2530 -0.1501  0.1499
  360loPI   GL1 5749   6.503  14.582  10.284  0.1619  0.2545  0.2470
  360loPI   GL2 5750   6.297  14.335  10.115  0.0637 -0.2237 -0.4039
  360loPI   C1A 5751   6.401  14.883   9.906 -0.1968  0.0013  0.1840
  360loPI   C2A 5752   6.500  14.986   9.502 -0.0931 -0.0016  0.1052
  360loPI   C3A 5753   6.443  14.974   9.039 -0.0314  0.1801 -0.2091
  360loPI   C4A 5754   6.402  15.005   8.537 -0.0912 -0.1022  0.1068
  360loPI   C5A 5755   6.266  15.173   8.197 -0.0007 -0.2295  0.0323
  360loPI   C6A 5756   6.154  15.020   7.811  0.1045 -0.2118 -0.0311
  360loPI   C1B 5757   6.457  14.344   9.771 -0.0502 -0.2364  0.2104
  360loPI   C2B 5758   6.451  14.518   9.373 -0.3061 -0.0361 -0.1015
  360loPI   C3B 5759   6.377  14.429   8.926  0.3457  0.0876  0.0488
  360loPI   C4B 5760   6.332  14.493   8.494 -0.0903  0.0033  0.2076
  361loPI    C1 5761  17.704   3.178  10.740  0.1213 -0.1912  0.1189
  361loPI    C2 5762  17.384   3.312  10.938  0.1105  0.2333 -0.1718
  361loPI    C3 5763  17.678   3.127  11.136 -0.2269 -0.0017  0.1246
  361loPI   PO4 5764  17.687   3.277  10.502  0.1769  0.0139  0.1467
  361loPI   GL1 5765  17.749   3.463  10.197 -0.0241  0.3364 -0.1326
  361loPI   GL2 5766  17.939   3.625  10.069 -0.0969  0.0163 -0.0723
  361loPI   C1A 5767  17.886   3.167   9.868 -0.0811  0.0405 -0.0834
  361loPI   C2A 5768  18.007   3.108   9.458  0.1943  0.3890 -0.2407
  361loPI   C3A 5769  18.036   3.104   9.009  0.0787 -0.3319  0.1050
  361loPI   C4A 5770  18.105   3.022   8.692 -0.1339  0.0622  0.0488
  361loPI   C5A 5771  18.159   3.007   8.255 -0.0877 -0.3078  0.0250
  361loPI   C6A 5772  18.303   3.461   8.003  0.1606  0.2376 -0.2415
  361loPI   C1B 5773  18.011   3.570   9.661 -0.0575 -0.0242  0.3482
  361loPI   C2B 5774  18.089   3.592   9.278 -0.3597  0.0630  0.0081
  361loPI   C3B 5775  18.134   3.642   8.901  0.2092  0.0777  0.2544
  361loPI   C4B 5776  18.118   3.581   8.505  0.1139 -0.1229  0.0305
  362loPI    C1 5777  10.629  10.153  10.484  0.0885 -0.0487  0.1861
  362loPI    C2 5778  10.711  10.326  10.836  0.0872 -0.0883  0.2060
  362loPI    C3 5779  10.936  10.408  10.515  0.1848 -0.1717  0.2526
  362loPI   PO4 5780  10.345  10.202  10.341 -0.5307  0.1495 -0.3337
  362loPI   GL1 5781  10.410  10.247   9.885  0.2095 -0.0649  0.0487
  362loPI   GL2 5782  10.643  10.442   9.699 -0.2503  0.0058  0.1635
  362loPI   C1A 5783  10.179  10.331   9.589  0.0926  0.0418  0.1839
  362loPI   C2A 5784  10.044  10.457   9.057  0.2635 -0.0761 -0.0014
  362loPI   C3A 5785   9.973  10.443   8.623  0.1248 -0.0875 -0.2232
  362loPI   C4A 5786   9.642  10.595   8.334 -0.2308 -0.2381 -0.2673
  362loPI   C5A 5787   9.631  10.723   7.946  0.2008  0.2903  0.1796
  362loPI   C6A 5788   9.602  10.938   7.578 -0.0345 -0.0820 -0.3514
  362loPI   C1B 5789  10.509  10.643   9.294 -0.0471  0.2261  0.1337
  362loPI   C2B 5790  10.424  10.552   8.716  0.0042 -0.0002 -0.0239
  362loPI   C3B 5791  10.528  10.572   8.290 -0.2166  0.1318 -0.0620
  362loPI   C4B 5792  10.845  10.651   7.958 -0.1891  0.2426  0.0272
  363loPI    C1 5793   8.032  14.914  10.830 -0.0874 -0.1107 -0.0989
  363loPI    C2 5794   7.985  14.579  11.045 -0.2175  0.0285  0.0925
  363loPI    C3 5795   7.695  14.855  11.036 -0.2679 -0.0305 -0.3656
  363loPI   PO4 5796   8.082  14.820  10.635  0.1557  0.0660 -0.0487
  363loPI   GL1 5797   8.055  14.698  10.269  0.2608  0.3639 -0.1232
  363loPI   GL2 5798   8.139  14.498  10.134 -0.0280 -0.2390  0.2715
  363loPI   C1A 5799   7.890  15.056   9.958  0.0235  0.0700  0.2932
  363loPI   C2A 5800   7.803  15.062   9.487  0.1761 -0.1383 -0.1273
  363loPI   C3A 5801   7.844  15.104   8.996 -0.3045 -0.1958 -0.3162
  363loPI   C4A 5802   7.834  15.090   8.586  0.0113  0.4397  0.2773
  363loPI   C5A 5803   8.103  15.304   8.202  0.0990 -0.1824  0.2014
  363loPI   C6A 5804   8.371  15.280   7.809 -0.4099 -0.0042  0.1896
  363loPI   C1B 5805   8.199  14.793   9.717  0.0959 -0.1896  0.2321
  363loPI   C2B 5806   8.229  14.747   9.310 -0.0882 -0.0203  0.1559
  363loPI   C3B 5807   8.223  14.796   8.925  0.2112  0.1567 -0.0660
  363loPI   C4B 5808   8.187  14.719   8.549 -0.0373 -0.1345  0.2493
  364loPI    C1 5809   4.107   5.206  10.869  0.0138 -0.1246 -0.1737
  364loPI    C2 5810   3.932   4.860  10.771  0.0448 -0.1611 -0.1013
  364loPI    C3 5811   3.722   5.146  10.956  0.0021 -0.1155 -0.2190
  364loPI   PO4 5812   4.159   5.371  10.681  0.0192  0.0228 -0.0955
  364loPI   GL1 5813   4.008   5.518  10.413  0.1149  0.1093 -0.0774
  364loPI   GL2 5814   3.751   5.805  10.233 -0.3379 -0.0133 -0.1381
  364loPI   C1A 5815   4.029   5.373   9.995 -0.1216 -0.1613  0.0344
  364loPI   C2A 5816   4.097   5.386   9.533  0.2344  0.1697 -0.0988
  364loPI   C3A 5817   4.001   5.369   9.092 -0.1501  0.0467  0.1258
  364loPI   C4A 5818   4.036   5.313   8.684  0.3220  0.0926 -0.2528
  364loPI   C5A 5819   4.088   5.371   8.254 -0.3282  0.0113  0.0757
  364loPI   C6A 5820   4.117   5.577   7.815  0.1355  0.0592 -0.0641
  364loPI   C1B 5821   3.697   5.696   9.771  0.0290  0.1159  0.0957
  364loPI   C2B 5822   3.653   5.671   9.331 -0.1419 -0.0893  0.1269
  364loPI   C3B 5823   3.625   5.676   8.968 -0.0574  0.1166  0.0009
  364loPI   C4B 5824   3.670   5.628   8.529 -0.0772  0.0216  0.0364
  365loPI    C1 5825  16.438   3.373  10.434 -0.1735  0.3384 -0.0641
  365loPI    C2 5826  16.550   3.495  10.798 -0.1864  0.0367  0.0437
  365loPI    C3 5827  16.244   3.240  10.758  0.2019 -0.4173 -0.1277
  365loPI   PO4 5828  16.655   3.319  10.278  0.4167 -0.2379 -0.0808
  365loPI   GL1 5829  16.920   3.367   9.971 -0.3136 -0.0611 -0.0910
  365loPI   GL2 5830  17.030   3.223   9.759  0.2050  0.1793  0.1665
  365loPI   C1A 5831  16.794   3.622   9.568  0.1106  0.2434 -0.1473
  365loPI   C2A 5832  16.708   3.657   9.187  0.0871  0.3006 -0.0938
  365loPI   C3A 5833  16.765   3.521   8.737 -0.0232 -0.1690  0.1320
  365loPI   C4A 5834  16.829   3.497   8.331 -0.0003  0.1053  0.1303
  365loPI   C5A 5835  16.988   3.502   7.949  0.1641 -0.3172 -0.0422
  365loPI   C6A 5836  16.968   3.563   7.454 -0.3456  0.1424  0.2021
  365loPI   C1B 5837  17.146   3.394   9.357  0.4128 -0.2708  0.0387
  365loPI   C2B 5838  17.162   3.249   8.936  0.0697 -0.3735 -0.3845
  365loPI   C3B 5839  17.172   3.243   8.552  0.1517  0.0080 -0.0165
  365loPI   C4B 5840  17.377   3.157   8.117 -0.0479  0.2642 -0.1384
  366loPI    C1 5841  17.309   6.864  10.235  0.4065  0.1154  0.0083
  366loPI    C2 5842  17.404   6.782  10.615 -0.0898 -0.0324  0.1074
  366loPI    C3 5843  17.382   7.162  10.492 -0.0247  0.0189  0.2524
  366loPI   PO4 5844  17.122   6.708  10.244  0.0432 -0.3842  0.0032
  366loPI   GL1 5845  17.028   6.609   9.855 -0.0575  0.2154 -0.3533
  366loPI   GL2 5846  17.310   6.493   9.803 -0.2021  0.1228 -0.0823
  366loPI   C1A 5847  17.100   6.709   9.361 -0.2929 -0.0144  0.2164
  366loPI   C2A 5848  17.217   6.701   8.864  0.0297 -0.1676 -0.1007
  366loPI   C3A 5849  17.186   6.581   8.410  0.0933 -0.0795  0.3789
  366loPI   C4A 5850  17.267   6.447   7.939 -0.3779  0.1745  0.2015
  366loPI   C5A 5851  17.602   6.248   7.699 -0.0663 -0.0180 -0.1521
  366loPI   C6A 5852  17.623   5.850   7.755 -0.2875 -0.1851  0.3094
  366loPI   C1B 5853  17.588   6.364   9.511  0.0114  0.0500  0.2826
  366loPI   C2B 5854  17.647   6.356   9.063  0.0027 -0.0691  0.2768
  366loPI   C3B 5855  17.600   6.366   8.641 -0.1656  0.0965 -0.1814
  366loPI   C4B 5856  17.746   6.344   8.251  0.1692 -0.0405  0.1087
  367loPI    C1 5857   7.693   5.513  10.441 -0.1122  0.0316 -0.4145
  367loPI    C2 5858   8.059   5.421  10.574 -0.2234  0.1035 -0.0486
  367loPI    C3 5859   7.827   5.137  10.413 -0.0766  0.0199 -0.1147
  367loPI   PO4 5860   7.734   5.563  10.100 -0.0452  0.0831  0.1207
  367loPI   GL1 5861   7.802   5.569   9.597  0.1278  0.6663  0.0909
  367loPI   GL2 5862   7.417   5.698   9.720 -0.0370  0.0644 -0.0727
  367loPI   C1A 5863   7.790   5.422   9.144 -0.2797  0.1750 -0.0507
  367loPI   C2A 5864   7.730   5.397   8.719 -0.1042  0.3009  0.1813
  367loPI   C3A 5865   7.646   5.460   8.354 -0.1058 -0.1606 -0.1199
  367loPI   C4A 5866   7.520   5.564   7.960  0.1068 -0.0832 -0.1170
  367loPI   C5A 5867   7.561   5.878   7.667  0.0042  0.1997 -0.1350
  367loPI   C6A 5868   7.227   6.200   7.697  0.2542  0.2263 -0.0034
  367loPI   C1B 5869   7.416   5.690   9.304  0.3751  0.2030  0.0169
  367loPI   C2B 5870   7.396   5.734   8.922 -0.0171  0.1950  0.1303
  367loPI   C3B 5871   7.319   5.739   8.515 -0.0716 -0.1286  0.0775
  367loPI   C4B 5872   7.428   6.045   8.126 -0.0634 -0.1575  0.0111
  368loPI    C1 5873  10.462   2.393  10.841  0.0105  0.0210  0.0455
  368loPI    C2 5874  10.483   2.723  11.065  0.0348 -0.0689  0.1764
  368loPI    C3 5875  10.431   2.366  11.239  0.1026 -0.1446  0.0424
  368loPI   PO4 5876  10.375   2.408  10.528  0.2859  0.0091  0.1675
  368loPI   GL1 5877  10.098   2.317  10.139  0.1834 -0.3374  0.2154
  368loPI   GL2 5878  10.427   2.326   9.976 -0.0269  0.1326  0.0633
  368loPI   C1A 5879   9.703   2.339   9.968 -0.1650  0.2389 -0.0929
  368loPI   C2A 5880   9.550   2.180   9.507 -0.0328 -0.0302 -0.2119
  368loPI   C3A 5881   9.598   2.196   9.093  0.2014 -0.2073 -0.0187
  368loPI   C4A 5882   9.508   2.138   8.727  0.0658 -0.0728  0.1026
  368loPI   C5A 5883   9.483   2.086   8.251  0.2066 -0.0789  0.0407
  368loPI   C6A 5884   9.239   1.999   7.803 -0.2307 -0.1016 -0.2682
  368loPI   C1B 5885  10.426   2.104   9.545 -0.1324 -0.0023  0.2425
  368loPI   C2B 5886  10.517   2.052   9.168  0.0907 -0.0688  0.4312
  368loPI   C3B 5887  10.368   2.132   8.660 -0.2376  0.2130 -0.3728
  368loPI   C4B 5888  10.360   1.961   8.244 -0.0590 -0.3341 -0.1689
  369loPI    C1 5889   7.800  17.732  10.975 -0.0416  0.1418 -0.1007
  369loPI    C2 5890   7.994  17.725  11.325 -0.2005  0.0666 -0.0130
  369loPI    C3 5891   7.798  18.054  11.211 -0.0728  0.1222 -0.0741
  369loPI   PO4 5892   7.673  17.516  10.994 -0.1042 -0.0377  0.0443
  369loPI   GL1 5893   7.681  17.234  10.658 -0.1901 -0.2003  0.0345
  369loPI   GL2 5894   7.324  17.408  10.519  0.1995 -0.0233  0.0215
  369loPI   C1A 5895   7.712  17.434  10.206  0.1779  0.0418  0.3200
  369loPI   C2A 5896   7.691  17.463   9.806 -0.3688 -0.2602 -0.1889
  369loPI   C3A 5897   7.757  17.570   9.359  0.2395  0.0515  0.0133
  369loPI   C4A 5898   7.814  17.396   8.908 -0.1414 -0.0140 -0.1774
  369loPI   C5A 5899   7.874  17.174   8.458  0.1728 -0.0010 -0.0303
  369loPI   C6A 5900   7.819  16.808   8.155 -0.1173 -0.3538  0.1156
  369loPI   C1B 5901   7.195  17.296  10.082  0.0200 -0.0335  0.0246
  369loPI   C2B 5902   7.296  17.189   9.677  0.1901 -0.2153 -0.0917
  369loPI   C3B 5903   7.263  17.243   9.188  0.2727  0.2368  0.1428
  369loPI   C4B 5904   7.338  17.166   8.736 -0.3245 -0.0749  0.1490
  370loPI    C1 5905  14.631  13.572  10.651  0.0228 -0.1843  0.1068
  370loPI    C2 5906  14.824  13.693  10.980  0.0873 -0.0393  0.0166
  370loPI    C3 5907  14.663  13.327  10.965 -0.0652  0.0152  0.2734
  370loPI   PO4 5908  14.442  13.765  10.565 -0.2450 -0.0384 -0.0540
  370loPI   GL1 5909  14.384  14.008  10.180  0.0561  0.0833 -0.2753
  370loPI   GL2 5910  14.361  14.431  10.246  0.0996  0.1372  0.0165
  370loPI   C1A 5911  14.159  14.049   9.846  0.0244  0.0351  0.1998
  370loPI   C2A 5912  14.101  14.086   9.412  0.0377 -0.0986  0.0512
  370loPI   C3A 5913  14.104  14.034   8.978 -0.1393 -0.0298  0.0229
  370loPI   C4A 5914  14.121  14.140   8.557  0.2867 -0.1179  0.2698
  370loPI   C5A 5915  13.981  14.373   8.182 -0.1189 -0.2681 -0.0302
  370loPI   C6A 5916  14.043  14.416   7.813 -0.0300  0.2876 -0.0001
  370loPI   C1B 5917  14.221  14.550   9.893  0.1501  0.2151 -0.1456
  370loPI   C2B 5918  14.185  14.548   9.523  0.1304 -0.2370 -0.0774
  370loPI   C3B 5919  14.197  14.554   9.066  0.3678 -0.0736  0.0318
  370loPI   C4B 5920  14.201  14.666   8.583 -0.0276 -0.1535  0.2725
  371loPI    C1 5921   0.965   0.649  11.224 -0.1220  0.4325  0.0607
  371loPI    C2 5922   0.780   0.536  11.560 -0.0212 -0.0192 -0.0291
  371loPI    C3 5923   1.115   0.754  11.580 -0.0034 -0.0626  0.1641
  371loPI   PO4 5924   0.767   0.704  11.034  0.3124 -0.2414 -0.1512
  371loPI   GL1 5925   0.850   0.928  10.640 -0.2095 -0.2429 -0.0341
  371loPI   GL2 5926   0.632   1.007  10.477 -0.2868  0.2387  0.1046
  371loPI   C1A 5927   1.068   0.737  10.370 -0.0539 -0.0766 -0.0964
  371loPI   C2A 5928   1.097   0.767   9.927 -0.0076  0.1544  0.0595
  371loPI   C3A 5929   1.177   0.626   9.504 -0.3928 -0.1437  0.1261
  371loPI   C4A 5930   1.238   0.717   9.137  0.1790  0.1300 -0.1213
  371loPI   C5A 5931   1.223   0.674   8.723 -0.1049  0.0887 -0.0642
  371loPI   C6A 5932   1.141   0.341   8.498  0.1399 -0.0504 -0.1008
  371loPI   C1B 5933   0.793   1.128  10.021 -0.4146  0.1793  0.4074
  371loPI   C2B 5934   0.849   1.092   9.639 -0.0798 -0.0106  0.0162
  371loPI   C3B 5935   0.785   1.091   9.187  0.2669 -0.2028 -0.0776
  371loPI   C4B 5936   0.843   1.074   8.774  0.0041  0.1240 -0.1488
  372loPI    C1 5937   3.968  12.238  11.128 -0.1163  0.0402  0.0386
  372loPI    C2 5938   4.071  11.971  11.408 -0.0026  0.1077  0.0618
  372loPI    C3 5939   3.960  12.341  11.514  0.0391  0.1329  0.0180
  372loPI   PO4 5940   3.770  12.086  10.973 -0.2001  0.1725  0.1069
  372loPI   GL1 5941   3.541  12.265  10.575 -0.0112  0.0888 -0.0446
  372loPI   GL2 5942   3.168  12.254  10.549 -0.3054  0.1789 -0.1467
  372loPI   C1A 5943   3.768  12.480  10.312  0.3787  0.2001 -0.0265
  372loPI   C2A 5944   3.761  12.499   9.886  0.0251 -0.0419 -0.1576
  372loPI   C3A 5945   3.780  12.473   9.370  0.1855 -0.0353  0.0580
  372loPI   C4A 5946   3.804  12.456   8.970 -0.2846 -0.0718 -0.2963
  372loPI   C5A 5947   3.713  12.494   8.537 -0.0149  0.1626  0.4242
  372loPI   C6A 5948   3.396  12.517   8.168 -0.1177  0.0010  0.1000
  372loPI   C1B 5949   3.294  12.339  10.118 -0.2104 -0.0168  0.2650
  372loPI   C2B 5950   3.301  12.350   9.694 -0.0006 -0.0144 -0.0332
  372loPI   C3B 5951   3.291  12.282   9.162 -0.0763  0.0332  0.2073
  372loPI   C4B 5952   3.264  12.291   8.730 -0.1519  0.1316  0.0942
  373loPI    C1 5953   4.217  11.254  10.978 -0.0947  0.0797 -0.2988
  373loPI    C2 5954   4.212  11.548  11.249  0.1253 -0.0156 -0.1891
  373loPI    C3 5955   3.971  11.232  11.293  0.0583  0.0362 -0.1817
  373loPI   PO4 5956   4.280  11.335  10.826  0.0976 -0.2735  0.3451
  373loPI   GL1 5957   4.249  11.354  10.376 -0.0360  0.0030 -0.1776
  373loPI   GL2 5958   4.310  11.687  10.469  0.1981  0.1174  0.2082
  373loPI   C1A 5959   4.031  11.290   9.828 -0.0684 -0.0376 -0.0625
  373loPI   C2A 5960   4.062  11.213   9.438  0.0950 -0.0813  0.3040
  373loPI   C3A 5961   4.092  11.113   9.029 -0.0547  0.0042 -0.2044
  373loPI   C4A 5962   4.036  11.065   8.534 -0.1178 -0.2961  0.0205
  373loPI   C5A 5963   4.501  10.957   8.257 -0.1651  0.0571 -0.3140
  373loPI   C6A 5964   4.878  10.777   8.080  0.0491 -0.2162  0.0337
  373loPI   C1B 5965   4.111  11.712  10.056 -0.0477 -0.0414  0.0153
  373loPI   C2B 5966   4.151  11.750   9.591 -0.1527 -0.0504 -0.2201
  373loPI   C3B 5967   4.160  11.727   9.138  0.0727  0.1390 -0.0890
  373loPI   C4B 5968   4.165  11.750   8.663 -0.0151  0.0748 -0.0095
  374loPI    C1 5969   2.916  12.085  10.983 -0.0354 -0.1481 -0.0583
  374loPI    C2 5970   3.062  12.019  11.349 -0.0046  0.0957 -0.0251
  374loPI    C3 5971   3.244  12.278  11.105 -0.1794  0.1374 -0.1132
  374loPI   PO4 5972   2.909  11.772  10.837 -0.0768 -0.1383  0.2972
  374loPI   GL1 5973   3.049  11.646  10.444  0.1610  0.2290  0.2918
  374loPI   GL2 5974   3.192  11.827  10.293 -0.0971 -0.0551 -0.6335
  374loPI   C1A 5975   3.113  11.231  10.035  0.0950  0.3919  0.0386
  374loPI   C2A 5976   3.260  11.321   9.625  0.1117 -0.1678 -0.0613
  374loPI   C3A 5977   3.128  11.322   9.204 -0.0454 -0.0906  0.0318
  374loPI   C4A 5978   3.222  11.271   8.743  0.1477 -0.1238 -0.4627
  374loPI   C5A 5979   3.035  11.070   8.330  0.1178  0.2386  0.0497
  374loPI   C6A 5980   2.919  11.437   8.061 -0.0540 -0.0874 -0.0046
  374loPI   C1B 5981   3.272  11.856   9.994 -0.0350 -0.0536 -0.6563
  374loPI   C2B 5982   3.258  11.856   9.458  0.0097 -0.0919  0.0215
  374loPI   C3B 5983   3.290  11.749   8.949 -0.4617 -0.2459 -0.0521
  374loPI   C4B 5984   3.246  11.734   8.483  0.0731 -0.1016 -0.1450
  375loPI    C1 5985  10.168   5.024  10.293  0.2445  0.1823 -0.2314
  375loPI    C2 5986  10.224   5.082  10.685  0.0096  0.0230 -0.1713
  375loPI    C3 5987  10.382   4.761  10.506 -0.1489 -0.0733 -0.1401
  375loPI   PO4 5988  10.168   5.221  10.197  0.1473 -0.0022  0.0120
  375loPI   GL1 5989  10.252   5.493   9.792  0.0578  0.2098 -0.4497
  375loPI   GL2 5990  10.424   5.673   9.665  0.1883 -0.1610  0.1969
  375loPI   C1A 5991  10.140   5.188   9.358  0.2757  0.2318  0.1276
  375loPI   C2A 5992  10.253   5.047   8.950  0.0816 -0.0512  0.0082
  375loPI   C3A 5993  10.390   4.916   8.556 -0.1387 -0.0144 -0.2981
  375loPI   C4A 5994  10.325   4.987   8.071 -0.0230  0.2210  0.2179
  375loPI   C5A 5995  10.447   4.969   7.634 -0.2577 -0.2851  0.0604
  375loPI   C6A 5996  10.471   4.938   7.236  0.0162  0.0291 -0.1097
  375loPI   C1B 5997  10.491   5.521   9.236  0.0567  0.3397  0.5551
  375loPI   C2B 5998  10.477   5.442   8.736 -0.0204 -0.0225 -0.1363
  375loPI   C3B 5999  10.339   5.449   8.279 -0.2057  0.0580  0.0042
  375loPI   C4B 6000  10.301   5.462   7.892  0.1488 -0.1543  0.0063
  376loPI    C1 6001   1.954  14.770  11.079 -0.0830  0.0973 -0.2507
  376loPI    C2 6002   2.162  14.459  11.222 -0.3687  0.0487  0.0724
  376loPI    C3 6003   2.278  14.832  11.306 -0.3582  0.0224  0.1751
  376loPI   PO4 6004   1.915  14.736  10.913  0.0169  0.2639  0.1063
  376loPI   GL1 6005   1.971  14.717  10.497  0.0150 -0.1915 -0.2859
  376loPI   GL2 6006   1.749  14.440  10.439 -0.1589  0.0575 -0.0615
  376loPI   C1A 6007   2.357  14.749  10.215  0.0711  0.1634  0.0260
  376loPI   C2A 6008   2.314  14.776   9.893  0.3918  0.0856  0.1432
  376loPI   C3A 6009   2.397  14.840   9.503  0.2956 -0.2626  0.0126
  376loPI   C4A 6010   2.344  14.857   9.079 -0.0080 -0.1610 -0.2564
  376loPI   C5A 6011   2.362  14.786   8.643  0.0272 -0.2820  0.0821
  376loPI   C6A 6012   2.107  14.670   8.268  0.0977 -0.1558  0.0695
  376loPI   C1B 6013   1.819  14.578   9.997 -0.1473 -0.1150  0.1275
  376loPI   C2B 6014   1.904  14.639   9.597 -0.1830 -0.2348 -0.1735
  376loPI   C3B 6015   1.850  14.736   9.162  0.2350  0.1593  0.0361
  376loPI   C4B 6016   1.756  14.640   8.719 -0.2047 -0.1441 -0.2258
  377loPI    C1 6017  18.056   6.600  10.482 -0.0629  0.1027 -0.0601
  377loPI    C2 6018  18.251   6.747  10.799 -0.0170 -0.0395 -0.0211
  377loPI    C3 6019  17.873   6.620  10.837 -0.0170 -0.0415 -0.0277
  377loPI   PO4 6020  18.210   6.607  10.282 -0.3697  0.1594  0.3321
  377loPI   GL1 6021  18.327   6.853   9.977 -0.1414  0.1285 -0.1724
  377loPI   GL2 6022  18.694   6.918  10.040 -0.1548  0.1401 -0.1417
  377loPI   C1A 6023  18.513   6.786   9.557  0.0083 -0.1636  0.0404
  377loPI   C2A 6024  18.585   6.665   9.128  0.2469  0.0326 -0.1028
  377loPI   C3A 6025  18.770   6.752   8.760 -0.3778 -0.1657  0.2283
  377loPI   C4A 6026  18.608   6.742   8.337 -0.1422 -0.0333 -0.2915
  377loPI   C5A 6027  18.644   6.580   7.826 -0.2014  0.4756  0.1478
  377loPI   C6A 6028  18.856   6.732   7.431  0.0988 -0.3446 -0.1129
  377loPI   C1B 6029  18.977   6.947   9.718 -0.0887 -0.3897  0.1741
  377loPI   C2B 6030  18.995   6.902   9.279 -0.0924  0.2391 -0.1796
  377loPI   C3B 6031  19.199   6.880   8.942 -0.1360 -0.1350 -0.1521
  377loPI   C4B 6032  19.116   6.853   8.369  0.1225 -0.0133  0.0469
  378loPI    C1 6033  15.578  17.231  11.000  0.1467 -0.0914 -0.0803
  378loPI    C2 6034  15.972  17.288  11.046  0.1559  0.0211 -0.2911
  378loPI    C3 6035  15.717  17.414  11.328  0.2818 -0.2089 -0.0709
  378loPI   PO4 6036  15.574  17.089  10.751  0.0776 -0.0405  0.1100
  378loPI   GL1 6037  15.532  17.013  10.348  0.0668 -0.2000  0.0270
  378loPI   GL2 6038  15.769  16.728  10.393  0.0049 -0.1317 -0.0810
  378loPI   C1A 6039  15.409  17.077   9.931  0.2798 -0.1727  0.0440
  378loPI   C2A 6040  15.461  17.068   9.522  0.1555  0.0485  0.1578
  378loPI   C3A 6041  15.441  17.121   9.051 -0.2335 -0.0212  0.3136
  378loPI   C4A 6042  15.435  16.956   8.675 -0.1237 -0.1277 -0.2565
  378loPI   C5A 6043  15.269  16.965   8.179 -0.2467  0.1310  0.0602
  378loPI   C6A 6044  15.082  17.193   7.980  0.2898 -0.2741  0.1274
  378loPI   C1B 6045  15.884  16.795  10.007 -0.0152  0.0818  0.1036
  378loPI   C2B 6046  15.850  16.770   9.594 -0.2114  0.0656  0.1024
  378loPI   C3B 6047  15.902  16.749   9.082  0.2413  0.2340  0.0092
  378loPI   C4B 6048  15.844  16.674   8.636  0.3749  0.1935  0.0058
  379loPI    C1 6049  13.104   5.463   9.944  0.3634 -0.1561  0.2582
  379loPI    C2 6050  12.844   5.390  10.239  0.0003 -0.0654 -0.0328
  379loPI    C3 6051  13.006   5.086  10.035  0.1248 -0.1223  0.1491
  379loPI   PO4 6052  12.993   5.586   9.822 -0.2076 -0.2890 -0.0344
  379loPI   GL1 6053  12.943   5.631   9.341  0.1020 -0.1207 -0.1824
  379loPI   GL2 6054  12.743   5.475   9.283  0.0856 -0.0110  0.0455
  379loPI   C1A 6055  12.970   5.817   8.873  0.1929  0.1182 -0.0502
  379loPI   C2A 6056  12.872   5.771   8.388  0.1231 -0.1328  0.2863
  379loPI   C3A 6057  12.895   5.723   7.947 -0.0170  0.1188 -0.0767
  379loPI   C4A 6058  12.977   5.875   7.630  0.0220 -0.1000 -0.0078
  379loPI   C5A 6059  12.874   5.749   7.281 -0.0585 -0.3479  0.1505
  379loPI   C6A 6060  12.476   5.573   7.084 -0.1241  0.3277 -0.0912
  379loPI   C1B 6061  12.602   5.483   8.782 -0.0573 -0.1850 -0.1253
  379loPI   C2B 6062  12.603   5.401   8.471  0.1095  0.1321 -0.0135
  379loPI   C3B 6063  12.653   5.225   8.048  0.1435  0.1396 -0.0847
  379loPI   C4B 6064  12.652   5.333   7.660  0.1280 -0.2795 -0.0642
  380loPI    C1 6065   7.562   1.455  11.211  0.1127  0.0025 -0.1038
  380loPI    C2 6066   7.959   1.491  11.182  0.1161  0.1443  0.0958
  380loPI    C3 6067   7.788   1.445  11.540 -0.0720  0.3959  0.0407
  380loPI   PO4 6068   7.516   1.591  11.030 -0.1702 -0.1850 -0.1076
  380loPI   GL1 6069   7.462   1.451  10.641  0.0136  0.1495 -0.1533
  380loPI   GL2 6070   7.815   1.433  10.638 -0.0873 -0.0616  0.2877
  380loPI   C1A 6071   7.491   1.500  10.299 -0.0906  0.2661 -0.1575
  380loPI   C2A 6072   7.599   1.587   9.872  0.0299  0.0386  0.3598
  380loPI   C3A 6073   7.596   1.521   9.464  0.0679  0.2174 -0.0084
  380loPI   C4A 6074   7.659   1.419   9.041  0.0400 -0.2316 -0.0658
  380loPI   C5A 6075   7.713   1.491   8.634  0.2785 -0.2170 -0.1794
  380loPI   C6A 6076   7.717   1.306   8.270 -0.1587  0.1746 -0.0934
  380loPI   C1B 6077   7.957   1.302  10.180 -0.4954 -0.0890  0.0642
  380loPI   C2B 6078   7.984   1.190   9.795  0.0931 -0.1981  0.0043
  380loPI   C3B 6079   8.040   1.120   9.326  0.0134  0.2107 -0.1276
  380loPI   C4B 6080   8.026   1.075   8.890  0.2958 -0.1267 -0.0861
  381loPI    C1 6081  11.097  17.024  11.090  0.2524  0.1347 -0.0603
  381loPI    C2 6082  11.342  16.852  11.355  0.0814  0.0248  0.0283
  381loPI    C3 6083  11.192  17.215  11.429  0.2034  0.0854 -0.0185
  381loPI   PO4 6084  11.214  16.877  10.836  0.0263  0.1813  0.0195
  381loPI   GL1 6085  11.411  16.691  10.564  0.0691  0.1168 -0.0596
  381loPI   GL2 6086  11.347  16.411  10.400  0.2851 -0.0561 -0.4001
  381loPI   C1A 6087  11.696  16.717  10.229  0.4149 -0.0262 -0.1821
  381loPI   C2A 6088  11.782  16.719   9.899  0.0803 -0.0817 -0.0116
  381loPI   C3A 6089  11.628  16.655   9.538 -0.1902 -0.0920 -0.2610
  381loPI   C4A 6090  11.710  16.691   9.091  0.0211  0.2408  0.0171
  381loPI   C5A 6091  11.813  16.589   8.739 -0.1097  0.1830  0.0851
  381loPI   C6A 6092  11.930  16.658   8.254  0.0942  0.1206  0.2165
  381loPI   C1B 6093  11.324  16.467   9.990  0.0898  0.3204  0.0549
  381loPI   C2B 6094  11.230  16.402   9.639  0.2349 -0.0386  0.0680
  381loPI   C3B 6095  11.267  16.416   9.163 -0.0439  0.1030 -0.2647
  381loPI   C4B 6096  11.344  16.470   8.789  0.0620  0.3542 -0.0048
  382loPI    C1 6097   3.727  13.667  11.285  0.1014  0.2149 -0.2341
  382loPI    C2 6098   3.521  13.804  11.600 -0.0873 -0.1238 -0.2049
  382loPI    C3 6099   3.864  13.606  11.656 -0.1516 -0.2366 -0.2072
  382loPI   PO4 6100   3.671  13.805  11.058 -0.0427 -0.2724 -0.1086
  382loPI   GL1 6101   3.724  13.716  10.698  0.0140 -0.3520  0.0143
  382loPI   GL2 6102   3.439  13.950  10.603 -0.0938  0.0513 -0.0564
  382loPI   C1A 6103   3.952  13.542  10.329 -0.2012  0.0376 -0.1340
  382loPI   C2A 6104   3.981  13.614   9.872 -0.1609  0.1175 -0.2101
  382loPI   C3A 6105   3.886  13.519   9.479 -0.2033  0.0865 -0.0389
  382loPI   C4A 6106   3.978  13.483   9.065  0.0280  0.0673  0.1120
  382loPI   C5A 6107   3.963  13.379   8.642  0.1390  0.1891 -0.0750
  382loPI   C6A 6108   3.797  12.918   8.365  0.3070 -0.0198  0.0217
  382loPI   C1B 6109   3.586  13.790  10.168  0.5452  0.1965  0.1987
  382loPI   C2B 6110   3.521  13.815   9.681  0.2506  0.3528  0.1469
  382loPI   C3B 6111   3.596  13.848   9.224 -0.2049 -0.1456  0.2378
  382loPI   C4B 6112   3.590  13.811   8.813  0.0640 -0.1519  0.1355
  383loPI    C1 6113   3.176  16.307  11.268  0.0191  0.2257 -0.0518
  383loPI    C2 6114   3.225  16.696  11.190  0.1773  0.2061 -0.0536
  383loPI    C3 6115   3.189  16.571  11.568  0.0499  0.2304 -0.0572
  383loPI   PO4 6116   3.109  16.214  10.983  0.1162  0.0564  0.2558
  383loPI   GL1 6117   3.184  16.095  10.598  0.1766 -0.0465  0.1546
  383loPI   GL2 6118   3.446  16.354  10.591  0.1406 -0.0618  0.2510
  383loPI   C1A 6119   2.996  16.084  10.142  0.3888  0.3104  0.1715
  383loPI   C2A 6120   2.983  15.971   9.770 -0.0791 -0.0576  0.1152
  383loPI   C3A 6121   3.005  15.950   9.284 -0.2051  0.1248  0.2813
  383loPI   C4A 6122   3.056  15.943   8.850  0.0333 -0.0899 -0.0270
  383loPI   C5A 6123   3.021  15.820   8.524  0.0216 -0.0846  0.1476
  383loPI   C6A 6124   3.157  16.001   8.102 -0.2900 -0.3173 -0.1011
  383loPI   C1B 6125   3.499  16.261  10.199  0.3638  0.0691 -0.1634
  383loPI   C2B 6126   3.435  16.251   9.776  0.1985  0.1887  0.0098
  383loPI   C3B 6127   3.423  16.177   9.393 -0.1870  0.2012 -0.0210
  383loPI   C4B 6128   3.503  16.055   8.971  0.2866  0.0770  0.3111
  384loPI    C1 6129   9.428  16.467  10.889 -0.3402 -0.0124 -0.1055
  384loPI    C2 6130   9.576  16.411  11.256 -0.2819  0.4607 -0.0515
  384loPI    C3 6131   9.214  16.269  11.164 -0.0769 -0.1348  0.0151
  384loPI   PO4 6132   9.492  16.326  10.710 -0.2364  0.0670 -0.0796
  384loPI   GL1 6133   9.433  16.024  10.332  0.1447 -0.0155 -0.0171
  384loPI   GL2 6134   9.193  16.305  10.295  0.0227 -0.0316 -0.1545
  384loPI   C1A 6135   9.406  16.096   9.904  0.1844 -0.2830  0.0798
  384loPI   C2A 6136   9.377  16.194   9.465 -0.0406 -0.1263 -0.0270
  384loPI   C3A 6137   9.365  16.186   9.016  0.0265  0.0076 -0.0680
  384loPI   C4A 6138   9.548  16.148   8.629  0.4056 -0.0513 -0.0247
  384loPI   C5A 6139   9.930  16.186   8.338 -0.0306 -0.2017 -0.0041
  384loPI   C6A 6140  10.185  16.529   8.419 -0.0997  0.0434  0.1962
  384loPI   C1B 6141   9.372  16.615   9.992 -0.0963  0.1187  0.0104
  384loPI   C2B 6142   9.523  16.709   9.614 -0.1181  0.2495  0.0840
  384loPI   C3B 6143   9.450  16.712   9.122 -0.2163  0.2678 -0.1995
  384loPI   C4B 6144   9.534  16.671   8.750  0.1068  0.0508 -0.3681
  385loPI    C1 6145   1.275   9.400  10.559  0.0487 -0.0095 -0.4553
  385loPI    C2 6146   1.458   9.751  10.506  0.0337  0.0591 -0.0737
  385loPI    C3 6147   1.222   9.694  10.824 -0.0321 -0.2692 -0.1779
  385loPI   PO4 6148   1.146   9.351  10.342 -0.2102  0.0279 -0.1042
  385loPI   GL1 6149   1.052   9.372   9.939  0.0022 -0.0512  0.0932
  385loPI   GL2 6150   1.324   9.341   9.870 -0.1085 -0.0365 -0.0404
  385loPI   C1A 6151   1.061   9.474   9.451  0.0316  0.2543  0.1867
  385loPI   C2A 6152   1.006   9.454   9.036 -0.0376 -0.0589  0.2640
  385loPI   C3A 6153   1.038   9.464   8.587 -0.0102  0.0417 -0.1958
  385loPI   C4A 6154   1.112   9.564   8.141  0.2689  0.0772 -0.1569
  385loPI   C5A 6155   0.730   9.638   7.913 -0.1116  0.0400 -0.2634
  385loPI   C6A 6156   0.617   9.497   7.498 -0.1516 -0.0349  0.0694
  385loPI   C1B 6157   1.534   9.617   9.518 -0.1602 -0.2090  0.0713
  385loPI   C2B 6158   1.487   9.690   9.076 -0.1580  0.1639  0.0957
  385loPI   C3B 6159   1.576   9.701   8.703  0.1694 -0.1591 -0.2289
  385loPI   C4B 6160   1.615   9.707   8.320 -0.2270 -0.1008  0.0122
  386loPI    C1 6161   1.595   8.157  10.417  0.0141  0.1749 -0.0193
  386loPI    C2 6162   1.918   8.071  10.198 -0.1763 -0.0319 -0.2248
  386loPI    C3 6163   1.912   7.983  10.589  0.0116 -0.0339 -0.2212
  386loPI   PO4 6164   1.366   8.094  10.236 -0.3057 -0.1334 -0.4677
  386loPI   GL1 6165   1.267   8.254   9.836 -0.1049  0.2852  0.1116
  386loPI   GL2 6166   1.321   8.515   9.880 -0.3495  0.1049  0.1537
  386loPI   C1A 6167   1.300   8.092   9.395 -0.1727  0.1429  0.2846
  386loPI   C2A 6168   1.407   8.094   9.009  0.0600  0.0233  0.1563
  386loPI   C3A 6169   1.276   8.046   8.647  0.0921  0.1961 -0.1083
  386loPI   C4A 6170   1.272   8.093   8.249  0.1848 -0.1260 -0.1284
  386loPI   C5A 6171   0.932   8.115   7.833 -0.1366  0.1412  0.2333
  386loPI   C6A 6172   1.118   8.155   7.340  0.1657  0.0345 -0.1454
  386loPI   C1B 6173   1.350   8.609   9.392 -0.0714 -0.0127  0.1365
  386loPI   C2B 6174   1.436   8.688   8.887 -0.1084  0.1411 -0.2066
  386loPI   C3B 6175   1.469   8.583   8.511 -0.1747  0.0696  0.1047
  386loPI   C4B 6176   1.252   8.605   8.080  0.1709  0.0820 -0.1964
  387loPI    C1 6177  14.065   7.661  10.065 -0.2431  0.0785  0.0461
  387loPI    C2 6178  13.972   7.823  10.419  0.1445 -0.1637  0.2658
  387loPI    C3 6179  14.351   7.828  10.289  0.0131 -0.1146 -0.1307
  387loPI   PO4 6180  13.952   7.782   9.819  0.0762  0.0366 -0.3817
  387loPI   GL1 6181  13.829   8.129   9.535 -0.1862  0.1651 -0.1593
  387loPI   GL2 6182  14.084   8.240   9.337 -0.1609  0.3862  0.1178
  387loPI   C1A 6183  13.676   7.918   9.120  0.3216 -0.3133 -0.0768
  387loPI   C2A 6184  13.535   8.175   8.785  0.0379  0.2335  0.0741
  387loPI   C3A 6185  13.433   8.406   8.435  0.2390  0.1345  0.1720
  387loPI   C4A 6186  13.164   8.279   8.115  0.0576 -0.3820  0.0939
  387loPI   C5A 6187  12.997   8.425   7.641 -0.1616 -0.2703  0.3839
  387loPI   C6A 6188  13.142   8.326   7.259  0.2111 -0.1545  0.0995
  387loPI   C1B 6189  14.088   8.153   8.943 -0.0134  0.1568  0.1789
  387loPI   C2B 6190  13.941   8.332   8.582 -0.2209 -0.3086 -0.0119
  387loPI   C3B 6191  14.139   8.325   8.207  0.0415 -0.1304  0.2658
  387loPI   C4B 6192  14.269   8.546   7.840 -0.2610 -0.0078  0.0690
  388loPI    C1 6193   8.814  16.473  11.096  0.0380  0.1013  0.0583
  388loPI    C2 6194   8.685  16.205  11.364  0.0540 -0.0782 -0.1112
  388loPI    C3 6195   8.836  16.555  11.487  0.0644 -0.1600  0.1133
  388loPI   PO4 6196   8.651  16.487  10.945  0.1890 -0.0457 -0.1154
  388loPI   GL1 6197   8.361  16.419  10.498 -0.1225  0.1204 -0.1057
  388loPI   GL2 6198   8.692  16.408  10.443 -0.0130 -0.2439  0.3235
  388loPI   C1A 6199   8.330  16.307  10.051  0.0392 -0.1028 -0.0248
  388loPI   C2A 6200   8.537  16.148   9.736 -0.1545  0.4403  0.1552
  388loPI   C3A 6201   8.475  16.250   9.303  0.0426  0.0322  0.0568
  388loPI   C4A 6202   8.502  16.306   8.833  0.3735  0.2590  0.1798
  388loPI   C5A 6203   8.379  16.084   8.542 -0.0144 -0.0872 -0.1005
  388loPI   C6A 6204   8.253  15.752   8.478  0.2332  0.1047  0.1077
  388loPI   C1B 6205   8.810  16.452  10.103 -0.0457 -0.2702 -0.0155
  388loPI   C2B 6206   8.937  16.436   9.741 -0.0940 -0.0123  0.0649
  388loPI   C3B 6207   9.084  16.547   9.417 -0.2667 -0.1937  0.1233
  388loPI   C4B 6208   8.999  16.505   8.993  0.0213 -0.1670 -0.2256
  389loPI    C1 6209   5.026  18.199  11.190 -0.1926 -0.1369  0.1640
  389loPI    C2 6210   4.924  18.492  11.442 -0.0988  0.0948 -0.0626
  389loPI    C3 6211   5.283  18.495  11.266 -0.0533 -0.2184  0.0173
  389loPI   PO4 6212   4.869  18.223  10.989  0.1430  0.3005 -0.3324
  389loPI   GL1 6213   4.963  18.200  10.553  0.1018  0.0087  0.3598
  389loPI   GL2 6214   4.654  18.069  10.462  0.1942 -0.0051 -0.1979
  389loPI   C1A 6215   5.181  18.280  10.117 -0.3363 -0.1607 -0.0842
  389loPI   C2A 6216   5.033  18.350   9.739  0.0690  0.3415  0.0440
  389loPI   C3A 6217   5.183  18.336   9.273  0.1206 -0.1295 -0.1943
  389loPI   C4A 6218   5.110  18.295   8.850  0.1590 -0.1405 -0.0756
  389loPI   C5A 6219   5.326  18.195   8.496 -0.3080 -0.0026 -0.4078
  389loPI   C6A 6220   5.571  17.836   8.453 -0.0277  0.0598 -0.0799
  389loPI   C1B 6221   4.671  18.157   9.995  0.2017  0.0731  0.0003
  389loPI   C2B 6222   4.545  18.159   9.573  0.3596 -0.3884 -0.1202
  389loPI   C3B 6223   4.689  18.100   9.156 -0.0528  0.1524  0.1752
  389loPI   C4B 6224   4.609  18.154   8.707  0.0457 -0.3185 -0.1459
  390loPI    C1 6225   1.100  14.949  10.968  0.0773  0.2152  0.2602
  390loPI    C2 6226   0.779  14.728  11.058 -0.0112  0.1625 -0.1671
  390loPI    C3 6227   1.142  14.613  11.180 -0.1427  0.1892  0.2642
  390loPI   PO4 6228   1.086  14.960  10.733 -0.1556  0.1760  0.4731
  390loPI   GL1 6229   0.870  15.074  10.387 -0.2810 -0.0980 -0.0334
  390loPI   GL2 6230   0.752  15.352  10.410 -0.1473  0.0561 -0.3436
  390loPI   C1A 6231   1.042  15.187   9.939  0.1021 -0.1656  0.0214
  390loPI   C2A 6232   1.086  15.289   9.563  0.1261  0.4687 -0.2418
  390loPI   C3A 6233   1.014  15.212   9.189 -0.1435 -0.2220 -0.0118
  390loPI   C4A 6234   0.976  15.344   8.807 -0.2506  0.0503 -0.1071
  390loPI   C5A 6235   1.078  15.375   8.391 -0.1208  0.1747  0.3099
  390loPI   C6A 6236   1.175  15.634   8.099  0.0922  0.3156 -0.1266
  390loPI   C1B 6237   0.616  15.566  10.038  0.1503  0.4276  0.2471
  390loPI   C2B 6238   0.594  15.586   9.599 -0.0279 -0.1409 -0.1857
  390loPI   C3B 6239   0.635  15.536   9.176 -0.1989 -0.0670  0.0856
  390loPI   C4B 6240   0.490  15.510   8.735 -0.0738 -0.1462  0.0626
  391loPI    C1 6241   6.761   8.953  10.371 -0.2127  0.0368 -0.3469
  391loPI    C2 6242   6.877   9.332  10.426  0.1249 -0.1240  0.1036
  391loPI    C3 6243   6.491   9.235  10.461  0.0651  0.1410  0.2042
  391loPI   PO4 6244   6.750   8.873  10.127 -0.2767  0.1851 -0.1269
  391loPI   GL1 6245   6.628   8.673   9.742 -0.0017 -0.0900 -0.1046
  391loPI   GL2 6246   6.305   8.743   9.666  0.0708 -0.2492 -0.0079
  391loPI   C1A 6247   6.778   8.748   9.346  0.2652 -0.1090  0.0926
  391loPI   C2A 6248   6.538   8.649   9.059  0.2372 -0.1501 -0.0063
  391loPI   C3A 6249   6.696   8.760   8.780  0.3382 -0.0968  0.2940
  391loPI   C4A 6250   6.509   8.714   8.344 -0.0526  0.0005 -0.2662
  391loPI   C5A 6251   6.331   8.722   8.025 -0.1514  0.2032  0.0219
  391loPI   C6A 6252   6.355   8.621   7.531  0.0789 -0.0415  0.1784
  391loPI   C1B 6253   6.036   8.487   9.302  0.2800  0.0502  0.0638
  391loPI   C2B 6254   6.057   8.559   8.813 -0.0582 -0.0902  0.0724
  391loPI   C3B 6255   5.904   8.578   8.389 -0.5388 -0.3465 -0.4983
  391loPI   C4B 6256   5.756   8.560   8.000 -0.0721  0.3220  0.0357
  392loPI    C1 6257   8.749   1.372  11.014  0.0353  0.2665  0.1102
  392loPI    C2 6258   8.522   1.661  11.172 -0.0456  0.1831  0.1473
  392loPI    C3 6259   8.790   1.470  11.399 -0.2619 -0.0351  0.2243
  392loPI   PO4 6260   8.767   1.463  10.763 -0.3445 -0.0818 -0.0318
  392loPI   GL1 6261   8.863   1.397  10.335 -0.2057  0.0455  0.0014
  392loPI   GL2 6262   8.681   1.064  10.281 -0.0320  0.0126  0.0415
  392loPI   C1A 6263   9.002   1.601  10.086  0.2041  0.2760 -0.1440
  392loPI   C2A 6264   8.998   1.574   9.757 -0.0798 -0.2396 -0.4787
  392loPI   C3A 6265   8.985   1.513   9.330  0.2291  0.1365  0.1050
  392loPI   C4A 6266   8.978   1.553   8.889 -0.2062 -0.0511 -0.1111
  392loPI   C5A 6267   8.989   1.419   8.424 -0.2068  0.0079  0.0595
  392loPI   C6A 6268   8.961   1.646   8.072  0.0125 -0.0813  0.2193
  392loPI   C1B 6269   8.795   1.111   9.880  0.1176  0.0141 -0.0298
  392loPI   C2B 6270   8.899   1.064   9.460 -0.1525 -0.2580 -0.2424
  392loPI   C3B 6271   8.936   0.957   9.115  0.2188 -0.1865  0.0934
  392loPI   C4B 6272   8.983   0.903   8.664 -0.1230 -0.2147 -0.2782
  393loPI    C1 6273   4.926  10.280  11.065  0.1423 -0.2736 -0.1527
  393loPI    C2 6274   5.262  10.497  11.075  0.0694 -0.1608 -0.1426
  393loPI    C3 6275   5.178  10.245  11.374  0.1525 -0.2009 -0.1527
  393loPI   PO4 6276   4.882  10.228  10.792  0.1157  0.0397 -0.1084
  393loPI   GL1 6277   4.670  10.406  10.428  0.1153  0.2561 -0.0076
  393loPI   GL2 6278   4.933  10.311  10.210 -0.0836 -0.3918 -0.0247
  393loPI   C1A 6279   4.384  10.407  10.011  0.0742 -0.2906  0.0772
  393loPI   C2A 6280   4.351  10.311   9.571 -0.1723  0.2864  0.4628
  393loPI   C3A 6281   4.374  10.321   9.119 -0.1325 -0.3328 -0.2373
  393loPI   C4A 6282   4.421  10.265   8.653  0.0507  0.3859  0.1190
  393loPI   C5A 6283   4.478  10.396   8.245 -0.4408  0.1748  0.0364
  393loPI   C6A 6284   4.233  10.617   7.929  0.3110 -0.1846  0.0135
  393loPI   C1B 6285   4.796  10.527   9.800 -0.0008 -0.1383 -0.2016
  393loPI   C2B 6286   4.811  10.496   9.361 -0.1492 -0.1041 -0.0049
  393loPI   C3B 6287   4.904  10.516   8.985  0.1488  0.1868 -0.1018
  393loPI   C4B 6288   4.818  10.570   8.569  0.0974  0.0087  0.1459
  394loPI    C1 6289   9.886   0.605  11.122 -0.1136  0.3362 -0.1203
  394loPI    C2 6290  10.240   0.531  11.294 -0.2001 -0.1473 -0.1340
  394loPI    C3 6291   9.905   0.517  11.512 -0.2753 -0.3954 -0.2623
  394loPI   PO4 6292   9.919   0.500  10.943 -0.0683  0.0905  0.1412
  394loPI   GL1 6293  10.012   0.520  10.525 -0.0584 -0.1096  0.2085
  394loPI   GL2 6294  10.191   0.309  10.460 -0.0938 -0.0609  0.2228
  394loPI   C1A 6295  10.129   0.672  10.094  0.0015 -0.1801 -0.3809
  394loPI   C2A 6296  10.232   0.564   9.678  0.1290  0.1836  0.0051
  394loPI   C3A 6297  10.287   0.537   9.216 -0.2295  0.3313  0.1589
  394loPI   C4A 6298  10.282   0.377   8.800 -0.2343 -0.1471  0.1414
  394loPI   C5A 6299  10.253   0.395   8.391 -0.3664  0.0796 -0.4233
  394loPI   C6A 6300  10.354   0.403   7.999 -0.1230 -0.0031 -0.0651
  394loPI   C1B 6301  10.077   0.148  10.038 -0.1288  0.0231 -0.0647
  394loPI   C2B 6302  10.155   0.076   9.580 -0.1934 -0.3132  0.2477
  394loPI   C3B 6303  10.174  -0.035   9.141  0.0005  0.0286  0.1642
  394loPI   C4B 6304  10.235  -0.115   8.684  0.2187 -0.2287 -0.3834
  395loPI    C1 6305  15.066  16.185  11.018  0.0457  0.0546 -0.3139
  395loPI    C2 6306  15.073  15.795  11.108  0.0944  0.1098 -0.0737
  395loPI    C3 6307  14.807  16.037  11.284  0.1014  0.1959 -0.1798
  395loPI   PO4 6308  15.073  16.162  10.762 -0.0503 -0.1212  0.1177
  395loPI   GL1 6309  14.973  16.348  10.396 -0.3916  0.2361  0.2977
  395loPI   GL2 6310  14.825  16.136  10.278 -0.1409  0.0147  0.0871
  395loPI   C1A 6311  14.923  16.479   9.955  0.0625 -0.0485  0.0592
  395loPI   C2A 6312  14.877  16.430   9.550 -0.1685 -0.1011  0.0860
  395loPI   C3A 6313  14.994  16.342   9.076  0.0138  0.0721  0.1430
  395loPI   C4A 6314  14.924  16.363   8.613  0.0273  0.1262 -0.0473
  395loPI   C5A 6315  14.917  16.213   8.188  0.2828 -0.0231  0.2958
  395loPI   C6A 6316  14.936  15.759   7.942  0.0004  0.0492 -0.2183
  395loPI   C1B 6317  14.816  16.010   9.824  0.0817  0.3759 -0.1447
  395loPI   C2B 6318  14.898  15.943   9.433  0.2932 -0.0181  0.1792
  395loPI   C3B 6319  14.857  15.831   8.913 -0.2397 -0.1532  0.0157
  395loPI   C4B 6320  14.863  15.823   8.471 -0.2628  0.1375  0.3079
  396loPI    C1 6321   0.543   9.849  10.360 -0.1579 -0.0219  0.1048
  396loPI    C2 6322   0.767   9.687  10.649 -0.0926 -0.0662  0.0301
  396loPI    C3 6323   0.625   9.457  10.355  0.0738  0.0262 -0.1249
  396loPI   PO4 6324   0.666  10.121  10.263  0.2456 -0.2362 -0.0658
  396loPI   GL1 6325   0.724  10.476  10.001  0.0896  0.0384  0.2030
  396loPI   GL2 6326   0.788  10.818  10.017  0.2087  0.1918 -0.0648
  396loPI   C1A 6327   0.761  10.357   9.541  0.0470 -0.2370 -0.1117
  396loPI   C2A 6328   0.730  10.315   9.144 -0.2179 -0.1287 -0.0508
  396loPI   C3A 6329   0.755  10.291   8.657 -0.2368 -0.1303  0.0847
  396loPI   C4A 6330   0.860  10.364   8.250 -0.3515  0.4514 -0.1606
  396loPI   C5A 6331   0.960  10.547   7.801  0.0768 -0.2860 -0.2352
  396loPI   C6A 6332   1.152  10.736   7.615 -0.0788  0.3691  0.1308
  396loPI   C1B 6333   0.794  10.815   9.659  0.0916 -0.1027 -0.2550
  396loPI   C2B 6334   0.899  10.863   9.237 -0.0882 -0.3300  0.3129
  396loPI   C3B 6335   0.772  10.833   8.849  0.0294  0.0738  0.4042
  396loPI   C4B 6336   0.785  10.861   8.446  0.0460 -0.1451 -0.3520
  397loPI    C1 6337   6.137  12.901  10.752  0.1794  0.1003  0.2113
  397loPI    C2 6338   6.162  12.877  11.151  0.0438  0.3290  0.2354
  397loPI    C3 6339   5.816  12.981  10.978  0.1046  0.2396  0.0578
  397loPI   PO4 6340   6.277  13.009  10.687 -0.0338 -0.0870  0.0918
  397loPI   GL1 6341   6.361  13.245  10.306  0.3821  0.1927 -0.3271
  397loPI   GL2 6342   6.674  13.078  10.211  0.0829  0.1836  0.1574
  397loPI   C1A 6343   6.139  13.309  10.034 -0.2595  0.2209 -0.1505
  397loPI   C2A 6344   6.148  13.430   9.681  0.2707  0.0088  0.0491
  397loPI   C3A 6345   6.258  13.451   9.299  0.2592  0.3066 -0.3092
  397loPI   C4A 6346   6.180  13.487   8.832 -0.2564  0.3102  0.0650
  397loPI   C5A 6347   6.269  13.506   8.390  0.0121 -0.1571  0.4411
  397loPI   C6A 6348   6.349  13.736   7.994 -0.0588  0.2772  0.2645
  397loPI   C1B 6349   6.565  13.136   9.816 -0.0382 -0.0755 -0.0789
  397loPI   C2B 6350   6.713  13.121   9.405  0.2545  0.0702 -0.0124
  397loPI   C3B 6351   6.700  13.101   8.989 -0.1575 -0.1632  0.2154
  397loPI   C4B 6352   6.588  13.126   8.608 -0.1322 -0.0732 -0.2126
  398loPI    C1 6353   7.037  12.292  10.746  0.0130  0.2430  0.2432
  398loPI    C2 6354   7.211  11.966  10.900 -0.2456  0.0518  0.1398
  398loPI    C3 6355   6.887  12.123  11.076 -0.3702  0.0036 -0.0438
  398loPI   PO4 6356   7.280  12.567  10.643  0.3315 -0.2335  0.0404
  398loPI   GL1 6357   7.488  12.636  10.335  0.0885 -0.0642 -0.0520
  398loPI   GL2 6358   7.625  12.336  10.192 -0.1236  0.1705 -0.0402
  398loPI   C1A 6359   7.284  12.694   9.935 -0.0243  0.1563 -0.2150
  398loPI   C2A 6360   7.284  12.679   9.547  0.1494  0.0034 -0.0832
  398loPI   C3A 6361   7.074  12.796   9.264  0.2599  0.1423 -0.1012
  398loPI   C4A 6362   7.148  12.801   8.837 -0.2642 -0.1669  0.0402
  398loPI   C5A 6363   6.990  12.788   8.449 -0.0698  0.0137 -0.5813
  398loPI   C6A 6364   6.597  12.572   8.375 -0.1784  0.1742 -0.2317
  398loPI   C1B 6365   7.632  12.260   9.816  0.1873  0.2389  0.2858
  398loPI   C2B 6366   7.608  12.340   9.485  0.3080 -0.0062  0.1000
  398loPI   C3B 6367   7.680  12.323   9.049 -0.2463  0.0217  0.3545
  398loPI   C4B 6368   7.534  12.524   8.725  0.3015 -0.2054  0.2240
  399loPI    C1 6369  15.651  10.170  10.282 -0.1187 -0.0479  0.2921
  399loPI    C2 6370  15.598   9.780  10.348 -0.0018 -0.1175 -0.0101
  399loPI    C3 6371  15.900   9.973  10.525  0.1000 -0.2238 -0.0665
  399loPI   PO4 6372  15.593  10.248  10.032 -0.1411  0.1923  0.3333
  399loPI   GL1 6373  15.570  10.155   9.604 -0.2255 -0.0909  0.1574
  399loPI   GL2 6374  15.298  10.125   9.427 -0.1543  0.2169  0.0879
  399loPI   C1A 6375  15.735  10.362   9.230 -0.0273 -0.2510 -0.1458
  399loPI   C2A 6376  15.796  10.597   8.831  0.0448 -0.0349 -0.0037
  399loPI   C3A 6377  15.859  10.533   8.444 -0.2468  0.0661  0.1465
  399loPI   C4A 6378  16.011  10.403   8.034  0.0917  0.1649 -0.0412
  399loPI   C5A 6379  16.057  10.209   7.561  0.1907  0.2099 -0.1202
  399loPI   C6A 6380  16.366   9.961   7.372 -0.0324  0.0965  0.3610
  399loPI   C1B 6381  15.282  10.514   9.164  0.0662  0.3791  0.2305
  399loPI   C2B 6382  15.280  10.565   8.694 -0.3870  0.2598 -0.1386
  399loPI   C3B 6383  15.421  10.715   8.285 -0.2880 -0.2435 -0.0124
  399loPI   C4B 6384  15.551  10.592   7.936  0.0323  0.0556  0.1272
  400loPI    C1 6385   2.854   8.987  10.697  0.0559  0.0158  0.0567
  400loPI    C2 6386   2.914   9.382  10.687 -0.1356  0.0426 -0.0750
  400loPI    C3 6387   2.847   9.199  11.036 -0.0164  0.1209 -0.0101
  400loPI   PO4 6388   3.014   8.935  10.496  0.1697  0.0034  0.0404
  400loPI   GL1 6389   3.223   8.751  10.136 -0.0156 -0.0118 -0.1208
  400loPI   GL2 6390   3.233   8.462  10.036  0.0221 -0.0477  0.2460
  400loPI   C1A 6391   3.298   8.828   9.694 -0.2345  0.0263  0.1695
  400loPI   C2A 6392   3.356   8.930   9.313 -0.0691 -0.0207  0.2178
  400loPI   C3A 6393   3.271   8.956   8.849 -0.2096 -0.0279 -0.1944
  400loPI   C4A 6394   3.160   8.859   8.432 -0.0341  0.0840  0.1107
  400loPI   C5A 6395   2.912   8.796   8.124 -0.0792  0.2842  0.1533
  400loPI   C6A 6396   2.723   8.400   7.962  0.1622 -0.2568 -0.0947
  400loPI   C1B 6397   3.208   8.252   9.633 -0.0868 -0.1629  0.1555
  400loPI   C2B 6398   3.279   8.358   9.239 -0.2172  0.1056  0.0969
  400loPI   C3B 6399   3.175   8.450   8.826 -0.0067 -0.0712  0.1565
  400loPI   C4B 6400   3.178   8.332   8.426  0.0127 -0.2682  0.1563
  401loPI    C1 6401   1.521  15.864  11.203  0.2967  0.0175  0.2034
  401loPI    C2 6402   1.234  16.049  11.411  0.0341 -0.0469 -0.0942
  401loPI    C3 6403   1.482  15.794  11.595 -0.1247 -0.0225  0.1580
  401loPI   PO4 6404   1.295  15.997  10.905  0.0829 -0.0961  0.1728
  401loPI   GL1 6405   1.324  16.309  10.577 -0.4106  0.0826 -0.0413
  401loPI   GL2 6406   1.685  16.387  10.553 -0.0552  0.1926 -0.0057
  401loPI   C1A 6407   1.117  16.252  10.193 -0.2050 -0.0030 -0.0162
  401loPI   C2A 6408   1.122  16.311   9.742 -0.3788 -0.0538 -0.3207
  401loPI   C3A 6409   1.220  16.237   9.273 -0.1805 -0.0998 -0.1637
  401loPI   C4A 6410   1.267  16.263   8.752  0.2025  0.2867 -0.2631
  401loPI   C5A 6411   1.237  16.282   8.308 -0.0702 -0.1298 -0.2116
  401loPI   C6A 6412   1.116  16.493   7.963 -0.1632 -0.1695  0.2408
  401loPI   C1B 6413   1.570  16.498  10.104 -0.0690 -0.1630  0.0466
  401loPI   C2B 6414   1.733  16.541   9.688 -0.2854 -0.1521  0.0216
  401loPI   C3B 6415   1.711  16.403   9.243 -0.0839  0.1070 -0.0338
  401loPI   C4B 6416   1.688  16.504   8.759 -0.0509 -0.3814  0.1463
  402loPI    C1 6417   2.260  18.028  11.055  0.1389  0.1340 -0.0731
  402loPI    C2 6418   2.638  18.153  11.024  0.1522  0.1140  0.0049
  402loPI    C3 6419   2.498  18.028  11.377  0.1128 -0.0078 -0.0533
  402loPI   PO4 6420   2.226  17.863  10.900 -0.0486 -0.1859 -0.1440
  402loPI   GL1 6421   2.497  17.918  10.512 -0.0273  0.0028 -0.0276
  402loPI   GL2 6422   2.341  17.616  10.516  0.1289 -0.0453 -0.2645
  402loPI   C1A 6423   2.801  17.927  10.156  0.1786  0.2018  0.1930
  402loPI   C2A 6424   2.802  17.871   9.712 -0.0891  0.0165  0.1464
  402loPI   C3A 6425   2.805  17.790   9.270 -0.0315 -0.3251 -0.1231
  402loPI   C4A 6426   2.809  17.832   8.836  0.0680  0.5010  0.1098
  402loPI   C5A 6427   2.626  17.745   8.386  0.1548  0.0525 -0.1362
  402loPI   C6A 6428   2.198  17.718   8.315 -0.2913 -0.3570 -0.1191
  402loPI   C1B 6429   2.324  17.806  10.013  0.1383  0.0737  0.0051
  402loPI   C2B 6430   2.255  17.652   9.522  0.1089 -0.0929 -0.1260
  402loPI   C3B 6431   2.302  17.563   9.084  0.2445  0.2579 -0.4319
  402loPI   C4B 6432   2.312  17.681   8.780 -0.1502  0.1869 -0.1561
  403loPI    C1 6433   4.754   2.760  10.936 -0.0273  0.0180  0.0433
  403loPI    C2 6434   4.606   2.640  11.288  0.0712 -0.3496 -0.0368
  403loPI    C3 6435   4.969   2.808  11.270 -0.1054  0.0568  0.0882
  403loPI   PO4 6436   4.677   2.599  10.828 -0.1482  0.0963  0.3187
  403loPI   GL1 6437   4.859   2.354  10.494 -0.1612 -0.3235 -0.1472
  403loPI   GL2 6438   4.579   2.189  10.551  0.2340 -0.0044  0.2405
  403loPI   C1A 6439   4.968   2.424  10.017 -0.2169  0.0330 -0.2239
  403loPI   C2A 6440   4.984   2.417   9.514  0.1770  0.2151  0.0647
  403loPI   C3A 6441   4.934   2.400   8.922 -0.0628 -0.2798 -0.0583
  403loPI   C4A 6442   5.120   2.263   8.611 -0.1392  0.0375  0.2461
  403loPI   C5A 6443   4.935   2.303   8.177  0.0965  0.1636  0.2483
  403loPI   C6A 6444   5.010   2.421   7.794 -0.1913  0.2492  0.2570
  403loPI   C1B 6445   4.433   2.217  10.148  0.3421  0.0862  0.1142
  403loPI   C2B 6446   4.614   2.124   9.731 -0.4571  0.2794 -0.1578
  403loPI   C3B 6447   4.502   2.130   9.257 -0.0437 -0.2251 -0.0353
  403loPI   C4B 6448   4.511   2.111   8.829  0.1570 -0.0715 -0.1692
  404loPI    C1 6449   3.754  16.726  11.131  0.0149 -0.0684  0.1524
  404loPI    C2 6450   3.881  17.068  11.295 -0.4217  0.1082  0.1343
  404loPI    C3 6451   3.607  16.846  11.483 -0.1093 -0.2594  0.1670
  404loPI   PO4 6452   3.856  16.748  10.910 -0.0978 -0.0840  0.1130
  404loPI   GL1 6453   3.714  16.851  10.610  0.2288 -0.1887 -0.1945
  404loPI   GL2 6454   3.510  16.863  10.458  0.3927 -0.2526 -0.2816
  404loPI   C1A 6455   3.936  17.008  10.232  0.1122  0.2966 -0.2159
  404loPI   C2A 6456   3.970  16.975   9.877 -0.1082  0.1959 -0.1277
  404loPI   C3A 6457   3.985  16.927   9.402  0.1964  0.1626  0.0802
  404loPI   C4A 6458   4.102  16.977   8.964 -0.1703 -0.0694 -0.1453
  404loPI   C5A 6459   3.933  16.858   8.624 -0.0759 -0.0324 -0.0963
  404loPI   C6A 6460   4.330  16.787   8.286  0.0908 -0.1511  0.1758
  404loPI   C1B 6461   3.551  16.752   9.948 -0.2565  0.1643  0.0586
  404loPI   C2B 6462   3.502  16.774   9.550  0.0081 -0.0676  0.2789
  404loPI   C3B 6463   3.571  16.709   9.066 -0.1583  0.2091 -0.3284
  404loPI   C4B 6464   3.511  16.477   8.655 -0.1784 -0.1253  0.0300
  405loPI    C1 6465   3.376  17.196  11.201  0.2021  0.0591  0.2020
  405loPI    C2 6466   3.120  17.486  11.099  0.0694 -0.1404 -0.0431
  405loPI    C3 6467   3.319  17.507  11.445 -0.0943  0.1382  0.0364
  405loPI   PO4 6468   3.484  17.163  11.013  0.1055  0.1970  0.2249
  405loPI   GL1 6469   3.309  17.291  10.624 -0.2705  0.1631 -0.3508
  405loPI   GL2 6470   3.575  17.324  10.482 -0.0019  0.0170 -0.2497
  405loPI   C1A 6471   3.164  17.079  10.192  0.1763  0.0127 -0.1601
  405loPI   C2A 6472   3.213  17.097   9.837 -0.1184 -0.1824  0.2940
  405loPI   C3A 6473   3.110  17.048   9.354 -0.0220  0.1619 -0.1825
  405loPI   C4A 6474   3.165  17.011   8.874 -0.2462 -0.0652 -0.1798
  405loPI   C5A 6475   3.289  17.030   8.470  0.0838  0.0023 -0.1586
  405loPI   C6A 6476   3.638  17.047   8.301  0.0598 -0.2481  0.2119
  405loPI   C1B 6477   3.600  17.323  10.015  0.0976  0.2435  0.0689
  405loPI   C2B 6478   3.599  17.306   9.599 -0.1155  0.0093 -0.2699
  405loPI   C3B 6479   3.627  17.266   9.247 -0.0374 -0.1408  0.2212
  405loPI   C4B 6480   3.604  17.169   8.832  0.0809 -0.1166 -0.2357
  406loPI    C1 6481  13.198  17.001  10.611  0.2071  0.1530  0.0896
  406loPI    C2 6482  13.378  16.867  10.943 -0.0956  0.0204  0.2039
  406loPI    C3 6483  13.214  16.608  10.685 -0.0447  0.1348  0.0548
  406loPI   PO4 6484  13.278  17.242  10.590  0.0100  0.0731  0.0565
  406loPI   GL1 6485  13.247  17.510  10.331 -0.0267 -0.1625 -0.1639
  406loPI   GL2 6486  13.317  17.832  10.370  0.3446  0.0585 -0.3519
  406loPI   C1A 6487  13.614  17.388   9.910 -0.1544 -0.1506 -0.0553
  406loPI   C2A 6488  13.722  17.362   9.614 -0.1686 -0.1495  0.0063
  406loPI   C3A 6489  13.677  17.338   9.185  0.0441 -0.1646 -0.0257
  406loPI   C4A 6490  13.581  17.411   8.837  0.3236  0.1909  0.1146
  406loPI   C5A 6491  13.660  17.384   8.454  0.4396 -0.0520 -0.3349
  406loPI   C6A 6492  13.707  17.667   8.082 -0.0889  0.2538  0.1961
  406loPI   C1B 6493  13.282  17.818   9.934  0.1746  0.1261 -0.2313
  406loPI   C2B 6494  13.314  17.702   9.422  0.0481  0.0288  0.0079
  406loPI   C3B 6495  13.190  17.741   8.977 -0.1916  0.2578  0.3840
  406loPI   C4B 6496  13.254  17.702   8.516 -0.1523 -0.2704  0.1508
  407loPI    C1 6497   7.287  17.063  11.009 -0.0189  0.0803 -0.1613
  407loPI    C2 6498   7.003  17.031  11.289 -0.0827  0.0157 -0.2328
  407loPI    C3 6499   7.363  16.868  11.350 -0.0808  0.0438 -0.1680
  407loPI   PO4 6500   7.194  16.908  10.819  0.1301 -0.0930 -0.2806
  407loPI   GL1 6501   7.136  16.533  10.639  0.1869  0.0065 -0.1005
  407loPI   GL2 6502   6.818  16.618  10.520 -0.1286  0.2716 -0.4855
  407loPI   C1A 6503   7.229  16.675  10.234 -0.0002  0.3138 -0.2805
  407loPI   C2A 6504   7.144  16.687   9.845 -0.0011 -0.1461 -0.0979
  407loPI   C3A 6505   7.198  16.698   9.367 -0.0206  0.0506 -0.0684
  407loPI   C4A 6506   7.143  16.702   8.874 -0.1753 -0.0929 -0.0443
  407loPI   C5A 6507   6.953  16.729   8.413 -0.0003  0.3191  0.1982
  407loPI   C6A 6508   6.921  16.825   8.058 -0.2419 -0.1489  0.1471
  407loPI   C1B 6509   6.656  16.528  10.136  0.0938  0.0340  0.2633
  407loPI   C2B 6510   6.621  16.456   9.692 -0.0575  0.0400  0.0683
  407loPI   C3B 6511   6.631  16.463   9.278  0.1870  0.1668 -0.3633
  407loPI   C4B 6512   6.634  16.544   8.871  0.2322 -0.1568 -0.1626
  408loPI    C1 6513  14.539  16.408  10.891 -0.1759  0.1818  0.1183
  408loPI    C2 6514  14.686  16.729  10.704  0.0156 -0.0632 -0.1628
  408loPI    C3 6515  14.847  16.608  11.050  0.0109  0.0810 -0.1092
  408loPI   PO4 6516  14.556  16.206  10.712  0.0482 -0.1616  0.1128
  408loPI   GL1 6517  14.305  16.231  10.278 -0.1191  0.1447 -0.1876
  408loPI   GL2 6518  14.508  16.513  10.331 -0.0997 -0.0557 -0.2603
  408loPI   C1A 6519  14.397  16.220   9.846 -0.3082 -0.5054 -0.1820
  408loPI   C2A 6520  14.465  16.188   9.487  0.2649  0.2243 -0.0130
  408loPI   C3A 6521  14.509  16.232   9.091  0.2613  0.2103 -0.1397
  408loPI   C4A 6522  14.471  16.184   8.670 -0.2690  0.3940 -0.1572
  408loPI   C5A 6523  14.368  16.023   8.375  0.3322 -0.3998  0.0218
  408loPI   C6A 6524  13.922  16.074   8.097  0.0407 -0.0475  0.1658
  408loPI   C1B 6525  14.391  16.697   9.991 -0.3091  0.0482 -0.0990
  408loPI   C2B 6526  14.475  16.725   9.660 -0.0396 -0.2093 -0.1501
  408loPI   C3B 6527  14.563  16.686   9.258 -0.0103 -0.0349  0.0010
  408loPI   C4B 6528  14.514  16.669   8.845  0.0038  0.3199 -0.2035
  409loPI    C1 6529   4.863  14.517  11.124 -0.1863  0.0711 -0.3070
  409loPI    C2 6530   4.918  14.780  11.421  0.3838 -0.0808 -0.2652
  409loPI    C3 6531   4.799  14.407  11.503  0.2939 -0.0496 -0.2531
  409loPI   PO4 6532   4.854  14.664  10.873  0.2470  0.4101 -0.0276
  409loPI   GL1 6533   4.669  14.663  10.447 -0.0569 -0.1683  0.3527
  409loPI   GL2 6534   4.427  14.941  10.458  0.3374 -0.2572 -0.0888
  409loPI   C1A 6535   4.671  14.791  10.032 -0.0890 -0.1283 -0.3772
  409loPI   C2A 6536   4.628  14.710   9.632  0.3611  0.2940  0.0661
  409loPI   C3A 6537   4.569  14.681   9.122  0.1028 -0.0285 -0.1222
  409loPI   C4A 6538   4.613  14.582   8.665  0.1431  0.0218 -0.0517
  409loPI   C5A 6539   4.895  14.655   8.312 -0.0769  0.0076 -0.0625
  409loPI   C6A 6540   5.207  14.934   8.052 -0.0293  0.0268 -0.0958
  409loPI   C1B 6541   4.199  15.070  10.164  0.3117  0.1568  0.2032
  409loPI   C2B 6542   4.236  15.085   9.712  0.1321 -0.2526  0.1672
  409loPI   C3B 6543   4.214  14.970   9.217 -0.1952  0.0662 -0.0899
  409loPI   C4B 6544   4.210  14.940   8.762  0.1984  0.0366  0.1377
  410loPI    C1 6545  15.946  12.269  10.706  0.0791  0.0601 -0.0900
  410loPI    C2 6546  16.047  11.893  10.615  0.3160  0.1006 -0.0017
  410loPI    C3 6547  16.092  12.028  10.989  0.0211  0.1507  0.0181
  410loPI   PO4 6548  15.696  12.317  10.488 -0.3065  0.0099 -0.0856
  410loPI   GL1 6549  15.695  12.580  10.070 -0.2140  0.4788  0.2300
  410loPI   GL2 6550  15.555  12.853   9.954 -0.2814  0.3179  0.2883
  410loPI   C1A 6551  15.702  12.261   9.753  0.1016 -0.1941 -0.0389
  410loPI   C2A 6552  15.759  12.257   9.252 -0.1743 -0.2454 -0.0020
  410loPI   C3A 6553  15.734  12.301   8.828 -0.2517 -0.0213 -0.1528
  410loPI   C4A 6554  15.643  12.294   8.318  0.0041  0.0741 -0.0882
  410loPI   C5A 6555  15.780  12.340   7.966  0.1831 -0.1541  0.1783
  410loPI   C6A 6556  15.914  12.644   7.676  0.0384  0.0948 -0.1389
  410loPI   C1B 6557  15.351  12.973   9.639 -0.1587  0.1796  0.0395
  410loPI   C2B 6558  15.310  13.146   9.217  0.0582  0.2074 -0.2058
  410loPI   C3B 6559  15.381  13.173   8.823 -0.0052 -0.0134  0.0493
  410loPI   C4B 6560  15.373  13.039   8.418  0.0474  0.1990 -0.2796
  411loPI    C1 6561   4.494  12.223  11.340 -0.0712  0.0940 -0.0258
  411loPI    C2 6562   4.808  12.212  11.588  0.0011 -0.0092 -0.1203
  411loPI    C3 6563   4.436  12.209  11.735  0.0369 -0.5285 -0.0206
  411loPI   PO4 6564   4.596  12.127  11.139  0.0209 -0.0403  0.0297
  411loPI   GL1 6565   4.540  12.167  10.693  0.0351  0.2944  0.0076
  411loPI   GL2 6566   4.630  12.383  10.467  0.1165  0.0806 -0.2053
  411loPI   C1A 6567   4.645  11.921  10.216 -0.0059  0.0706 -0.1146
  411loPI   C2A 6568   4.570  11.829   9.813 -0.1841  0.1696 -0.0853
  411loPI   C3A 6569   4.587  11.844   9.301 -0.0430  0.2011 -0.0059
  411loPI   C4A 6570   4.633  11.884   8.826  0.0215  0.1347 -0.2834
  411loPI   C5A 6571   4.658  11.999   8.466  0.0272 -0.2037 -0.0173
  411loPI   C6A 6572   4.681  12.249   8.045  0.3306 -0.1256  0.1103
  411loPI   C1B 6573   4.632  12.371   9.969 -0.1594  0.2073  0.0008
  411loPI   C2B 6574   4.681  12.301   9.549  0.1104  0.0742 -0.0500
  411loPI   C3B 6575   4.669  12.379   9.159 -0.0154 -0.0496 -0.1587
  411loPI   C4B 6576   4.834  12.345   8.813 -0.2219  0.3119  0.0711
  412loPI    C1 6577   0.351   7.944  10.663 -0.1898 -0.1991  0.1912
  412loPI    C2 6578   0.664   7.890  10.905  0.1491  0.0646 -0.1757
  412loPI    C3 6579   0.357   8.118  11.023  0.1693 -0.0573  0.1208
  412loPI   PO4 6580   0.442   7.880  10.423 -0.4901  0.2307 -0.1189
  412loPI   GL1 6581   0.588   7.948  10.118 -0.2851  0.0005 -0.0019
  412loPI   GL2 6582   0.341   8.103   9.884  0.0440 -0.0897  0.1668
  412loPI   C1A 6583   0.793   8.010   9.747  0.2572  0.4010  0.2969
  412loPI   C2A 6584   0.814   7.856   9.301  0.2753 -0.2971  0.0473
  412loPI   C3A 6585   0.810   7.874   8.819  0.2598  0.0804 -0.0114
  412loPI   C4A 6586   0.824   7.860   8.362 -0.0859 -0.0350  0.0406
  412loPI   C5A 6587   1.168   7.651   8.045 -0.1750  0.2355 -0.3186
  412loPI   C6A 6588   1.230   7.310   7.790  0.0648  0.0391  0.4785
  412loPI   C1B 6589   0.351   7.838   9.491 -0.0868  0.1810 -0.0556
  412loPI   C2B 6590   0.299   7.698   9.055 -0.1601 -0.0409 -0.2697
  412loPI   C3B 6591   0.331   7.755   8.628  0.1982 -0.0741  0.0713
  412loPI   C4B 6592   0.387   7.754   8.216  0.2010  0.0512  0.3481
  413loPI    C1 6593   4.927   5.444  10.591 -0.4019 -0.1323  0.0033
  413loPI    C2 6594   4.732   5.667  10.861 -0.2210  0.0212  0.0093
  413loPI    C3 6595   4.654   5.276  10.830 -0.2594  0.0069  0.2692
  413loPI   PO4 6596   4.900   5.623  10.336 -0.2254 -0.2439 -0.3169
  413loPI   GL1 6597   4.548   5.810   9.976 -0.2908 -0.0652 -0.0616
  413loPI   GL2 6598   4.230   5.827  10.005 -0.1495  0.0435  0.0473
  413loPI   C1A 6599   4.585   5.589   9.604 -0.1229  0.1252 -0.1358
  413loPI   C2A 6600   4.571   5.500   9.111  0.1043 -0.0817 -0.1826
  413loPI   C3A 6601   4.543   5.449   8.683  0.4239  0.0343 -0.3201
  413loPI   C4A 6602   4.607   5.417   8.256  0.1931 -0.0165 -0.2314
  413loPI   C5A 6603   4.828   5.505   7.936 -0.0510  0.1753 -0.0593
  413loPI   C6A 6604   5.149   5.705   7.777 -0.2982 -0.4031 -0.0317
  413loPI   C1B 6605   4.170   5.878   9.637  0.1922  0.2238  0.1315
  413loPI   C2B 6606   4.141   5.847   9.146  0.0338  0.1129 -0.1060
  413loPI   C3B 6607   4.204   5.853   8.727  0.0398  0.1761  0.3465
  413loPI   C4B 6608   4.236   5.819   8.334  0.1580 -0.0548  0.0896
  414loPI    C1 6609   8.347  13.675  10.827 -0.1345 -0.1489  0.0837
  414loPI    C2 6610   8.645  13.426  10.732  0.0575  0.1045  0.0109
  414loPI    C3 6611   8.509  13.441  11.107 -0.0082 -0.1636 -0.0006
  414loPI   PO4 6612   8.427  13.853  10.665  0.0593  0.2093 -0.0057
  414loPI   GL1 6613   8.252  14.032  10.341  0.1105  0.0296  0.2605
  414loPI   GL2 6614   8.496  14.198  10.281  0.3762 -0.2666  0.2320
  414loPI   C1A 6615   8.240  14.083   9.906  0.2020 -0.1822 -0.0228
  414loPI   C2A 6616   8.241  14.223   9.483 -0.0338 -0.0791  0.1686
  414loPI   C3A 6617   8.186  14.253   8.943  0.0360 -0.4792 -0.0733
  414loPI   C4A 6618   8.277  14.229   8.522  0.1417  0.1288  0.2521
  414loPI   C5A 6619   8.244  14.115   8.020 -0.1367 -0.1029 -0.2546
  414loPI   C6A 6620   8.346  14.327   7.607  0.2899 -0.0343 -0.1398
  414loPI   C1B 6621   8.689  14.310   9.832  0.0714 -0.0394  0.0872
  414loPI   C2B 6622   8.764  14.468   9.446 -0.0902 -0.1238 -0.1734
  414loPI   C3B 6623   8.636  14.558   9.156  0.0391  0.1560  0.0385
  414loPI   C4B 6624   8.695  14.422   8.748  0.1857 -0.0922 -0.0892
  415loPI    C1 6625   6.786  11.642  10.883  0.2925  0.2413  0.2109
  415loPI    C2 6626   7.138  11.458  10.922  0.2455  0.0550 -0.1921
  415loPI    C3 6627   6.813  11.306  11.098  0.3282  0.1213  0.0212
  415loPI   PO4 6628   6.769  11.668  10.616 -0.0934 -0.3967  0.0125
  415loPI   GL1 6629   6.766  12.016  10.327 -0.3694  0.0023 -0.2092
  415loPI   GL2 6630   7.142  12.008  10.215  0.2019  0.0949  0.3021
  415loPI   C1A 6631   6.693  11.987   9.880  0.1806  0.3387  0.0076
  415loPI   C2A 6632   6.508  12.050   9.602 -0.1980 -0.2193  0.2654
  415loPI   C3A 6633   6.598  12.066   9.192 -0.1681  0.0872 -0.0415
  415loPI   C4A 6634   6.497  12.148   8.745  0.1924 -0.0315 -0.1680
  415loPI   C5A 6635   6.222  12.078   8.298  0.1483 -0.3394 -0.0473
  415loPI   C6A 6636   6.325  12.235   7.919  0.1858 -0.2947 -0.2446
  415loPI   C1B 6637   7.190  12.101   9.873 -0.1364  0.0624  0.1712
  415loPI   C2B 6638   7.112  12.191   9.541 -0.0554 -0.1050  0.3665
  415loPI   C3B 6639   7.115  12.215   9.177  0.0938  0.1002  0.0871
  415loPI   C4B 6640   7.063  12.219   8.706 -0.2357 -0.0245  0.3840
  416loPI    C1 6641  18.265  10.887  10.547 -0.2489  0.2231 -0.0505
  416loPI    C2 6642  18.120  10.697  10.867  0.0832  0.0426 -0.0027
  416loPI    C3 6643  18.250  11.074  10.900  0.1327  0.0186  0.0800
  416loPI   PO4 6644  18.394  10.720  10.445 -0.1420  0.0627 -0.1649
  416loPI   GL1 6645  18.563  10.730  10.053  0.1072 -0.0998  0.0282
  416loPI   GL2 6646  18.262  10.817   9.950 -0.0274  0.0715  0.0069
  416loPI   C1A 6647  18.635  10.542   9.711  0.0231  0.0878 -0.2456
  416loPI   C2A 6648  18.737  10.614   9.258  0.1701  0.0680 -0.0383
  416loPI   C3A 6649  18.731  10.617   8.737  0.2815 -0.1970 -0.0303
  416loPI   C4A 6650  18.683  10.673   8.341  0.2442 -0.1794  0.1033
  416loPI   C5A 6651  18.936  10.680   8.070 -0.2729 -0.1326  0.0672
  416loPI   C6A 6652  19.271  11.026   7.901 -0.2227 -0.1120 -0.1233
  416loPI   C1B 6653  18.357  10.913   9.547  0.0095 -0.0399  0.2041
  416loPI   C2B 6654  18.336  10.849   9.102 -0.0443 -0.0350 -0.0803
  416loPI   C3B 6655  18.284  10.861   8.724  0.0567  0.3811 -0.0327
  416loPI   C4B 6656  18.271  11.020   8.392 -0.3181  0.0166  0.0602
  417loPI    C1 6657   4.003   8.488  10.867  0.2901  0.0436  0.0717
  417loPI    C2 6658   3.951   8.179  11.116 -0.0355 -0.0650 -0.1256
  417loPI    C3 6659   4.035   8.541  11.263 -0.1440 -0.1440  0.1381
  417loPI   PO4 6660   3.870   8.468  10.628 -0.1088  0.4175 -0.1696
  417loPI   GL1 6661   3.865   8.626  10.252 -0.1197 -0.3235 -0.3044
  417loPI   GL2 6662   3.697   8.503  10.154  0.0987  0.1105 -0.0062
  417loPI   C1A 6663   4.130   8.729   9.913  0.0820  0.0982 -0.1305
  417loPI   C2A 6664   4.133   8.795   9.520  0.4882 -0.1099  0.0011
  417loPI   C3A 6665   4.182   8.748   9.037 -0.3257 -0.1720  0.0998
  417loPI   C4A 6666   4.157   8.691   8.644  0.1076  0.0796 -0.1423
  417loPI   C5A 6667   4.081   8.763   8.251 -0.0369 -0.1566  0.1004
  417loPI   C6A 6668   3.812   8.713   7.886  0.1624 -0.0566 -0.0552
  417loPI   C1B 6669   3.712   8.505   9.698  0.1221  0.1558 -0.1484
  417loPI   C2B 6670   3.723   8.635   9.289 -0.2415  0.1220 -0.1582
  417loPI   C3B 6671   3.636   8.643   8.917 -0.1507  0.1254  0.0020
  417loPI   C4B 6672   3.585   8.623   8.403 -0.1555 -0.0964 -0.0382
  418loPI    C1 6673   4.149   6.160  10.380 -0.2583 -0.2673 -0.1327
  418loPI    C2 6674   4.454   6.194  10.636 -0.2360  0.1808 -0.2111
  418loPI    C3 6675   4.356   5.836  10.488  0.2026  0.0201 -0.1270
  418loPI   PO4 6676   4.223   6.367  10.156 -0.0613 -0.1411  0.2302
  418loPI   GL1 6677   4.248   6.670   9.859  0.1555  0.1149  0.2460
  418loPI   GL2 6678   4.416   6.948   9.830  0.2098 -0.1210 -0.2636
  418loPI   C1A 6679   4.252   6.348   9.470 -0.1007  0.1293  0.1142
  418loPI   C2A 6680   4.211   6.326   9.029 -0.1444  0.0027 -0.5196
  418loPI   C3A 6681   4.261   6.341   8.645 -0.0327 -0.1201  0.0352
  418loPI   C4A 6682   4.306   6.367   8.182 -0.1906  0.2457  0.1891
  418loPI   C5A 6683   4.162   6.522   7.740  0.2535  0.1272 -0.1094
  418loPI   C6A 6684   4.227   6.636   7.358  0.4151 -0.2374 -0.2126
  418loPI   C1B 6685   4.346   6.868   9.390 -0.1660  0.0355  0.0925
  418loPI   C2B 6686   4.325   6.802   8.943 -0.1615  0.0475 -0.2125
  418loPI   C3B 6687   4.349   6.813   8.488  0.0807 -0.1358 -0.1235
  418loPI   C4B 6688   4.439   6.850   8.048  0.0566  0.0951 -0.0112
  419loPI    C1 6689   9.347   0.448  10.980  0.0396  0.2227 -0.0638
  419loPI    C2 6690   8.957   0.458  11.066  0.0661  0.0883  0.0771
  419loPI    C3 6691   9.167   0.798  11.051  0.0235  0.1305  0.3765
  419loPI   PO4 6692   9.416   0.347  10.812 -0.2282 -0.1904 -0.1566
  419loPI   GL1 6693   9.451   0.446  10.447  0.0474 -0.0241 -0.2302
  419loPI   GL2 6694   9.324   0.071  10.420 -0.2140  0.0403 -0.1399
  419loPI   C1A 6695   9.598   0.391  10.011 -0.1944  0.2009 -0.1071
  419loPI   C2A 6696   9.755   0.346   9.587  0.2421 -0.0958  0.2437
  419loPI   C3A 6697   9.726   0.298   9.147 -0.3382 -0.1086 -0.0516
  419loPI   C4A 6698   9.803   0.239   8.635 -0.3171 -0.1861  0.2245
  419loPI   C5A 6699   9.556   0.244   8.279  0.0800  0.1359 -0.1284
  419loPI   C6A 6700   9.201   0.232   8.002  0.0200 -0.1081 -0.2979
  419loPI   C1B 6701   9.109   0.237  10.095  0.1804 -0.0005 -0.4927
  419loPI   C2B 6702   9.248   0.154   9.622 -0.3410  0.2456  0.1861
  419loPI   C3B 6703   9.248   0.151   9.166  0.1157 -0.0955  0.0438
  419loPI   C4B 6704   9.320   0.192   8.766  0.0688 -0.1995 -0.0431
  420loPI    C1 6705   3.332   5.481  10.807 -0.0780 -0.0566 -0.2239
  420loPI    C2 6706   3.393   5.452  11.201  0.3199 -0.1902 -0.2917
  420loPI    C3 6707   3.330   5.810  11.035  0.2074 -0.1272 -0.1154
  420loPI   PO4 6708   3.538   5.494  10.640  0.2730 -0.1008  0.1044
  420loPI   GL1 6709   3.373   5.445  10.248  0.0897 -0.1347 -0.1306
  420loPI   GL2 6710   3.250   5.577  10.012  0.0190 -0.1001 -0.0874
  420loPI   C1A 6711   3.558   5.176   9.904 -0.3100 -0.1410 -0.1512
  420loPI   C2A 6712   3.572   5.151   9.447  0.0960  0.0561  0.2214
  420loPI   C3A 6713   3.565   5.122   9.000  0.0267 -0.0105 -0.1105
  420loPI   C4A 6714   3.567   5.136   8.582 -0.1715 -0.1070  0.2960
  420loPI   C5A 6715   3.510   5.013   8.069  0.0352 -0.1926  0.1007
  420loPI   C6A 6716   3.591   4.844   7.680  0.2340  0.0680  0.4017
  420loPI   C1B 6717   3.200   5.436   9.615  0.4970 -0.0936  0.2024
  420loPI   C2B 6718   3.215   5.406   9.193  0.1406 -0.1250  0.2064
  420loPI   C3B 6719   3.182   5.443   8.773  0.0407  0.1193 -0.2771
  420loPI   C4B 6720   3.282   5.456   8.237 -0.0703 -0.3157  0.0345
  421loPI    C1 6721  16.406  10.844  10.033  0.0257  0.0129 -0.0752
  421loPI    C2 6722  16.126  11.111  10.135  0.2172  0.2699 -0.2109
  421loPI    C3 6723  16.250  10.840  10.402 -0.3425 -0.0163 -0.2271
  421loPI   PO4 6724  16.368  10.742   9.912  0.0467  0.1171  0.0445
  421loPI   GL1 6725  16.419  10.529   9.511  0.5108 -0.1452 -0.0413
  421loPI   GL2 6726  16.558  10.880   9.512 -0.1458  0.1659  0.1815
  421loPI   C1A 6727  16.234  10.499   9.148 -0.3513  0.0099 -0.0127
  421loPI   C2A 6728  16.302  10.597   8.808 -0.0550  0.3057 -0.2900
  421loPI   C3A 6729  16.516  10.599   8.399 -0.1017 -0.1752 -0.0509
  421loPI   C4A 6730  16.464  10.731   8.024  0.0792  0.1301 -0.3105
  421loPI   C5A 6731  16.799  10.782   7.668 -0.0979  0.2468 -0.0184
  421loPI   C6A 6732  17.195  10.878   7.492  0.2950  0.1367 -0.0241
  421loPI   C1B 6733  16.457  11.085   9.118  0.1482 -0.0547 -0.1102
  421loPI   C2B 6734  16.482  11.199   8.708  0.2142  0.1806 -0.2825
  421loPI   C3B 6735  16.544  11.173   8.403  0.1776  0.1380  0.0030
  421loPI   C4B 6736  16.497  11.197   7.900  0.2955 -0.2158  0.0648
  422loPI    C1 6737   5.476   3.799  10.738  0.2626  0.1709 -0.0397
  422loPI    C2 6738   5.505   3.459  10.529 -0.1199  0.0615  0.0773
  422loPI    C3 6739   5.796   3.563  10.782  0.0126 -0.1648  0.0205
  422loPI   PO4 6740   5.330   3.958  10.552  0.2459  0.1020 -0.2686
  422loPI   GL1 6741   5.170   3.814  10.163  0.2233 -0.2205 -0.1545
  422loPI   GL2 6742   5.024   4.139  10.182 -0.0153  0.1429  0.1731
  422loPI   C1A 6743   5.175   3.900   9.777  0.1566  0.0261  0.1189
  422loPI   C2A 6744   5.089   3.991   9.367  0.0377 -0.0833 -0.0645
  422loPI   C3A 6745   5.159   3.897   8.898  0.0879 -0.0192 -0.2460
  422loPI   C4A 6746   5.318   3.822   8.538 -0.2506  0.4029  0.1387
  422loPI   C5A 6747   5.521   3.628   8.322  0.0131  0.1544  0.3775
  422loPI   C6A 6748   5.890   3.717   8.120  0.0805  0.2610  0.1489
  422loPI   C1B 6749   4.802   4.226   9.803  0.2313 -0.1944 -0.0174
  422loPI   C2B 6750   4.707   4.252   9.315  0.0852  0.0357 -0.0689
  422loPI   C3B 6751   4.770   4.201   8.995  0.1512  0.0271  0.0595
  422loPI   C4B 6752   4.873   4.143   8.623  0.2381  0.1218 -0.0670
  423loPI    C1 6753   4.986   4.012  10.876 -0.0328 -0.2218  0.0387
  423loPI    C2 6754   5.003   3.647  11.039  0.2046 -0.1162  0.2578
  423loPI    C3 6755   4.933   3.966  11.270  0.0802 -0.0127  0.0795
  423loPI   PO4 6756   4.810   3.986  10.595 -0.3441  0.1409 -0.0483
  423loPI   GL1 6757   4.639   3.708  10.267 -0.1765 -0.1780 -0.2287
  423loPI   GL2 6758   4.315   3.709  10.306  0.2124 -0.2672  0.0944
  423loPI   C1A 6759   4.663   3.701   9.845  0.1889 -0.0916 -0.1073
  423loPI   C2A 6760   4.732   3.726   9.442  0.2544  0.1588  0.2416
  423loPI   C3A 6761   4.665   3.667   9.002 -0.3181  0.0369  0.1125
  423loPI   C4A 6762   4.758   3.626   8.585  0.0261  0.0382 -0.1622
  423loPI   C5A 6763   4.584   3.389   8.198  0.1338  0.2131  0.2546
  423loPI   C6A 6764   4.541   3.148   7.842  0.0035 -0.1472  0.2173
  423loPI   C1B 6765   4.201   3.546   9.975  0.0411 -0.6101  0.2414
  423loPI   C2B 6766   4.208   3.497   9.479 -0.2053  0.1773  0.1105
  423loPI   C3B 6767   4.157   3.471   9.016 -0.0990 -0.2325  0.2161
  423loPI   C4B 6768   4.141   3.516   8.623  0.0163  0.1798  0.2869
  424loPI    C1 6769   2.129  15.337  11.110  0.0506 -0.0207  0.1479
  424loPI    C2 6770   1.878  15.537  11.348 -0.0010  0.0668  0.0214
  424loPI    C3 6771   2.107  15.245  11.498 -0.0495  0.1059  0.1727
  424loPI   PO4 6772   2.060  15.196  10.840 -0.2692 -0.1690 -0.1671
  424loPI   GL1 6773   2.292  15.150  10.438 -0.1127  0.2375 -0.0276
  424loPI   GL2 6774   2.429  15.218  10.075 -0.1623  0.1171  0.1449
  424loPI   C1A 6775   1.935  15.090  10.141  0.0491 -0.0777 -0.0939
  424loPI   C2A 6776   1.965  15.189   9.755  0.2033  0.0024 -0.0496
  424loPI   C3A 6777   1.982  15.182   9.299 -0.1172  0.1907  0.0339
  424loPI   C4A 6778   1.907  15.110   8.795 -0.0210  0.2117 -0.3695
  424loPI   C5A 6779   1.797  15.071   8.429  0.0565 -0.1431  0.0013
  424loPI   C6A 6780   1.459  15.176   8.160 -0.5478  0.1622  0.0193
  424loPI   C1B 6781   2.446  15.374   9.624  0.5196 -0.0396 -0.1192
  424loPI   C2B 6782   2.457  15.347   9.283  0.0615  0.0319 -0.0887
  424loPI   C3B 6783   2.423  15.297   8.865 -0.0459  0.3556  0.0813
  424loPI   C4B 6784   2.279  15.189   8.439 -0.2378  0.0009  0.1255
  425loPI    C1 6785   6.206   4.575  10.722  0.0170 -0.0230 -0.1457
  425loPI    C2 6786   6.254   4.729  11.088  0.0987  0.0425 -0.1837
  425loPI    C3 6787   6.559   4.543  10.907  0.0616  0.0195 -0.2230
  425loPI   PO4 6788   6.092   4.597  10.580 -0.5176 -0.0736 -0.0988
  425loPI   GL1 6789   6.118   4.339  10.196  0.0426  0.0776  0.0246
  425loPI   GL2 6790   5.873   4.540  10.130  0.0996  0.1702 -0.1227
  425loPI   C1A 6791   6.207   4.293   9.814  0.1507  0.1831  0.0599
  425loPI   C2A 6792   6.176   4.362   9.406 -0.0893 -0.0061 -0.1096
  425loPI   C3A 6793   6.123   4.167   8.945  0.0615  0.0826 -0.1390
  425loPI   C4A 6794   6.286   4.193   8.582  0.1517 -0.4749  0.3783
  425loPI   C5A 6795   6.181   4.311   8.151 -0.1941  0.0578 -0.2464
  425loPI   C6A 6796   6.350   4.342   7.675  0.0458  0.2642 -0.3047
  425loPI   C1B 6797   5.845   4.682   9.742 -0.4348  0.1600  0.2550
  425loPI   C2B 6798   5.717   4.678   9.346 -0.0149 -0.1914  0.0330
  425loPI   C3B 6799   5.775   4.526   8.820  0.0006  0.0107 -0.1969
  425loPI   C4B 6800   5.878   4.478   8.464  0.0591  0.0156  0.2368
  426loPI    C1 6801   0.687   2.280  10.806  0.1020 -0.1412 -0.2412
  426loPI    C2 6802   0.731   2.194  11.194 -0.0337  0.2234 -0.1413
  426loPI    C3 6803   0.369   2.175  11.025  0.0225  0.0816 -0.2472
  426loPI   PO4 6804   0.776   2.195  10.622 -0.0371 -0.2819  0.0731
  426loPI   GL1 6805   0.798   2.314  10.210 -0.3269 -0.1994  0.1713
  426loPI   GL2 6806   0.636   2.567  10.249 -0.0877 -0.5053 -0.0065
  426loPI   C1A 6807   0.953   2.082   9.809 -0.2220 -0.4410  0.0545
  426loPI   C2A 6808   0.901   2.045   9.364  0.1279  0.0186 -0.0114
  426loPI   C3A 6809   1.025   2.073   8.946  0.1473  0.0390  0.2514
  426loPI   C4A 6810   1.000   2.006   8.575 -0.1697  0.0942 -0.1576
  426loPI   C5A 6811   1.066   1.794   8.190  0.0058 -0.0049  0.0757
  426loPI   C6A 6812   0.933   1.542   7.851  0.1453  0.2383 -0.3040
  426loPI   C1B 6813   0.817   2.571   9.778  0.0655 -0.2934  0.1217
  426loPI   C2B 6814   0.932   2.593   9.382  0.1297  0.0193 -0.1882
  426loPI   C3B 6815   1.031   2.648   8.922  0.0198 -0.1211 -0.1049
  426loPI   C4B 6816   1.100   2.574   8.531  0.0747  0.1375 -0.1869
  427loPI    C1 6817   6.996   0.745  10.959  0.1630  0.1434  0.1193
  427loPI    C2 6818   6.668   0.703  11.184 -0.0184  0.1268 -0.1435
  427loPI    C3 6819   6.973   0.926  11.315  0.0837 -0.2757  0.3336
  427loPI   PO4 6820   6.835   0.741  10.714  0.2929 -0.1236  0.1890
  427loPI   GL1 6821   6.494   0.719  10.436  0.0581 -0.1717 -0.1450
  427loPI   GL2 6822   6.252   0.914  10.562 -0.1027 -0.0974  0.3526
  427loPI   C1A 6823   6.564   0.733   9.955  0.0532 -0.1985 -0.0460
  427loPI   C2A 6824   6.546   0.532   9.560 -0.0705  0.2508  0.0979
  427loPI   C3A 6825   6.583   0.544   9.101 -0.0570 -0.1450  0.4912
  427loPI   C4A 6826   6.636   0.484   8.584 -0.1186  0.3293  0.3217
  427loPI   C5A 6827   6.863   0.472   8.259 -0.0500 -0.4973  0.2197
  427loPI   C6A 6828   7.180   0.639   7.830  0.4310  0.2276 -0.0976
  427loPI   C1B 6829   6.166   1.031  10.174  0.2243  0.2906 -0.0542
  427loPI   C2B 6830   6.187   0.949   9.683 -0.1267 -0.2967  0.1510
  427loPI   C3B 6831   6.112   0.858   9.300 -0.0093  0.0225 -0.3591
  427loPI   C4B 6832   6.155   0.897   8.858  0.0079 -0.1331 -0.1957
  428loPI    C1 6833   7.518  10.437  10.441  0.0157 -0.0273 -0.0772
  428loPI    C2 6834   7.276  10.384  10.755  0.0970  0.1837  0.0231
  428loPI    C3 6835   7.672  10.349  10.799  0.1046  0.1467 -0.0714
  428loPI   PO4 6836   7.416  10.293  10.261 -0.1681  0.0028 -0.0582
  428loPI   GL1 6837   6.989  10.221   9.967  0.2235  0.0678 -0.2111
  428loPI   GL2 6838   6.915  10.512   9.931  0.0506  0.1415  0.0090
  428loPI   C1A 6839   7.175  10.234   9.607  0.0968 -0.1391  0.2518
  428loPI   C2A 6840   7.222  10.310   9.139 -0.1122 -0.1469  0.0760
  428loPI   C3A 6841   7.124  10.501   8.784  0.0187 -0.2325  0.0320
  428loPI   C4A 6842   7.232  10.526   8.299  0.0912 -0.3546 -0.0137
  428loPI   C5A 6843   7.256  10.202   7.990 -0.2114 -0.0494 -0.1345
  428loPI   C6A 6844   6.923  10.003   7.884  0.3283 -0.1106 -0.2488
  428loPI   C1B 6845   6.830  10.571   9.463 -0.0845  0.0307 -0.2108
  428loPI   C2B 6846   6.796  10.708   9.096  0.2067 -0.0001  0.0770
  428loPI   C3B 6847   6.696  10.706   8.685 -0.1687 -0.0865  0.3077
  428loPI   C4B 6848   6.645  10.891   8.250  0.1265 -0.2216 -0.0732
  429loPI    C1 6849   7.411   7.704  10.370 -0.1556 -0.2290  0.0771
  429loPI    C2 6850   7.660   7.749  10.680 -0.0436 -0.1233 -0.0272
  429loPI    C3 6851   7.266   7.725  10.742 -0.0236 -0.0750  0.1213
  429loPI   PO4 6852   7.428   7.874  10.153  0.3370  0.3301  0.0022
  429loPI   GL1 6853   7.356   8.008   9.801  0.0538 -0.1775  0.0114
  429loPI   GL2 6854   7.594   8.158   9.730 -0.1504  0.2709  0.3823
  429loPI   C1A 6855   7.219   7.683   9.442 -0.1976 -0.0835  0.2362
  429loPI   C2A 6856   7.243   7.501   8.994  0.2116 -0.4214 -0.0840
  429loPI   C3A 6857   7.141   7.567   8.576  0.0248 -0.1231  0.2388
  429loPI   C4A 6858   7.109   7.529   8.146 -0.3467 -0.2418  0.0792
  429loPI   C5A 6859   6.864   7.627   7.824 -0.4360  0.5810  0.3364
  429loPI   C6A 6860   6.469   7.929   7.673  0.0404  0.4052 -0.0490
  429loPI   C1B 6861   7.506   8.181   9.363 -0.1121 -0.2550  0.1522
  429loPI   C2B 6862   7.451   8.019   9.005 -0.1588 -0.1595 -0.0194
  429loPI   C3B 6863   7.380   8.002   8.570  0.1809 -0.0085  0.1340
  429loPI   C4B 6864   7.244   8.014   8.245  0.0411 -0.0424 -0.0499
  430loPI    C1 6865  18.230  12.737  10.743 -0.2635 -0.0143  0.0293
  430loPI    C2 6866  18.490  12.713  11.047 -0.0904 -0.1640 -0.1274
  430loPI    C3 6867  18.181  12.967  11.066 -0.0369 -0.1163  0.1388
  430loPI   PO4 6868  18.278  12.808  10.524  0.2222 -0.1260 -0.0366
  430loPI   GL1 6869  18.248  13.095  10.339  0.1246 -0.0769 -0.3201
  430loPI   GL2 6870  17.950  12.966  10.141 -0.1595  0.2599  0.0961
  430loPI   C1A 6871  18.495  12.877   9.930 -0.0840 -0.0159  0.0331
  430loPI   C2A 6872  18.600  12.916   9.517 -0.0514  0.0807 -0.0705
  430loPI   C3A 6873  18.579  12.877   9.100 -0.3814  0.1815  0.0125
  430loPI   C4A 6874  18.665  13.053   8.679  0.0763  0.4440  0.1394
  430loPI   C5A 6875  18.835  13.171   8.318  0.1880 -0.0398 -0.1443
  430loPI   C6A 6876  19.201  13.152   8.144 -0.1912 -0.0032  0.1380
  430loPI   C1B 6877  18.040  13.268   9.751 -0.4057 -0.1058  0.0683
  430loPI   C2B 6878  18.192  13.202   9.318  0.0952 -0.0172 -0.1262
  430loPI   C3B 6879  18.264  13.267   8.938  0.2154 -0.0365 -0.0069
  430loPI   C4B 6880  18.212  13.372   8.463  0.0726 -0.1376 -0.1350
  431loPI    C1 6881   7.386  10.909  10.544  0.1186  0.0741  0.0228
  431loPI    C2 6882   7.518  11.226  10.749  0.2194  0.1235 -0.1166
  431loPI    C3 6883   7.561  10.858  10.900  0.0754  0.1773  0.0592
  431loPI   PO4 6884   7.330  11.044  10.289 -0.1566  0.0876 -0.0816
  431loPI   GL1 6885   7.396  11.431  10.046  0.0130  0.1198 -0.1751
  431loPI   GL2 6886   7.543  11.179   9.805 -0.1235  0.1170  0.1014
  431loPI   C1A 6887   7.531  11.723   9.780  0.2293  0.0959  0.0881
  431loPI   C2A 6888   7.517  11.914   9.354  0.0031  0.3457 -0.0077
  431loPI   C3A 6889   7.408  11.861   8.971 -0.3077  0.0295 -0.0041
  431loPI   C4A 6890   7.548  12.066   8.608  0.0494  0.1479 -0.2353
  431loPI   C5A 6891   7.371  12.387   8.250  0.1040 -0.2000 -0.0323
  431loPI   C6A 6892   6.971  12.287   8.199 -0.0249 -0.1896 -0.2336
  431loPI   C1B 6893   7.526  11.312   9.399 -0.0438 -0.0045  0.1207
  431loPI   C2B 6894   7.423  11.337   8.992 -0.1475  0.2160  0.1221
  431loPI   C3B 6895   7.479  11.473   8.550 -0.0231 -0.2652  0.1425
  431loPI   C4B 6896   7.465  11.455   8.117 -0.1901 -0.1269  0.0232
  432loPI    C1 6897  18.250   4.350  10.552 -0.1091  0.0299  0.0317
  432loPI    C2 6898  18.156   4.133  10.875  0.1639 -0.1368  0.0029
  432loPI    C3 6899  17.944   4.093  10.538 -0.1943  0.1212  0.1899
  432loPI   PO4 6900  18.519   4.326  10.536 -0.0105 -0.2596  0.2611
  432loPI   GL1 6901  18.745   4.421  10.190  0.2337  0.2486 -0.0680
  432loPI   GL2 6902  18.565   4.286   9.959 -0.5774  0.2086 -0.0533
  432loPI   C1A 6903  19.068   4.455   9.841 -0.1721  0.1000 -0.1353
  432loPI   C2A 6904  19.100   4.475   9.394  0.0119  0.0572  0.0258
  432loPI   C3A 6905  19.121   4.467   8.963  0.2130  0.2130 -0.0074
  432loPI   C4A 6906  19.263   4.462   8.526  0.2600 -0.2872 -0.4095
  432loPI   C5A 6907  19.096   4.315   8.102  0.1739  0.0059 -0.0410
  432loPI   C6A 6908  19.175   4.411   7.600 -0.0831 -0.1626  0.1997
  432loPI   C1B 6909  18.610   4.390   9.579 -0.2946 -0.0926  0.1319
  432loPI   C2B 6910  18.679   4.354   9.164 -0.2826 -0.1048  0.3101
  432loPI   C3B 6911  18.742   4.355   8.648 -0.0536  0.0403  0.2422
  432loPI   C4B 6912  18.509   4.446   8.239  0.1353  0.2720  0.0613
  433loPI    C1 6913   8.136  12.360  10.620 -0.0001 -0.1258  0.1576
  433loPI    C2 6914   7.845  12.564  10.804  0.1102  0.0680  0.1191
  433loPI    C3 6915   8.160  12.433  11.012  0.0853  0.0190  0.1260
  433loPI   PO4 6916   8.267  12.466  10.402  0.1908 -0.1179  0.0583
  433loPI   GL1 6917   8.069  12.473   9.968 -0.1643 -0.3772 -0.0709
  433loPI   GL2 6918   8.322  12.683   9.921  0.2168  0.0532  0.1432
  433loPI   C1A 6919   8.079  12.548   9.515 -0.0157  0.1691 -0.0203
  433loPI   C2A 6920   8.056  12.629   9.059  0.0129  0.4932  0.1100
  433loPI   C3A 6921   7.993  12.571   8.574 -0.1047  0.2912  0.1715
  433loPI   C4A 6922   7.789  12.725   8.186 -0.1547  0.0531  0.2491
  433loPI   C5A 6923   7.524  12.805   7.917  0.1093  0.0931  0.1962
  433loPI   C6A 6924   7.090  12.816   7.976  0.0190  0.0127  0.1404
  433loPI   C1B 6925   8.613  12.830   9.701 -0.0400  0.1740 -0.0792
  433loPI   C2B 6926   8.575  12.737   9.340  0.2722 -0.1214 -0.0467
  433loPI   C3B 6927   8.533  12.816   8.907  0.0492  0.1622 -0.1728
  433loPI   C4B 6928   8.388  12.851   8.389 -0.2040  0.5424  0.1003
  434loPI    C1 6929   8.321   8.895  10.496  0.2019  0.1898 -0.1119
  434loPI    C2 6930   8.198   8.551  10.334 -0.0839  0.1922  0.0929
  434loPI    C3 6931   8.557   8.573  10.507 -0.0549  0.0034  0.0582
  434loPI   PO4 6932   8.373   9.094  10.283 -0.0653  0.2015 -0.0211
  434loPI   GL1 6933   8.562   9.135   9.849 -0.1946 -0.3298 -0.1194
  434loPI   GL2 6934   8.686   8.898   9.538  0.0083 -0.0403  0.2013
  434loPI   C1A 6935   8.551   9.344   9.495  0.0007 -0.1140  0.2595
  434loPI   C2A 6936   8.621   9.320   8.991  0.3642 -0.0513 -0.0208
  434loPI   C3A 6937   8.339   9.250   8.630  0.2908  0.1526  0.4031
  434loPI   C4A 6938   8.067   9.119   8.321 -0.1040  0.0408  0.2871
  434loPI   C5A 6939   7.784   9.341   8.035 -0.0291 -0.1603  0.1718
  434loPI   C6A 6940   7.599   9.808   7.995  0.0948  0.1695  0.0734
  434loPI   C1B 6941   8.627   8.851   9.110  0.0875  0.0708 -0.1212
  434loPI   C2B 6942   8.756   8.929   8.681 -0.0378 -0.0272 -0.1036
  434loPI   C3B 6943   8.602   8.869   8.331  0.1948 -0.2992 -0.1498
  434loPI   C4B 6944   8.824   8.614   8.013 -0.2900 -0.0172  0.0861
  435loPI    C1 6945   8.364   0.551  11.118 -0.0590 -0.0082  0.0086
  435loPI    C2 6946   8.257   0.808  11.405  0.1448 -0.1956  0.2576
  435loPI    C3 6947   8.197   0.416  11.456  0.1239 -0.2252  0.0149
  435loPI   PO4 6948   8.326   0.679  10.890 -0.0285  0.2257 -0.1926
  435loPI   GL1 6949   8.439   0.545  10.518  0.3341  0.5250  0.1395
  435loPI   GL2 6950   8.271   0.317  10.285  0.0681 -0.1422 -0.0644
  435loPI   C1A 6951   8.645   0.604  10.078 -0.1956  0.1969  0.0074
  435loPI   C2A 6952   8.810   0.509   9.757  0.0180  0.0192 -0.2283
  435loPI   C3A 6953   8.903   0.462   9.403  0.1420 -0.1645 -0.0586
  435loPI   C4A 6954   8.886   0.437   9.027 -0.1756  0.3396 -0.2393
  435loPI   C5A 6955   8.895   0.410   8.605  0.1149 -0.3156 -0.1459
  435loPI   C6A 6956   9.014  -0.035   8.396  0.0771 -0.1065  0.2161
  435loPI   C1B 6957   8.200   0.386   9.888 -0.1038 -0.0712  0.0579
  435loPI   C2B 6958   8.375   0.430   9.493 -0.0237 -0.3460 -0.2039
  435loPI   C3B 6959   8.427   0.256   9.105 -0.2171 -0.0618 -0.2913
  435loPI   C4B 6960   8.408   0.155   8.641  0.0064 -0.1692 -0.1693
  436loPI    C1 6961   1.847   8.467  10.745 -0.0450  0.0660  0.0112
  436loPI    C2 6962   1.467   8.464  10.870 -0.0297  0.1335  0.0600
  436loPI    C3 6963   1.758   8.584  11.117  0.0113  0.1823 -0.0113
  436loPI   PO4 6964   1.869   8.518  10.533  0.0787  0.0560  0.0445
  436loPI   GL1 6965   1.868   8.538  10.082 -0.0391  0.1195 -0.1089
  436loPI   GL2 6966   2.211   8.491  10.126  0.1502  0.4799 -0.0142
  436loPI   C1A 6967   1.750   8.298   9.689  0.1904  0.1051  0.3710
  436loPI   C2A 6968   1.804   8.349   9.202  0.1527 -0.2721  0.5686
  436loPI   C3A 6969   1.819   8.298   8.744  0.2174  0.1985  0.4740
  436loPI   C4A 6970   1.885   8.221   8.440  0.0797  0.1137  0.1862
  436loPI   C5A 6971   2.008   8.358   8.064  0.0186 -0.2747 -0.1055
  436loPI   C6A 6972   2.274   8.300   7.706  0.2489  0.1661  0.3843
  436loPI   C1B 6973   2.287   8.514   9.701 -0.0045 -0.0170 -0.0058
  436loPI   C2B 6974   2.354   8.593   9.185 -0.0458  0.2197  0.0441
  436loPI   C3B 6975   2.287   8.472   8.770  0.1630  0.1484 -0.1608
  436loPI   C4B 6976   2.365   8.564   8.320 -0.1782  0.4212  0.0392
  437loPI    C1 6977   2.975  10.561  10.785  0.1437 -0.2128  0.0054
  437loPI    C2 6978   2.883  10.276  11.050 -0.0916 -0.0903  0.0583
  437loPI    C3 6979   3.118  10.581  11.158  0.0266 -0.1769  0.0487
  437loPI   PO4 6980   2.834  10.574  10.588 -0.1313 -0.3280 -0.0047
  437loPI   GL1 6981   2.640  10.718  10.218  0.0944  0.0674 -0.0077
  437loPI   GL2 6982   2.696  11.037  10.242  0.1007  0.3840  0.0175
  437loPI   C1A 6983   2.618  10.485   9.859  0.2683  0.1111  0.0360
  437loPI   C2A 6984   2.586  10.604   9.490 -0.2148  0.1780  0.1867
  437loPI   C3A 6985   2.624  10.664   9.035 -0.1025 -0.0408 -0.3424
  437loPI   C4A 6986   2.607  10.612   8.681 -0.1327  0.0197 -0.2231
  437loPI   C5A 6987   2.658  10.722   8.291  0.1832  0.0812  0.0360
  437loPI   C6A 6988   2.621  11.002   8.018  0.0134  0.0499 -0.2835
  437loPI   C1B 6989   2.589  11.093   9.822 -0.0334  0.1875  0.0842
  437loPI   C2B 6990   2.685  11.076   9.376 -0.0087 -0.3476 -0.0025
  437loPI   C3B 6991   2.767  11.150   8.871 -0.5024  0.0278  0.5460
  437loPI   C4B 6992   2.595  11.265   8.416  0.1711 -0.2943  0.5754
  438loPI    C1 6993  17.400   3.754  10.657 -0.0741  0.0775 -0.2290
  438loPI    C2 6994  17.123   4.043  10.655 -0.0386  0.1164  0.0507
  438loPI    C3 6995  17.028   3.676  10.783 -0.0257  0.0625 -0.0932
  438loPI   PO4 6996  17.508   3.812  10.436 -0.1633  0.1219  0.4422
  438loPI   GL1 6997  17.353   3.688  10.045  0.5266 -0.1766  0.1138
  438loPI   GL2 6998  17.584   3.938   9.972 -0.0031 -0.2965  0.1219
  438loPI   C1A 6999  17.462   3.493   9.720 -0.5400  0.1355 -0.0090
  438loPI   C2A 7000  17.626   3.415   9.271 -0.0292  0.1013  0.1095
  438loPI   C3A 7001  17.622   3.390   8.766  0.0021 -0.0752  0.0024
  438loPI   C4A 7002  17.682   3.380   8.424  0.0779 -0.1772  0.0694
  438loPI   C5A 7003  17.845   3.396   8.011  0.0504  0.0207  0.1835
  438loPI   C6A 7004  17.958   3.568   7.701  0.0848  0.1339  0.4497
  438loPI   C1B 7005  17.733   3.981   9.449  0.0661 -0.0198  0.0724
  438loPI   C2B 7006  17.674   3.950   8.966  0.1406 -0.2178  0.0339
  438loPI   C3B 7007  17.753   3.870   8.582  0.0670  0.0438 -0.1669
  438loPI   C4B 7008  17.803   3.852   8.187  0.0811 -0.1190  0.1590
  439loPI    C1 7009   9.876  18.079  10.936  0.2037 -0.0632  0.0265
  439loPI    C2 7010   9.998  17.757  11.140  0.1306 -0.1207 -0.0203
  439loPI    C3 7011   9.741  18.014  11.306  0.1375 -0.1221 -0.0077
  439loPI   PO4 7012   9.754  17.959  10.755  0.1719  0.1177  0.2472
  439loPI   GL1 7013   9.495  17.808  10.512  0.2841  0.0871 -0.2965
  439loPI   GL2 7014   9.181  18.018  10.460 -0.4047  0.0662  0.0079
  439loPI   C1A 7015   9.570  17.646  10.036  0.1587 -0.0401 -0.1392
  439loPI   C2A 7016   9.621  17.817   9.521  0.2111 -0.0661 -0.1138
  439loPI   C3A 7017   9.683  17.735   9.052 -0.3945  0.1904  0.4601
  439loPI   C4A 7018   9.685  17.585   8.591  0.2174 -0.2067  0.2765
  439loPI   C5A 7019   9.409  17.662   8.203 -0.0842  0.0129  0.1009
  439loPI   C6A 7020   9.004  17.583   7.847 -0.3761 -0.0925 -0.0845
  439loPI   C1B 7021   9.093  18.000  10.067 -0.1093  0.0889  0.3629
  439loPI   C2B 7022   9.149  18.046   9.578  0.1117 -0.0612 -0.0439
  439loPI   C3B 7023   9.278  18.052   9.096 -0.1860  0.2091 -0.1265
  439loPI   C4B 7024   9.243  18.004   8.667  0.0759  0.1769  0.1738
  440loPI    C1 7025  16.044   2.027  10.768  0.1404 -0.2738  0.0856
  440loPI    C2 7026  15.721   1.816  10.876 -0.1214  0.1156  0.0827
  440loPI    C3 7027  16.087   1.683  10.967 -0.2857 -0.2636  0.2057
  440loPI   PO4 7028  16.034   2.140  10.517 -0.0100  0.1553  0.2638
  440loPI   GL1 7029  16.011   2.016  10.081 -0.1752  0.1142 -0.0269
  440loPI   GL2 7030  15.799   2.266  10.021  0.0770  0.3973  0.2642
  440loPI   C1A 7031  15.924   1.774   9.786  0.2661  0.1272  0.0551
  440loPI   C2A 7032  15.959   1.719   9.387  0.2537 -0.1619 -0.0747
  440loPI   C3A 7033  16.064   1.763   8.955 -0.3016 -0.0333 -0.2803
  440loPI   C4A 7034  15.948   1.717   8.639 -0.0023 -0.0036 -0.1015
  440loPI   C5A 7035  15.956   1.818   8.235 -0.0821 -0.2642  0.0885
  440loPI   C6A 7036  15.785   1.942   7.873 -0.0377 -0.0141  0.1935
  440loPI   C1B 7037  15.782   2.185   9.633 -0.0059 -0.2074  0.1023
  440loPI   C2B 7038  15.613   2.066   9.155  0.2795  0.2486 -0.1992
  440loPI   C3B 7039  15.693   2.135   8.695  0.3032 -0.4379  0.2352
  440loPI   C4B 7040  15.623   2.179   8.247  0.0605  0.0762  0.4503
  441loPI    C1 7041  16.219  13.974  10.726 -0.1179 -0.1380  0.4700
  441loPI    C2 7042  16.279  13.580  10.750  0.1267 -0.1414 -0.0559
  441loPI    C3 7043  16.567  13.833  10.863  0.1263 -0.1196 -0.1037
  441loPI   PO4 7044  16.125  13.947  10.427 -0.0099  0.2650 -0.1945
  441loPI   GL1 7045  16.271  13.819   9.986  0.1208 -0.1072  0.0034
  441loPI   GL2 7046  16.161  13.656   9.720 -0.1900 -0.2119 -0.0572
  441loPI   C1A 7047  16.351  14.084   9.553  0.0012  0.0156  0.0207
  441loPI   C2A 7048  16.452  13.981   9.110 -0.2284  0.3110 -0.0200
  441loPI   C3A 7049  16.433  14.092   8.600  0.0797 -0.1113 -0.2150
  441loPI   C4A 7050  16.146  14.108   8.177 -0.0133 -0.1058 -0.0544
  441loPI   C5A 7051  16.238  14.229   7.759  0.0465  0.0441 -0.0693
  441loPI   C6A 7052  16.301  14.560   7.547 -0.3133  0.0778  0.0844
  441loPI   C1B 7053  16.356  13.516   9.350 -0.1854 -0.4592  0.0551
  441loPI   C2B 7054  16.469  13.484   8.915  0.0250 -0.0357 -0.0752
  441loPI   C3B 7055  16.295  13.535   8.506  0.0242  0.2652 -0.1487
  441loPI   C4B 7056  16.361  13.667   8.192 -0.1057  0.0507  0.2332
  442loPI    C1 7057  16.957  11.606  10.199 -0.1359  0.0232  0.0650
  442loPI    C2 7058  17.286  11.825  10.138 -0.0252 -0.1536  0.0216
  442loPI    C3 7059  17.136  11.788  10.507 -0.1236  0.1055  0.0095
  442loPI   PO4 7060  16.790  11.697  10.052 -0.0308  0.0831 -0.1782
  442loPI   GL1 7061  16.963  11.535   9.681 -0.0138  0.3364 -0.1687
  442loPI   GL2 7062  17.048  11.861   9.620  0.3607  0.2782 -0.1358
  442loPI   C1A 7063  16.582  11.478   9.367  0.1039 -0.0431  0.1086
  442loPI   C2A 7064  16.528  11.697   8.896 -0.5511 -0.0854  0.3434
  442loPI   C3A 7065  16.495  11.750   8.482  0.0370 -0.1692  0.1523
  442loPI   C4A 7066  16.538  11.679   8.010 -0.1849  0.3082  0.1960
  442loPI   C5A 7067  16.596  11.599   7.522  0.2482 -0.2592  0.2098
  442loPI   C6A 7068  16.512  11.533   7.160 -0.0784  0.0675  0.1295
  442loPI   C1B 7069  16.947  11.799   9.107  0.0540 -0.0420 -0.1459
  442loPI   C2B 7070  17.032  11.893   8.601  0.5198 -0.1451  0.2006
  442loPI   C3B 7071  17.020  12.043   8.249 -0.2212 -0.3677 -0.2720
  442loPI   C4B 7072  16.879  12.033   7.810  0.0892  0.1156 -0.0630
  443loPI    C1 7073   8.382  12.879  10.730 -0.2001 -0.1817  0.1149
  443loPI    C2 7074   8.723  12.960  10.924 -0.2262  0.2812 -0.0212
  443loPI    C3 7075   8.383  12.909  11.129 -0.1201  0.0459  0.0992
  443loPI   PO4 7076   8.469  12.955  10.464 -0.2963  0.1562 -0.0224
  443loPI   GL1 7077   8.401  13.164  10.095  0.0481  0.0024  0.0943
  443loPI   GL2 7078   8.678  13.355  10.207  0.0433 -0.3764  0.0693
  443loPI   C1A 7079   8.208  13.212   9.751 -0.1300 -0.0713 -0.2552
  443loPI   C2A 7080   8.155  13.039   9.401 -0.0117 -0.0909  0.2673
  443loPI   C3A 7081   8.109  13.186   9.023  0.1625 -0.0330 -0.2142
  443loPI   C4A 7082   8.168  13.273   8.621 -0.3404  0.0693  0.1588
  443loPI   C5A 7083   7.985  13.179   8.195  0.2254 -0.1658  0.0358
  443loPI   C6A 7084   7.996  12.927   7.760 -0.0468  0.0156  0.1488
  443loPI   C1B 7085   8.665  13.431   9.636  0.0520 -0.1024 -0.2625
  443loPI   C2B 7086   8.599  13.389   9.263  0.2294  0.0464 -0.1014
  443loPI   C3B 7087   8.518  13.471   8.916  0.1540  0.1831  0.1571
  443loPI   C4B 7088   8.672  13.332   8.499 -0.0585  0.1364  0.3046
  444loPI    C1 7089  14.208   5.372   9.924 -0.1838  0.1340  0.1886
  444loPI    C2 7090  14.573   5.374  10.088 -0.0055 -0.1257 -0.1911
  444loPI    C3 7091  14.254   5.283  10.312  0.1747 -0.0217  0.1142
  444loPI   PO4 7092  14.337   5.330   9.616  0.2376  0.0387  0.1447
  444loPI   GL1 7093  14.072   5.357   9.172  0.1037  0.1138  0.0596
  444loPI   GL2 7094  14.140   5.649   8.972 -0.1547 -0.1781 -0.1262
  444loPI   C1A 7095  14.208   5.019   8.841  0.3407  0.2448  0.0398
  444loPI   C2A 7096  14.297   4.981   8.370  0.0471  0.0767  0.1198
  444loPI   C3A 7097  14.256   5.262   8.097 -0.0382 -0.0747 -0.2217
  444loPI   C4A 7098  14.253   5.423   7.698  0.0995 -0.1984 -0.0992
  444loPI   C5A 7099  13.922   5.625   7.435  0.1410 -0.1668 -0.1546
  444loPI   C6A 7100  13.785   5.744   7.081  0.0188  0.2190 -0.2806
  444loPI   C1B 7101  13.909   5.559   8.555  0.2387  0.0808  0.0400
  444loPI   C2B 7102  13.800   5.582   8.079 -0.0969  0.2795  0.3618
  444loPI   C3B 7103  13.760   5.242   7.756 -0.1169 -0.0901  0.1286
  444loPI   C4B 7104  13.881   4.843   7.481  0.0253 -0.3822 -0.3666
  445loPI    C1 7105  18.372   3.716  11.062 -0.0213 -0.1250 -0.1617
  445loPI    C2 7106  18.614   3.472  11.267  0.0840 -0.0390 -0.1823
  445loPI    C3 7107  18.228   3.504  11.369  0.0802 -0.1784 -0.1505
  445loPI   PO4 7108  18.502   3.817  10.768  0.1460 -0.3685 -0.1319
  445loPI   GL1 7109  18.504   3.845  10.322  0.2237 -0.1790  0.1357
  445loPI   GL2 7110  18.755   3.682  10.335  0.1158  0.1381 -0.0293
  445loPI   C1A 7111  18.363   3.880  10.006  0.0817  0.0215  0.1631
  445loPI   C2A 7112  18.454   3.873   9.669 -0.1135 -0.0759  0.5323
  445loPI   C3A 7113  18.499   3.873   9.319  0.2649 -0.1513 -0.1154
  445loPI   C4A 7114  18.697   3.837   8.961  0.1210 -0.2630 -0.0709
  445loPI   C5A 7115  18.705   3.722   8.536  0.1554  0.3658  0.3194
  445loPI   C6A 7116  18.994   3.483   8.136 -0.0014  0.2213 -0.1069
  445loPI   C1B 7117  18.802   3.635   9.976 -0.0899 -0.1407 -0.1185
  445loPI   C2B 7118  18.871   3.550   9.532 -0.2788  0.0904  0.0239
  445loPI   C3B 7119  18.992   3.552   9.205 -0.0543  0.1600 -0.0239
  445loPI   C4B 7120  19.062   3.398   8.766 -0.1061 -0.0517 -0.1754
  446loPI    C1 7121  12.584   0.073  10.854  0.0018 -0.1244  0.0831
  446loPI    C2 7122  12.896   0.023  11.099 -0.0003 -0.0143  0.1087
  446loPI    C3 7123  12.571  -0.205  11.141  0.0606 -0.1015  0.1080
  446loPI   PO4 7124  12.581   0.004  10.612  0.0883  0.3200  0.0682
  446loPI   GL1 7125  12.392   0.173  10.300 -0.1782 -0.2651  0.0695
  446loPI   GL2 7126  12.134   0.118  10.396  0.1491  0.0484 -0.4634
  446loPI   C1A 7127  12.559   0.159   9.930 -0.1182 -0.1003 -0.0059
  446loPI   C2A 7128  12.385  -0.023   9.586  0.1387 -0.0740 -0.4931
  446loPI   C3A 7129  12.443   0.002   9.170  0.1414 -0.1444  0.3778
  446loPI   C4A 7130  12.487  -0.135   8.748  0.4161  0.0556 -0.1964
  446loPI   C5A 7131  12.508  -0.151   8.317  0.2070  0.1470  0.1665
  446loPI   C6A 7132  12.563  -0.075   7.904  0.0935 -0.0276 -0.0411
  446loPI   C1B 7133  12.052   0.229   9.913 -0.1680 -0.1580  0.0455
  446loPI   C2B 7134  12.068   0.294   9.426  0.1759  0.0489 -0.0236
  446loPI   C3B 7135  12.032   0.205   8.975 -0.0798 -0.1416 -0.3746
  446loPI   C4B 7136  12.072   0.075   8.478  0.0681  0.0012  0.1247
  447loPI    C1 7137  17.817   4.562  10.732 -0.2199  0.0556 -0.2455
  447loPI    C2 7138  17.710   4.861  10.975  0.1103  0.0354 -0.0692
  447loPI    C3 7139  17.446   4.576  10.881 -0.0396  0.0764  0.2177
  447loPI   PO4 7140  17.868   4.649  10.500 -0.1125 -0.0491  0.0319
  447loPI   GL1 7141  17.925   4.314  10.101  0.1292 -0.1532  0.0031
  447loPI   GL2 7142  17.738   4.465  10.044  0.3677 -0.2250  0.1808
  447loPI   C1A 7143  18.087   4.238   9.713 -0.0070  0.3025  0.1030
  447loPI   C2A 7144  18.110   4.151   9.287 -0.3220  0.2894  0.0892
  447loPI   C3A 7145  18.269   4.163   8.916 -0.2200  0.3239 -0.0965
  447loPI   C4A 7146  18.313   4.101   8.526  0.1015  0.0422  0.0646
  447loPI   C5A 7147  18.283   3.928   8.083  0.0510  0.2233  0.3861
  447loPI   C6A 7148  18.379   3.884   7.637 -0.0489 -0.0169 -0.0159
  447loPI   C1B 7149  17.655   4.421   9.602  0.0663 -0.1462 -0.1317
  447loPI   C2B 7150  17.768   4.437   9.117  0.2733  0.0965 -0.2137
  447loPI   C3B 7151  17.810   4.362   8.641  0.1180 -0.2469 -0.0732
  447loPI   C4B 7152  17.965   4.352   8.233 -0.1113 -0.0600  0.2824
  448loPI    C1 7153  13.463  14.965  10.988  0.1090 -0.1336  0.0123
  448loPI    C2 7154  13.476  14.574  11.072 -0.0926 -0.1270  0.0790
  448loPI    C3 7155  13.718  14.828  11.264 -0.1713 -0.1814  0.2519
  448loPI   PO4 7156  13.460  14.989  10.610 -0.0205  0.2106 -0.1972
  448loPI   GL1 7157  13.458  15.288  10.251 -0.4513  0.1406  0.1320
  448loPI   GL2 7158  13.712  15.121  10.164  0.0602 -0.2024 -0.2264
  448loPI   C1A 7159  13.284  15.327   9.982  0.2233 -0.2681 -0.1292
  448loPI   C2A 7160  13.272  15.438   9.522 -0.0687 -0.1324  0.2852
  448loPI   C3A 7161  13.305  15.299   9.073 -0.0007 -0.2766  0.1559
  448loPI   C4A 7162  13.464  15.205   8.796  0.1044  0.1717  0.1755
  448loPI   C5A 7163  13.215  15.152   8.476 -0.0396 -0.0635 -0.0395
  448loPI   C6A 7164  12.969  15.231   8.158  0.2522  0.1068  0.1211
  448loPI   C1B 7165  13.933  14.930   9.817 -0.3416  0.0149  0.1189
  448loPI   C2B 7166  13.950  14.936   9.334  0.4001 -0.4207  0.2991
  448loPI   C3B 7167  13.825  14.924   8.994  0.1247  0.2673  0.4178
  448loPI   C4B 7168  13.695  14.829   8.532  0.1930 -0.0641  0.0872
  449loPI    C1 7169  13.924   0.073  10.931 -0.2214 -0.2319 -0.0224
  449loPI    C2 7170  14.055   0.365  11.171  0.1144 -0.2863 -0.1346
  449loPI    C3 7171  13.720   0.167  11.261 -0.0995  0.1099 -0.0401
  449loPI   PO4 7172  13.855   0.161  10.710 -0.0161  0.1150 -0.1095
  449loPI   GL1 7173  14.192   0.163  10.504  0.0383 -0.1703  0.1351
  449loPI   GL2 7174  14.421   0.288  10.338 -0.2210  0.0625 -0.1571
  449loPI   C1A 7175  13.961   0.064  10.152 -0.0678  0.2035 -0.1953
  449loPI   C2A 7176  13.896  -0.040   9.809  0.0929 -0.0734  0.0574
  449loPI   C3A 7177  13.798  -0.029   9.387  0.2137 -0.0802 -0.1622
  449loPI   C4A 7178  13.890  -0.024   9.058 -0.1372 -0.1726  0.0724
  449loPI   C5A 7179  13.858   0.114   8.709  0.0847 -0.1247  0.4424
  449loPI   C6A 7180  13.777   0.024   8.320 -0.1048 -0.1214  0.1382
  449loPI   C1B 7181  14.437   0.154   9.952  0.3480  0.3127  0.0354
  449loPI   C2B 7182  14.306   0.166   9.563 -0.2573 -0.0735  0.0780
  449loPI   C3B 7183  14.385   0.191   9.151  0.2866  0.0819 -0.0639
  449loPI   C4B 7184  14.357   0.189   8.713  0.2382  0.3228 -0.3524
  450loPI    C1 7185   0.224   3.237  10.844 -0.3058  0.2446  0.3515
  450loPI    C2 7186   0.547   3.465  10.788 -0.1315 -0.0290  0.2174
  450loPI    C3 7187   0.560   3.159  11.046 -0.0232 -0.5265 -0.3568
  450loPI   PO4 7188   0.104   3.329  10.631 -0.0039 -0.1194  0.1594
  450loPI   GL1 7189  -0.208   3.116  10.320 -0.1040  0.4245 -0.1783
  450loPI   GL2 7190  -0.040   3.385  10.198  0.2520  0.1706  0.0883
  450loPI   C1A 7191  -0.115   2.854  10.014  0.0632  0.0954  0.1985
  450loPI   C2A 7192   0.052   2.860   9.542  0.0203 -0.1720  0.1619
  450loPI   C3A 7193   0.223   2.739   9.130 -0.1330 -0.0417  0.0507
  450loPI   C4A 7194   0.147   2.721   8.685 -0.1518 -0.0194 -0.4539
  450loPI   C5A 7195   0.235   2.599   8.335 -0.0900  0.0456  0.0129
  450loPI   C6A 7196   0.627   2.657   8.160  0.2592  0.1495  0.0105
  450loPI   C1B 7197   0.033   3.327   9.702  0.2369  0.0123 -0.1555
  450loPI   C2B 7198   0.110   3.238   9.255  0.1060 -0.3611  0.2752
  450loPI   C3B 7199   0.141   3.253   8.838 -0.2494 -0.2436 -0.1284
  450loPI   C4B 7200   0.199   3.143   8.369 -0.0770  0.2199  0.5388
  451loPI    C1 7201   4.646  12.839  10.950 -0.1922 -0.0891 -0.1932
  451loPI    C2 7202   4.483  13.118  10.714  0.1537 -0.0446 -0.3862
  451loPI    C3 7203   4.515  13.183  11.108 -0.3171 -0.0689 -0.3379
  451loPI   PO4 7204   4.522  12.622  10.923  0.5034  0.0155  0.2312
  451loPI   GL1 7205   4.225  12.692  10.550 -0.1357  0.0043 -0.0176
  451loPI   GL2 7206   4.084  12.445  10.691 -0.1063  0.0552 -0.2125
  451loPI   C1A 7207   4.277  12.697  10.070  0.1342 -0.0925  0.1555
  451loPI   C2A 7208   4.249  12.675   9.532 -0.2448 -0.2601 -0.1839
  451loPI   C3A 7209   4.294  12.679   9.092  0.2844  0.0752  0.1023
  451loPI   C4A 7210   4.233  12.647   8.690 -0.0548  0.1445  0.0550
  451loPI   C5A 7211   4.186  12.226   8.383  0.2008 -0.1083  0.0177
  451loPI   C6A 7212   4.200  11.902   8.056  0.1477 -0.0792  0.0331
  451loPI   C1B 7213   4.175  12.240  10.309 -0.0091  0.0893 -0.1262
  451loPI   C2B 7214   4.194  12.244   9.787 -0.3999 -0.2599 -0.3982
  451loPI   C3B 7215   4.203  12.216   9.289 -0.3100 -0.0555 -0.0421
  451loPI   C4B 7216   4.216  12.198   8.913  0.3662  0.0746  0.0421
  452loPI    C1 7217   6.682   5.593  10.729 -0.0104  0.1682  0.0314
  452loPI    C2 7218   6.898   5.916  10.823 -0.1061  0.2391  0.0082
  452loPI    C3 7219   6.860   5.618  11.087  0.2475  0.1028 -0.0899
  452loPI   PO4 7220   6.761   5.609  10.446 -0.1799 -0.3332  0.0448
  452loPI   GL1 7221   6.587   5.718  10.050  0.0199 -0.4033 -0.1150
  452loPI   GL2 7222   6.635   5.539   9.692 -0.0620 -0.1351  0.0756
  452loPI   C1A 7223   6.450   5.980   9.715 -0.0949  0.1168  0.0319
  452loPI   C2A 7224   6.538   5.998   9.260 -0.0385 -0.2877  0.0862
  452loPI   C3A 7225   6.469   5.857   8.847  0.1033 -0.1899  0.0070
  452loPI   C4A 7226   6.530   6.167   8.492 -0.2647 -0.1050 -0.2189
  452loPI   C5A 7227   6.366   6.367   8.142 -0.1841 -0.1003 -0.0727
  452loPI   C6A 7228   6.030   6.557   7.911 -0.4989  0.2351 -0.2197
  452loPI   C1B 7229   6.874   5.337   9.471  0.0188 -0.2130 -0.0812
  452loPI   C2B 7230   6.783   5.146   9.110  0.0355 -0.0721  0.1342
  452loPI   C3B 7231   6.725   4.991   8.732 -0.0464 -0.1066 -0.1126
  452loPI   C4B 7232   6.764   5.046   8.280 -0.1011  0.1102 -0.0688
  453loPI    C1 7233  11.512   0.909  10.801  0.0751 -0.0620  0.1113
  453loPI    C2 7234  11.607   1.215  10.561 -0.1542  0.0155  0.1175
  453loPI    C3 7235  11.601   1.266  10.958  0.0825 -0.0738  0.1339
  453loPI   PO4 7236  11.449   0.740  10.599 -0.0534  0.3202 -0.1955
  453loPI   GL1 7237  11.465   0.654  10.179  0.2010  0.0643  0.0937
  453loPI   GL2 7238  11.695   0.577  10.009 -0.3193  0.1467 -0.0403
  453loPI   C1A 7239  11.314   0.942   9.886  0.0373  0.0822  0.1016
  453loPI   C2A 7240  11.194   0.890   9.477 -0.5402  0.2267  0.0367
  453loPI   C3A 7241  11.268   0.922   9.062 -0.1083  0.2995 -0.0152
  453loPI   C4A 7242  11.181   0.923   8.636  0.0992 -0.1248 -0.0475
  453loPI   C5A 7243  11.056   0.996   8.231  0.0327  0.0826  0.1603
  453loPI   C6A 7244  10.800   1.142   7.951  0.0978 -0.0020  0.2662
  453loPI   C1B 7245  11.681   0.668   9.585  0.0796  0.3691 -0.3291
  453loPI   C2B 7246  11.691   0.600   9.130 -0.0372  0.1055  0.1265
  453loPI   C3B 7247  11.757   0.616   8.613 -0.1081  0.0624 -0.0187
  453loPI   C4B 7248  11.898   0.707   8.216 -0.1021 -0.1686  0.2209
  454loPI    C1 7249  11.613   4.414  10.320  0.1138  0.0421 -0.0898
  454loPI    C2 7250  11.615   4.711  10.588 -0.1710 -0.0492  0.0175
  454loPI    C3 7251  11.531   4.338  10.704  0.2666 -0.1908 -0.1015
  454loPI   PO4 7252  11.404   4.378  10.174 -0.1221  0.1254  0.3329
  454loPI   GL1 7253  11.171   4.207   9.808 -0.2292 -0.1594  0.3583
  454loPI   GL2 7254  11.467   3.989   9.686 -0.0101 -0.0439 -0.0603
  454loPI   C1A 7255  11.097   4.079   9.466  0.1789  0.1078 -0.0677
  454loPI   C2A 7256  11.022   3.870   9.037  0.0484 -0.0227 -0.3510
  454loPI   C3A 7257  10.988   3.804   8.606 -0.1470  0.2822  0.2277
  454loPI   C4A 7258  11.058   3.784   8.194 -0.2847 -0.0835  0.1433
  454loPI   C5A 7259  10.953   3.798   7.736 -0.2544 -0.0778 -0.0355
  454loPI   C6A 7260  10.873   4.117   7.387  0.0255  0.2801  0.1479
  454loPI   C1B 7261  11.592   3.877   9.288 -0.2471  0.1643 -0.1116
  454loPI   C2B 7262  11.492   3.957   8.799 -0.0592 -0.0619  0.3921
  454loPI   C3B 7263  11.503   3.971   8.281  0.1424  0.1143  0.0049
  454loPI   C4B 7264  11.422   4.062   7.871 -0.0874  0.2362 -0.1060
  455loPI    C1 7265   0.525   1.686  10.969 -0.0411 -0.0918 -0.1299
  455loPI    C2 7266   0.623   1.318  10.847  0.1760 -0.1059  0.0789
  455loPI    C3 7267   0.416   1.368  11.186 -0.2466 -0.0562 -0.1785
  455loPI   PO4 7268   0.513   1.772  10.689  0.1310  0.0531  0.0104
  455loPI   GL1 7269   0.693   1.605  10.287  0.0039 -0.2014  0.0955
  455loPI   GL2 7270   0.933   1.817  10.289  0.1908 -0.0025 -0.0643
  455loPI   C1A 7271   0.811   1.603   9.829  0.2637  0.0411 -0.0185
  455loPI   C2A 7272   0.863   1.535   9.418  0.0115  0.1333  0.0798
  455loPI   C3A 7273   0.900   1.600   9.033 -0.3773 -0.1644 -0.1113
  455loPI   C4A 7274   0.869   1.539   8.564 -0.5333 -0.2134  0.0203
  455loPI   C5A 7275   0.581   1.731   8.245 -0.0858  0.0352  0.2138
  455loPI   C6A 7276   0.405   1.699   7.882  0.1064 -0.0412  0.0450
  455loPI   C1B 7277   1.263   1.756  10.007  0.3100 -0.2068 -0.0529
  455loPI   C2B 7278   1.385   1.818   9.665  0.0466  0.0930  0.1473
  455loPI   C3B 7279   1.337   1.731   9.225  0.1888 -0.1074  0.0072
  455loPI   C4B 7280   1.347   1.700   8.752  0.0164 -0.0027  0.2007
  456loPI    C1 7281  15.315  17.675  11.155 -0.0150 -0.2219  0.2199
  456loPI    C2 7282  15.009  17.738  11.405 -0.0142 -0.1255  0.1968
  456loPI    C3 7283  15.169  17.373  11.374 -0.0828 -0.1612  0.2593
  456loPI   PO4 7284  15.279  17.898  10.972  0.1459 -0.0955 -0.1282
  456loPI   GL1 7285  15.027  17.982  10.599 -0.1488  0.0398  0.0744
  456loPI   GL2 7286  15.419  17.882  10.440  0.0364 -0.1138 -0.1087
  456loPI   C1A 7287  15.008  17.878  10.178  0.3492  0.3233  0.1212
  456loPI   C2A 7288  15.174  17.897   9.800 -0.1820 -0.1031  0.1690
  456loPI   C3A 7289  15.181  17.939   9.388  0.2029  0.1347  0.1653
  456loPI   C4A 7290  15.120  17.878   8.921 -0.0597  0.3162 -0.3114
  456loPI   C5A 7291  15.185  18.000   8.432  0.0913 -0.1039  0.2670
  456loPI   C6A 7292  15.488  18.077   8.180 -0.1310 -0.0071  0.0696
  456loPI   C1B 7293  15.547  18.078  10.073 -0.1036 -0.0314  0.0174
  456loPI   C2B 7294  15.647  18.155   9.611 -0.2290  0.2490  0.3427
  456loPI   C3B 7295  15.634  18.074   9.155  0.0321 -0.1300 -0.0757
  456loPI   C4B 7296  15.599  18.092   8.686  0.0028  0.1931 -0.3024
  457loPI    C1 7297   9.895  13.705  11.062 -0.0978 -0.2027 -0.2818
  457loPI    C2 7298  10.279  13.658  11.164 -0.1875  0.0633  0.2069
  457loPI    C3 7299  10.024  13.352  11.200 -0.0286 -0.1128 -0.1140
  457loPI   PO4 7300   9.874  13.795  10.783 -0.1206 -0.1619  0.0082
  457loPI   GL1 7301   9.947  14.008  10.496  0.0350 -0.3862  0.0771
  457loPI   GL2 7302  10.011  13.725  10.313 -0.1278 -0.1580  0.1414
  457loPI   C1A 7303   9.984  14.269  10.135  0.2364  0.0318 -0.3199
  457loPI   C2A 7304  10.081  14.498   9.683  0.2949 -0.0882 -0.2475
  457loPI   C3A 7305  10.046  14.504   9.280  0.1887  0.1352  0.0987
  457loPI   C4A 7306  10.025  14.427   8.886  0.1882 -0.0660 -0.1635
  457loPI   C5A 7307   9.985  14.515   8.511  0.0588 -0.1550 -0.3172
  457loPI   C6A 7308  10.143  14.542   8.157  0.0345 -0.1687 -0.1089
  457loPI   C1B 7309   9.966  13.867   9.918 -0.1428 -0.2819  0.1994
  457loPI   C2B 7310  10.003  13.969   9.476 -0.2865  0.0118 -0.0262
  457loPI   C3B 7311   9.946  13.976   9.042  0.0806  0.1233 -0.2038
  457loPI   C4B 7312  10.122  13.917   8.615 -0.3804 -0.1965  0.2460
  458loPI    C1 7313   0.615   5.515  10.611 -0.0721 -0.1401 -0.2444
  458loPI    C2 7314   0.315   5.425  10.859  0.0269 -0.1108 -0.1130
  458loPI    C3 7315   0.394   5.807  10.771  0.1496 -0.1075  0.0087
  458loPI   PO4 7316   0.579   5.290  10.387 -0.0797 -0.1433 -0.1233
  458loPI   GL1 7317   0.663   4.914  10.162  0.0883 -0.1103  0.0889
  458loPI   GL2 7318   0.340   4.910  10.172  0.0199  0.1517  0.0654
  458loPI   C1A 7319   0.809   5.031   9.769  0.2642  0.1005 -0.0969
  458loPI   C2A 7320   0.825   4.963   9.388  0.1034 -0.0183 -0.1493
  458loPI   C3A 7321   0.817   4.971   8.966  0.0104 -0.1856 -0.0839
  458loPI   C4A 7322   0.944   4.971   8.480 -0.4639  0.2291  0.1721
  458loPI   C5A 7323   0.890   4.862   8.120  0.0080  0.0292 -0.0512
  458loPI   C6A 7324   0.483   4.923   7.777 -0.2137 -0.3243  0.0141
  458loPI   C1B 7325   0.286   4.925   9.769 -0.1399 -0.0241  0.0878
  458loPI   C2B 7326   0.344   4.849   9.380 -0.1205  0.3051 -0.0026
  458loPI   C3B 7327   0.369   4.814   8.937  0.0300 -0.2667 -0.1367
  458loPI   C4B 7328   0.442   4.849   8.588 -0.2169 -0.2897  0.0401
  459loPI    C1 7329  12.863  16.070  10.876  0.0915 -0.1855  0.1785
  459loPI    C2 7330  12.562  16.191  11.110 -0.0729  0.0889 -0.1658
  459loPI    C3 7331  12.907  16.073  11.273 -0.2183  0.1776  0.2157
  459loPI   PO4 7332  12.872  16.296  10.657  0.2618  0.0258 -0.0757
  459loPI   GL1 7333  12.566  16.525  10.246 -0.1435  0.0402  0.0494
  459loPI   GL2 7334  12.832  16.737  10.345  0.0996  0.1242 -0.0337
  459loPI   C1A 7335  12.611  16.577   9.805  0.1396  0.0893 -0.3868
  459loPI   C2A 7336  12.581  16.440   9.422  0.5252  0.0161  0.0991
  459loPI   C3A 7337  12.742  16.418   8.975  0.1445  0.0577  0.1012
  459loPI   C4A 7338  12.815  16.414   8.517 -0.2157  0.1944 -0.1757
  459loPI   C5A 7339  12.855  16.157   8.259  0.1157 -0.0231  0.4959
  459loPI   C6A 7340  12.857  15.752   8.267  0.0685 -0.1317 -0.2464
  459loPI   C1B 7341  13.056  16.770   9.928  0.0572 -0.1704  0.3505
  459loPI   C2B 7342  13.229  16.745   9.561 -0.1077  0.0268  0.0609
  459loPI   C3B 7343  13.170  16.719   9.086  0.0462 -0.0480 -0.0307
  459loPI   C4B 7344  13.212  16.643   8.730  0.0720  0.4464 -0.0875
  460loPI    C1 7345   2.488  10.853  10.821  0.1769  0.1042 -0.1702
  460loPI    C2 7346   2.421  10.468  10.908 -0.0963  0.1853 -0.0105
  460loPI    C3 7347   2.605  10.704  11.174  0.0703  0.1673 -0.1081
  460loPI   PO4 7348   2.353  10.898  10.560 -0.3883  0.0092  0.0937
  460loPI   GL1 7349   2.094  10.943  10.084  0.2228 -0.0198  0.0840
  460loPI   GL2 7350   2.146  10.673  10.121  0.0380 -0.0313  0.0569
  460loPI   C1A 7351   2.167  10.922   9.631  0.1756  0.1027 -0.0341
  460loPI   C2A 7352   2.242  10.907   9.201 -0.1604 -0.4256  0.2887
  460loPI   C3A 7353   2.204  10.989   8.748 -0.4448 -0.0937  0.0451
  460loPI   C4A 7354   2.190  11.003   8.204 -0.1551 -0.3150  0.2982
  460loPI   C5A 7355   2.275  10.765   7.811 -0.1859  0.1592 -0.2026
  460loPI   C6A 7356   2.364  10.495   7.470 -0.3870 -0.2086 -0.1146
  460loPI   C1B 7357   2.145  10.416   9.774 -0.1307  0.0478  0.0941
  460loPI   C2B 7358   2.137  10.341   9.323  0.4475 -0.2338 -0.2630
  460loPI   C3B 7359   2.075  10.422   8.854  0.1918 -0.3667  0.0855
  460loPI   C4B 7360   2.193  10.468   8.460  0.1053 -0.1451  0.1446
  461loPI    C1 7361  16.574   2.251  10.806  0.1431  0.0905 -0.1342
  461loPI    C2 7362  16.880   2.001  10.872 -0.0444 -0.1241 -0.0633
  461loPI    C3 7363  16.523   1.927  11.036 -0.2168 -0.0440 -0.3951
  461loPI   PO4 7364  16.557   2.284  10.501  0.2047 -0.1097 -0.0989
  461loPI   GL1 7365  16.580   2.205  10.144  0.0108 -0.1327  0.0176
  461loPI   GL2 7366  16.756   2.118   9.869 -0.1726 -0.3006  0.0865
  461loPI   C1A 7367  16.329   2.098   9.681 -0.1098 -0.1841 -0.1810
  461loPI   C2A 7368  16.514   2.029   9.384 -0.1709  0.0180 -0.2801
  461loPI   C3A 7369  16.558   1.931   8.945 -0.0495 -0.0177 -0.0226
  461loPI   C4A 7370  16.490   1.771   8.628  0.0721 -0.2341 -0.1985
  461loPI   C5A 7371  16.507   1.732   8.193 -0.0739  0.0366 -0.1859
  461loPI   C6A 7372  16.461   2.036   7.916  0.1219 -0.0296 -0.3735
  461loPI   C1B 7373  16.958   2.199   9.489  0.0172  0.0055  0.2567
  461loPI   C2B 7374  17.091   2.188   9.091 -0.1956 -0.0026 -0.3169
  461loPI   C3B 7375  17.020   2.050   8.711  0.1556  0.0657  0.3170
  461loPI   C4B 7376  16.963   2.047   8.308  0.0355 -0.0791 -0.0381
  462loPI    C1 7377   3.571   3.038  11.117  0.0960 -0.1361  0.1444
  462loPI    C2 7378   3.682   3.388  11.275 -0.2684  0.0316  0.0407
  462loPI    C3 7379   3.625   3.071  11.512  0.1293  0.0193  0.1274
  462loPI   PO4 7380   3.411   3.174  10.856 -0.1063 -0.3537  0.1052
  462loPI   GL1 7381   3.143   3.090  10.534  0.1297  0.0500  0.2289
  462loPI   GL2 7382   3.367   2.784  10.467 -0.0806  0.1848 -0.0201
  462loPI   C1A 7383   3.234   3.192  10.264 -0.1327  0.1511  0.1405
  462loPI   C2A 7384   3.249   3.253   9.797  0.1649 -0.1645 -0.2567
  462loPI   C3A 7385   3.317   3.141   9.480 -0.0616  0.2365  0.0182
  462loPI   C4A 7386   3.242   3.083   8.963 -0.2420 -0.2086 -0.0595
  462loPI   C5A 7387   3.368   2.832   8.548  0.5500 -0.2623 -0.0196
  462loPI   C6A 7388   3.549   2.512   8.309  0.3666  0.4365 -0.1772
  462loPI   C1B 7389   3.184   2.748  10.139 -0.0647  0.0253 -0.1268
  462loPI   C2B 7390   3.108   2.727   9.670 -0.0745  0.0961 -0.2389
  462loPI   C3B 7391   3.148   2.678   9.376 -0.0834 -0.0074 -0.0457
  462loPI   C4B 7392   3.179   2.517   9.051 -0.0973  0.1039  0.3456
  463loPI    C1 7393  16.997   5.680  10.280 -0.1946 -0.1123 -0.0829
  463loPI    C2 7394  16.641   5.616  10.452 -0.1477  0.0038  0.0607
  463loPI    C3 7395  16.970   5.448  10.605 -0.1230 -0.0004  0.0035
  463loPI   PO4 7396  16.975   5.631  10.083  0.0218  0.0217  0.0902
  463loPI   GL1 7397  17.201   5.695   9.841  0.3315  0.0712  0.1615
  463loPI   GL2 7398  17.334   5.912   9.673  0.0163 -0.0423 -0.3607
  463loPI   C1A 7399  17.473   5.419   9.609  0.1811  0.1556  0.1691
  463loPI   C2A 7400  17.548   5.398   9.166 -0.0810  0.0850 -0.1303
  463loPI   C3A 7401  17.647   5.339   8.708  0.0407 -0.1731  0.1783
  463loPI   C4A 7402  17.586   5.216   8.242 -0.2867  0.2215 -0.0174
  463loPI   C5A 7403  17.671   5.136   7.829 -0.2433  0.1123  0.4887
  463loPI   C6A 7404  17.767   5.455   7.532 -0.3634 -0.0441 -0.0041
  463loPI   C1B 7405  17.564   5.836   9.395  0.0677  0.1619 -0.1051
  463loPI   C2B 7406  17.689   5.869   9.101 -0.2227  0.1645  0.2955
  463loPI   C3B 7407  17.607   5.835   8.731 -0.2997 -0.0002 -0.1779
  463loPI   C4B 7408  17.650   5.789   8.327  0.1873  0.2269 -0.1297
  464loPI    C1 7409   7.863   2.081  11.127  0.0950  0.0978 -0.0096
  464loPI    C2 7410   7.606   1.936  11.397 -0.0557  0.1828 -0.1056
  464loPI    C3 7411   7.623   2.330  11.329  0.1634  0.1865 -0.0367
  464loPI   PO4 7412   7.825   1.997  10.941 -0.1638 -0.2178 -0.1705
  464loPI   GL1 7413   7.725   2.156  10.582  0.0351 -0.0515  0.4261
  464loPI   GL2 7414   7.520   1.919  10.513 -0.0251 -0.1773  0.1776
  464loPI   C1A 7415   7.687   2.150  10.024  0.1204  0.4520 -0.1150
  464loPI   C2A 7416   7.631   2.087   9.693 -0.3278  0.2158  0.2561
  464loPI   C3A 7417   7.721   1.972   9.301 -0.1146  0.2328 -0.1038
  464loPI   C4A 7418   7.802   1.907   8.954  0.0335  0.0009  0.1842
  464loPI   C5A 7419   7.601   2.006   8.511  0.1376 -0.0470  0.1109
  464loPI   C6A 7420   7.693   2.038   8.101 -0.0631  0.1369  0.0142
  464loPI   C1B 7421   7.899   1.787  10.197 -0.1755 -0.3025  0.0517
  464loPI   C2B 7422   8.091   1.650   9.831  0.0907  0.0080 -0.1512
  464loPI   C3B 7423   8.060   1.583   9.413 -0.2158  0.0654  0.0858
  464loPI   C4B 7424   8.111   1.567   8.907  0.2818 -0.0892  0.0218
  465loPI    C1 7425  10.390  13.196  10.881 -0.1816  0.0851  0.2296
  465loPI    C2 7426  10.244  12.823  10.893  0.0648 -0.0248 -0.0486
  465loPI    C3 7427  10.362  13.003  11.231  0.1731 -0.2919  0.0585
  465loPI   PO4 7428  10.540  13.206  10.619  0.3918 -0.0455 -0.0299
  465loPI   GL1 7429  10.489  13.297  10.257 -0.0388 -0.2886 -0.1577
  465loPI   GL2 7430  10.799  13.592  10.269  0.0271  0.1809 -0.0707
  465loPI   C1A 7431  10.626  13.117   9.841 -0.1824  0.1239  0.1940
  465loPI   C2A 7432  10.463  13.075   9.513 -0.0333  0.0954  0.2438
  465loPI   C3A 7433  10.411  13.143   9.054  0.1887 -0.0815  0.0608
  465loPI   C4A 7434  10.594  13.261   8.672  0.1301  0.0531 -0.0148
  465loPI   C5A 7435  10.347  13.587   8.336  0.0734 -0.1454 -0.1385
  465loPI   C6A 7436  10.685  13.851   8.052 -0.0501 -0.1538  0.4804
  465loPI   C1B 7437  10.465  13.607   9.895  0.0525  0.2586 -0.0636
  465loPI   C2B 7438  10.471  13.623   9.470  0.2008 -0.1716  0.3761
  465loPI   C3B 7439  10.408  13.700   9.001 -0.0295  0.1346 -0.1959
  465loPI   C4B 7440  10.745  13.782   8.567  0.0374 -0.1737 -0.1324
  466loPI    C1 7441  10.755  15.483  11.189  0.0499  0.0129  0.0921
  466loPI    C2 7442  10.850  15.186  10.939  0.3835  0.1578  0.0405
  466loPI    C3 7443  10.685  15.104  11.294 -0.0092 -0.0549 -0.1843
  466loPI   PO4 7444  10.706  15.667  11.045  0.2629  0.0321 -0.3534
  466loPI   GL1 7445  10.727  15.587  10.632 -0.0455  0.0763  0.3651
  466loPI   GL2 7446  11.028  15.448  10.551  0.1013  0.4245  0.0132
  466loPI   C1A 7447  10.627  15.506  10.178 -0.1122  0.1029  0.1247
  466loPI   C2A 7448  10.790  15.662   9.807 -0.0807  0.1462 -0.0754
  466loPI   C3A 7449  10.720  15.725   9.428 -0.1884  0.0445  0.0420
  466loPI   C4A 7450  10.741  15.708   8.932  0.0331  0.0603  0.0317
  466loPI   C5A 7451  10.840  15.689   8.507 -0.3259 -0.3493  0.2246
  466loPI   C6A 7452  10.839  15.639   8.031  0.0415 -0.0214 -0.4031
  466loPI   C1B 7453  11.098  15.346  10.132 -0.1269 -0.2281  0.0626
  466loPI   C2B 7454  11.126  15.309   9.720 -0.0849 -0.2432  0.1988
  466loPI   C3B 7455  11.093  15.336   9.238 -0.2953  0.4090 -0.3655
  466loPI   C4B 7456  11.083  15.380   8.815 -0.0392  0.1299 -0.0712
  467loPI    C1 7457   1.014  17.210  11.086 -0.1138  0.0531  0.0014
  467loPI    C2 7458   1.205  16.963  11.335 -0.0631  0.0243 -0.0657
  467loPI    C3 7459   0.863  17.136  11.449  0.0083  0.0854  0.0593
  467loPI   PO4 7460   1.034  17.105  10.902  0.2465  0.1828  0.0570
  467loPI   GL1 7461   0.955  16.973  10.487 -0.2111 -0.0664  0.1491
  467loPI   GL2 7462   1.106  16.742  10.312  0.1252 -0.2065 -0.0588
  467loPI   C1A 7463   0.759  17.143  10.043  0.1641 -0.2907  0.1612
  467loPI   C2A 7464   0.853  17.069   9.518 -0.1239  0.0664 -0.0975
  467loPI   C3A 7465   0.811  16.879   9.097 -0.0606 -0.0667 -0.1278
  467loPI   C4A 7466   0.962  16.967   8.700  0.0727  0.5667 -0.1742
  467loPI   C5A 7467   0.953  17.000   8.281  0.0244  0.4570  0.0064
  467loPI   C6A 7468   0.712  16.790   7.922  0.0041  0.0279 -0.1455
  467loPI   C1B 7469   1.232  16.785   9.879 -0.4410 -0.0009 -0.0942
  467loPI   C2B 7470   1.347  16.783   9.399  0.0551  0.1937  0.0790
  467loPI   C3B 7471   1.278  16.736   8.955  0.0628  0.0776  0.1257
  467loPI   C4B 7472   1.338  16.742   8.504 -0.0362 -0.0643  0.0111
  468loPI    C1 7473   1.320  16.746  10.924  0.2089 -0.0166  0.4370
  468loPI    C2 7474   0.980  16.585  10.789  0.4268 -0.1282  0.0018
  468loPI    C3 7475   1.156  16.436  11.116  0.0584 -0.0634  0.2361
  468loPI   PO4 7476   1.428  16.752  10.838 -0.0799  0.1740  0.2510
  468loPI   GL1 7477   1.560  16.884  10.481 -0.1027  0.0111  0.1892
  468loPI   GL2 7478   1.432  17.194  10.522 -0.2792 -0.0261  0.2069
  468loPI   C1A 7479   1.756  17.055  10.063 -0.0215 -0.0500 -0.0143
  468loPI   C2A 7480   1.833  17.020   9.604  0.1119  0.3180  0.0716
  468loPI   C3A 7481   1.768  16.952   9.101  0.0412  0.2523  0.2080
  468loPI   C4A 7482   1.920  16.928   8.619 -0.1520  0.2717  0.2811
  468loPI   C5A 7483   2.008  16.968   8.174  0.0564  0.1546  0.2057
  468loPI   C6A 7484   2.094  17.162   7.837 -0.0971 -0.2515 -0.0562
  468loPI   C1B 7485   1.241  17.230  10.124 -0.1212 -0.3144  0.3304
  468loPI   C2B 7486   1.312  17.259   9.654  0.1247 -0.2217 -0.1159
  468loPI   C3B 7487   1.256  17.206   9.119 -0.2196 -0.2097  0.3027
  468loPI   C4B 7488   1.475  17.189   8.714  0.0145 -0.2961  0.1562
  469loPI    C1 7489   5.975  13.508  10.943  0.0503  0.0699 -0.1604
  469loPI    C2 7490   6.370  13.443  10.939 -0.0057 -0.2833 -0.2848
  469loPI    C3 7491   6.161  13.384  11.275  0.0442 -0.1071 -0.2220
  469loPI   PO4 7492   5.915  13.358  10.708  0.0404 -0.2241 -0.0279
  469loPI   GL1 7493   5.777  13.105  10.395  0.1949  0.0278  0.0582
  469loPI   GL2 7494   5.553  12.920  10.497 -0.1347  0.0075 -0.0425
  469loPI   C1A 7495   5.693  13.187   9.972 -0.0618 -0.0113 -0.1808
  469loPI   C2A 7496   5.690  13.252   9.600 -0.1535  0.1118  0.1019
  469loPI   C3A 7497   5.830  13.195   9.197 -0.1200 -0.0372 -0.1783
  469loPI   C4A 7498   5.755  13.268   8.767  0.0104  0.0166 -0.3071
  469loPI   C5A 7499   5.911  13.173   8.375  0.1429 -0.2177 -0.1175
  469loPI   C6A 7500   5.894  13.581   8.095 -0.0696  0.0022  0.0955
  469loPI   C1B 7501   5.223  13.049  10.153  0.0585  0.2057 -0.0826
  469loPI   C2B 7502   5.200  13.014   9.692 -0.2187  0.4224 -0.0297
  469loPI   C3B 7503   5.333  13.047   9.289 -0.0794  0.2088 -0.1014
  469loPI   C4B 7504   5.276  13.001   8.737  0.0485 -0.1492 -0.1671
  470loPI    C1 7505  15.513  16.461  11.218  0.0168 -0.1531  0.1772
  470loPI    C2 7506  15.606  16.544  11.598  0.2971  0.0383  0.0706
  470loPI    C3 7507  15.887  16.407  11.349  0.1264 -0.0390 -0.0817
  470loPI   PO4 7508  15.378  16.711  11.138 -0.3408  0.2857  0.0854
  470loPI   GL1 7509  15.208  16.746  10.774  0.0173 -0.2309 -0.1881
  470loPI   GL2 7510  15.429  16.524  10.645  0.1043  0.0330 -0.0273
  470loPI   C1A 7511  15.011  16.869  10.324 -0.0252  0.1520  0.1762
  470loPI   C2A 7512  14.907  16.962   9.862  0.1367 -0.3720 -0.0547
  470loPI   C3A 7513  15.024  16.922   9.507  0.0825  0.1139  0.1767
  470loPI   C4A 7514  15.044  16.869   9.123  0.1385  0.0720 -0.3549
  470loPI   C5A 7515  14.997  16.827   8.587 -0.2447  0.0057  0.1260
  470loPI   C6A 7516  14.767  16.678   8.245 -0.0414  0.0003  0.0904
  470loPI   C1B 7517  15.381  16.597  10.133 -0.0543  0.0893  0.0494
  470loPI   C2B 7518  15.385  16.559   9.680 -0.3098 -0.1783  0.0308
  470loPI   C3B 7519  15.471  16.583   9.311 -0.3873  0.2906 -0.0587
  470loPI   C4B 7520  15.429  16.495   8.928  0.1224 -0.3844  0.1193
  471loPI    C1 7521  15.421   4.343   9.888 -0.0360  0.1321 -0.1184
  471loPI    C2 7522  15.733   4.496  10.085 -0.0200  0.1186 -0.1334
  471loPI    C3 7523  15.361   4.563  10.216 -0.0146  0.1946 -0.1564
  471loPI   PO4 7524  15.585   4.348   9.570 -0.1210 -0.1024  0.0118
  471loPI   GL1 7525  15.823   4.368   9.240 -0.1964 -0.0874 -0.0990
  471loPI   GL2 7526  15.901   4.604   9.024  0.0039 -0.0251  0.4443
  471loPI   C1A 7527  15.914   4.134   8.892 -0.0380 -0.1510  0.0406
  471loPI   C2A 7528  15.855   4.163   8.448 -0.2767  0.1662  0.0609
  471loPI   C3A 7529  15.549   4.225   8.117 -0.0079  0.4707 -0.1009
  471loPI   C4A 7530  15.487   4.252   7.680 -0.2500  0.2373 -0.0358
  471loPI   C5A 7531  15.325   4.281   7.287 -0.0480  0.2632  0.2444
  471loPI   C6A 7532  14.977   4.452   7.181 -0.1714 -0.0630 -0.1374
  471loPI   C1B 7533  16.016   4.690   8.659  0.1608  0.1446 -0.2374
  471loPI   C2B 7534  16.056   4.642   8.230  0.0541  0.2585  0.1019
  471loPI   C3B 7535  16.002   4.518   7.764  0.1658  0.3211 -0.0231
  471loPI   C4B 7536  16.144   4.732   7.359  0.2467  0.0791 -0.0049
  472loPI    C1 7537  15.731  10.727  10.256 -0.0635 -0.1326 -0.0144
  472loPI    C2 7538  15.916  10.528  10.549  0.0076  0.1150  0.1119
  472loPI    C3 7539  15.763  10.890  10.620 -0.2763  0.0330 -0.0681
  472loPI   PO4 7540  15.906  10.684  10.065 -0.0748  0.3481 -0.0040
  472loPI   GL1 7541  16.021  10.921   9.699  0.0391 -0.0210 -0.3536
  472loPI   GL2 7542  15.939  10.784   9.420  0.0360 -0.0568  0.0322
  472loPI   C1A 7543  16.041  11.251   9.491 -0.4591 -0.2119  0.0125
  472loPI   C2A 7544  16.095  11.497   9.093 -0.2108  0.3910 -0.3401
  472loPI   C3A 7545  16.070  11.517   8.669  0.3314 -0.1509 -0.1768
  472loPI   C4A 7546  16.160  11.434   8.284  0.1986  0.1660  0.0745
  472loPI   C5A 7547  16.035  11.440   7.832  0.1790  0.0830  0.0494
  472loPI   C6A 7548  15.952  11.332   7.488  0.1177  0.3737 -0.3252
  472loPI   C1B 7549  16.015  10.998   8.969 -0.2010  0.2051  0.0919
  472loPI   C2B 7550  16.078  10.958   8.528  0.0615  0.1111 -0.0367
  472loPI   C3B 7551  15.963  10.975   8.170  0.0825  0.0673  0.0614
  472loPI   C4B 7552  15.886  10.893   7.768 -0.0588  0.0546 -0.0887
  473loPI    C1 7553  17.063  13.411  10.439 -0.2592 -0.0209  0.1116
  473loPI    C2 7554  17.046  13.773  10.608 -0.2054 -0.0574  0.1963
  473loPI    C3 7555  17.257  13.482  10.782  0.1100 -0.0096 -0.0941
  473loPI   PO4 7556  17.087  13.503  10.154  0.1558 -0.0568 -0.2673
  473loPI   GL1 7557  17.100  13.712   9.791  0.2225  0.0837 -0.1286
  473loPI   GL2 7558  16.743  13.644   9.772  0.1256 -0.0677 -0.0904
  473loPI   C1A 7559  17.291  13.925   9.526  0.0788  0.1037 -0.1589
  473loPI   C2A 7560  17.307  13.936   9.074  0.1941 -0.1325 -0.3122
  473loPI   C3A 7561  17.254  13.962   8.654  0.0869 -0.0574 -0.0773
  473loPI   C4A 7562  17.409  14.085   8.203  0.1204  0.1785 -0.3592
  473loPI   C5A 7563  17.801  14.101   8.045 -0.0167 -0.0890 -0.4010
  473loPI   C6A 7564  18.270  14.087   8.076  0.0329  0.0175 -0.0318
  473loPI   C1B 7565  16.878  13.666   9.326  0.2357 -0.1326  0.0476
  473loPI   C2B 7566  16.871  13.776   8.800  0.0238 -0.0426  0.1618
  473loPI   C3B 7567  16.959  13.668   8.388  0.1911  0.0869  0.4942
  473loPI   C4B 7568  16.932  13.674   7.975  0.1819 -0.2751  0.1649
  474loPI    C1 7569  13.585   2.216  10.576 -0.0093  0.0957  0.0524
  474loPI    C2 7570  13.427   2.079  10.917 -0.2059 -0.1172 -0.1212
  474loPI    C3 7571  13.249   2.378  10.720 -0.2305 -0.1599 -0.1643
  474loPI   PO4 7572  13.531   1.890  10.424 -0.2196  0.1810  0.1493
  474loPI   GL1 7573  13.723   1.664  10.115 -0.0498 -0.2928  0.1114
  474loPI   GL2 7574  13.423   1.664   9.954 -0.1430  0.0331 -0.0610
  474loPI   C1A 7575  13.747   1.477   9.686  0.0004  0.0559 -0.0144
  474loPI   C2A 7576  13.676   1.304   9.281  0.0524 -0.0590 -0.0880
  474loPI   C3A 7577  13.617   1.418   8.878  0.2422  0.2286 -0.0965
  474loPI   C4A 7578  13.630   1.400   8.521  0.0870  0.0392  0.1558
  474loPI   C5A 7579  13.739   1.322   8.145 -0.1800  0.0146 -0.1585
  474loPI   C6A 7580  13.447   1.096   7.912  0.0963  0.0634  0.0670
  474loPI   C1B 7581  13.252   1.779   9.589  0.0111  0.1676  0.0918
  474loPI   C2B 7582  13.299   1.656   9.177  0.2100 -0.0623  0.0290
  474loPI   C3B 7583  13.132   1.653   8.744  0.3485 -0.1701 -0.2489
  474loPI   C4B 7584  13.003   1.507   8.363  0.0018  0.2062  0.0897
  475loPI    C1 7585   5.162  12.859  11.169 -0.1446  0.3405  0.0362
  475loPI    C2 7586   4.875  12.610  11.297  0.1898 -0.0378  0.0694
  475loPI    C3 7587   4.882  12.989  11.423 -0.1729 -0.0814  0.2308
  475loPI   PO4 7588   5.186  12.890  10.874 -0.1213 -0.0009 -0.0995
  475loPI   GL1 7589   4.936  12.928  10.557  0.1671 -0.0001 -0.1409
  475loPI   GL2 7590   4.892  13.286  10.520  0.0287 -0.3046 -0.2723
  475loPI   C1A 7591   4.746  12.814  10.220  0.2272 -0.5238 -0.0901
  475loPI   C2A 7592   4.686  12.973   9.821  0.0541 -0.2385 -0.0940
  475loPI   C3A 7593   4.724  12.845   9.434 -0.0433 -0.1721 -0.1674
  475loPI   C4A 7594   4.828  12.813   8.961 -0.2839 -0.2965 -0.1708
  475loPI   C5A 7595   4.834  12.808   8.535  0.1592  0.1542 -0.1271
  475loPI   C6A 7596   5.033  12.611   8.224 -0.1725 -0.0412 -0.0483
  475loPI   C1B 7597   4.842  13.410  10.072 -0.0269  0.1437  0.1360
  475loPI   C2B 7598   4.898  13.365   9.606 -0.2244 -0.1236 -0.0910
  475loPI   C3B 7599   4.793  13.289   9.246 -0.2998 -0.1396  0.1355
  475loPI   C4B 7600   4.799  13.293   8.755  0.2045  0.2398 -0.1009
  476loPI    C1 7601   3.223   2.274  10.940  0.0202 -0.1056 -0.1518
  476loPI    C2 7602   3.287   2.256  11.334 -0.0101 -0.1757 -0.1499
  476loPI    C3 7603   2.944   2.407  11.193  0.0813  0.0299 -0.1550
  476loPI   PO4 7604   3.412   2.397  10.821  0.0409 -0.1681  0.0694
  476loPI   GL1 7605   3.656   2.374  10.384  0.3015  0.2426  0.4128
  476loPI   GL2 7606   3.788   2.151  10.603 -0.0610  0.1701 -0.1166
  476loPI   C1A 7607   3.664   2.296  10.044 -0.1045 -0.1398 -0.0418
  476loPI   C2A 7608   3.614   2.249   9.662 -0.0889  0.0825 -0.1028
  476loPI   C3A 7609   3.557   2.248   9.262  0.2110  0.2324  0.0027
  476loPI   C4A 7610   3.620   2.074   8.839  0.0235  0.3750 -0.0568
  476loPI   C5A 7611   3.501   1.662   8.667  0.0224 -0.1574  0.0968
  476loPI   C6A 7612   3.793   1.433   8.602  0.1282 -0.1497 -0.1560
  476loPI   C1B 7613   4.022   1.986  10.218 -0.1692  0.2004  0.1875
  476loPI   C2B 7614   4.079   1.997   9.795  0.0790  0.0036  0.0595
  476loPI   C3B 7615   3.965   1.966   9.384  0.0320 -0.2010  0.3071
  476loPI   C4B 7616   4.028   1.897   9.001  0.0766 -0.3390 -0.0560
  477loPI    C1 7617   0.771   7.294  10.906  0.0762 -0.0429 -0.2103
  477loPI    C2 7618   0.814   7.529  11.226  0.1830 -0.0902 -0.1894
  477loPI    C3 7619   0.580   7.206  11.246 -0.0984  0.1047 -0.2686
  477loPI   PO4 7620   0.735   7.492  10.700  0.0636 -0.1787  0.3691
  477loPI   GL1 7621   0.833   7.520  10.292 -0.3099  0.2668  0.0297
  477loPI   GL2 7622   1.130   7.600  10.132 -0.1033  0.0575  0.1810
  477loPI   C1A 7623   0.666   7.510   9.894  0.1450 -0.4725  0.0568
  477loPI   C2A 7624   0.679   7.444   9.560 -0.3353  0.2763 -0.4743
  477loPI   C3A 7625   0.767   7.417   9.068  0.3026  0.1848 -0.0404
  477loPI   C4A 7626   0.816   7.391   8.638 -0.0090 -0.2039 -0.2170
  477loPI   C5A 7627   0.662   7.377   8.220  0.0606  0.1695  0.1261
  477loPI   C6A 7628   0.771   7.558   7.737 -0.0682 -0.3917 -0.0957
  477loPI   C1B 7629   1.169   7.613   9.735 -0.0922  0.3319  0.3661
  477loPI   C2B 7630   1.300   7.570   9.322 -0.2508  0.1032  0.3319
  477loPI   C3B 7631   1.287   7.528   8.832  0.2421 -0.0955 -0.1399
  477loPI   C4B 7632   1.286   7.584   8.490 -0.1457 -0.0979 -0.1604
  478loPI    C1 7633  10.860   4.551  10.308  0.0368  0.2132  0.0462
  478loPI    C2 7634  10.751   4.449  10.679 -0.1023 -0.2067 -0.1041
  478loPI    C3 7635  11.124   4.574  10.608 -0.0474 -0.2124  0.1607
  478loPI   PO4 7636  10.777   4.327  10.144 -0.1982 -0.0270  0.2419
  478loPI   GL1 7637  10.654   4.160   9.846  0.3366  0.1484  0.2310
  478loPI   GL2 7638  10.347   4.148   9.899  0.1041  0.2776 -0.1594
  478loPI   C1A 7639  10.665   4.271   9.320 -0.2903  0.4560 -0.1255
  478loPI   C2A 7640  10.645   4.251   8.875 -0.0980 -0.2216 -0.1773
  478loPI   C3A 7641  10.623   4.088   8.476  0.0601 -0.0994  0.3481
  478loPI   C4A 7642  10.592   3.969   8.041  0.0318  0.1223  0.0827
  478loPI   C5A 7643  10.434   3.772   7.675  0.1406  0.2622  0.1334
  478loPI   C6A 7644  10.243   3.408   7.576 -0.4052 -0.0215 -0.1146
  478loPI   C1B 7645  10.205   4.064   9.511 -0.3289 -0.1074 -0.1040
  478loPI   C2B 7646  10.248   4.006   9.112  0.0771  0.0513 -0.2569
  478loPI   C3B 7647  10.112   3.923   8.633 -0.0643 -0.0316 -0.0214
  478loPI   C4B 7648  10.158   3.810   8.224 -0.0194 -0.0793 -0.0037
  479loPI    C1 7649   5.477  13.317  11.044  0.2589 -0.0349  0.0320
  479loPI    C2 7650   5.304  13.606  11.259  0.2793  0.2364 -0.3092
  479loPI    C3 7651   5.689  13.517  11.318  0.2048  0.0949 -0.0203
  479loPI   PO4 7652   5.440  13.359  10.814 -0.1352  0.1394 -0.2801
  479loPI   GL1 7653   5.233  13.676  10.535  0.0180  0.2359  0.2447
  479loPI   GL2 7654   5.271  14.048  10.491 -0.1713 -0.2662  0.0818
  479loPI   C1A 7655   5.351  13.575  10.113  0.3773 -0.3746 -0.4406
  479loPI   C2A 7656   5.329  13.527   9.738 -0.2434  0.2297  0.1882
  479loPI   C3A 7657   5.254  13.540   9.328  0.0534 -0.0474 -0.4237
  479loPI   C4A 7658   5.275  13.482   8.937 -0.4077 -0.2023 -0.3665
  479loPI   C5A 7659   5.311  13.502   8.633 -0.0622 -0.0752 -0.2823
  479loPI   C6A 7660   5.408  13.654   8.212  0.0235 -0.0883  0.0880
  479loPI   C1B 7661   5.436  14.051  10.080 -0.0782  0.2305  0.1500
  479loPI   C2B 7662   5.406  14.015   9.627 -0.0554  0.0163 -0.2499
  479loPI   C3B 7663   5.386  14.096   9.249 -0.0218 -0.0824  0.0890
  479loPI   C4B 7664   5.392  14.023   8.853  0.2549  0.2467  0.2657
  480loPI    C1 7665   0.052  13.765  10.910 -0.2210 -0.1107  0.0147
  480loPI    C2 7666   0.278  13.607  11.200 -0.1354  0.2541  0.1529
  480loPI    C3 7667  -0.101  13.488  11.155  0.0535 -0.3133 -0.0366
  480loPI   PO4 7668   0.219  13.713  10.680  0.2519 -0.0824 -0.1395
  480loPI   GL1 7669   0.064  13.648  10.344  0.2056 -0.1342 -0.1345
  480loPI   GL2 7670   0.248  13.936  10.253  0.0715 -0.1032  0.0042
  480loPI   C1A 7671   0.167  13.439  10.023  0.1236  0.0372  0.2187
  480loPI   C2A 7672   0.177  13.413   9.565 -0.2717  0.4358 -0.3191
  480loPI   C3A 7673   0.315  13.401   9.175 -0.2965 -0.0215 -0.0081
  480loPI   C4A 7674   0.230  13.548   8.716 -0.1261  0.0986  0.2682
  480loPI   C5A 7675   0.262  13.720   8.249  0.5476  0.1133 -0.0479
  480loPI   C6A 7676   0.118  13.748   7.767 -0.3044  0.0120  0.0250
  480loPI   C1B 7677   0.367  13.908   9.850  0.0358  0.0533  0.0801
  480loPI   C2B 7678   0.322  13.923   9.498 -0.2642  0.1267  0.0249
  480loPI   C3B 7679   0.372  13.965   9.110  0.2681  0.0175  0.1981
  480loPI   C4B 7680   0.324  14.037   8.716  0.2155 -0.0844  0.1104
  481loPI    C1 7681   8.452  17.241  11.420  0.0564 -0.0875  0.0928
  481loPI    C2 7682   8.227  17.358  11.729 -0.0801  0.1594 -0.0965
  481loPI    C3 7683   8.625  17.383  11.752 -0.0839  0.0572  0.1053
  481loPI   PO4 7684   8.293  17.345  11.152  0.0903 -0.3474 -0.0135
  481loPI   GL1 7685   8.179  17.268  10.830 -0.0938 -0.0596 -0.0763
  481loPI   GL2 7686   8.385  17.642  10.662  0.1630  0.2590 -0.1335
  481loPI   C1A 7687   8.138  17.189  10.374 -0.0464 -0.0247 -0.1692
  481loPI   C2A 7688   8.121  17.156   9.925 -0.3047  0.2113  0.2205
  481loPI   C3A 7689   8.066  17.115   9.573  0.3144 -0.3071 -0.0405
  481loPI   C4A 7690   8.138  17.151   9.180 -0.1446  0.0207  0.3321
  481loPI   C5A 7691   8.267  16.953   8.814  0.0104 -0.1757  0.2167
  481loPI   C6A 7692   8.323  16.618   8.509  0.0126  0.1188 -0.2889
  481loPI   C1B 7693   8.541  17.946  10.449  0.1891  0.2566 -0.0004
  481loPI   C2B 7694   8.582  17.904   9.947 -0.3369 -0.3084 -0.0232
  481loPI   C3B 7695   8.754  17.712   9.528 -0.2888  0.0036 -0.1171
  481loPI   C4B 7696   8.773  17.838   9.063  0.1183 -0.1854 -0.1299
  482loPI    C1 7697   6.731  13.550  10.598 -0.0130 -0.1932  0.3050
  482loPI    C2 7698   6.985  13.819  10.750 -0.0125  0.0365 -0.0880
  482loPI    C3 7699   6.590  13.884  10.769 -0.0094  0.1073 -0.2554
  482loPI   PO4 7700   6.890  13.380  10.532  0.0907  0.2345 -0.0489
  482loPI   GL1 7701   7.148  13.333  10.053 -0.3386 -0.1238 -0.2127
  482loPI   GL2 7702   6.755  13.554  10.033  0.2359  0.2993 -0.2507
  482loPI   C1A 7703   7.079  13.086   9.784  0.1807 -0.0866 -0.2494
  482loPI   C2A 7704   7.283  13.189   9.433  0.1047 -0.0678  0.0552
  482loPI   C3A 7705   7.203  13.260   8.991  0.0629 -0.1464 -0.3113
  482loPI   C4A 7706   7.086  13.314   8.593  0.0672 -0.0895  0.1641
  482loPI   C5A 7707   7.158  13.367   8.122  0.1803  0.0339 -0.2887
  482loPI   C6A 7708   7.067  13.169   7.674  0.0324  0.0167 -0.2041
  482loPI   C1B 7709   6.641  13.599   9.588 -0.2869 -0.3278  0.0691
  482loPI   C2B 7710   6.717  13.649   9.202  0.1486  0.0835  0.1463
  482loPI   C3B 7711   6.685  13.634   8.725 -0.1428 -0.3991  0.2885
  482loPI   C4B 7712   6.712  13.672   8.307 -0.0451 -0.2483 -0.0377
  483loPI    C1 7713  14.714   3.201  10.280 -0.0217 -0.0902  0.0636
  483loPI    C2 7714  14.389   3.049  10.457 -0.0035 -0.2664 -0.0517
  483loPI    C3 7715  14.736   3.062  10.655 -0.0355 -0.2550  0.0041
  483loPI   PO4 7716  14.759   3.050  10.072 -0.1484  0.0773  0.2082
  483loPI   GL1 7717  14.776   2.815   9.701 -0.0205 -0.1261  0.1517
  483loPI   GL2 7718  14.652   3.106   9.534  0.1356 -0.1011 -0.2163
  483loPI   C1A 7719  14.760   2.686   9.288  0.4208 -0.1417 -0.0827
  483loPI   C2A 7720  14.862   2.806   8.893  0.0897  0.2512 -0.0425
  483loPI   C3A 7721  14.831   2.987   8.572 -0.0458  0.4049 -0.2600
  483loPI   C4A 7722  14.656   2.951   8.136  0.0038 -0.1640 -0.0250
  483loPI   C5A 7723  14.796   2.946   7.715  0.0147 -0.2435  0.2658
  483loPI   C6A 7724  14.959   3.252   7.446  0.0569  0.0566  0.0599
  483loPI   C1B 7725  14.392   3.121   9.086 -0.1750 -0.0081 -0.0973
  483loPI   C2B 7726  14.266   3.173   8.660 -0.0938  0.1241  0.0349
  483loPI   C3B 7727  14.176   3.109   8.205 -0.0064 -0.1991  0.3869
  483loPI   C4B 7728  14.136   2.692   8.037 -0.0187 -0.3123 -0.2734
  484loPI    C1 7729   1.861  14.138  10.960  0.0427  0.0673 -0.0621
  484loPI    C2 7730   1.878  14.105  11.358 -0.0509 -0.0404 -0.0664
  484loPI    C3 7731   1.640  14.379  11.190  0.0728  0.0802 -0.0467
  484loPI   PO4 7732   2.115  14.085  10.887 -0.2048  0.2549  0.1216
  484loPI   GL1 7733   2.298  14.365  10.626  0.1248 -0.0307  0.1959
  484loPI   GL2 7734   2.463  14.103  10.500  0.1055 -0.2658 -0.0075
  484loPI   C1A 7735   2.115  14.188  10.172 -0.1180 -0.2030 -0.1249
  484loPI   C2A 7736   1.746  14.026   9.906  0.2156 -0.1998  0.0810
  484loPI   C3A 7737   1.804  14.102   9.497 -0.1263  0.0553 -0.0607
  484loPI   C4A 7738   1.830  14.031   9.083  0.1585  0.1333  0.2212
  484loPI   C5A 7739   1.687  14.026   8.664  0.1876  0.2316 -0.2368
  484loPI   C6A 7740   1.542  14.119   8.345 -0.0184 -0.1464 -0.1886
  484loPI   C1B 7741   2.632  14.065  10.110  0.3012  0.2521  0.0130
  484loPI   C2B 7742   2.758  13.987   9.681 -0.1982 -0.0913  0.1056
  484loPI   C3B 7743   2.731  13.991   9.179 -0.1274 -0.1019 -0.0893
  484loPI   C4B 7744   2.642  13.978   8.726  0.4279 -0.0149  0.0446
  485loPI    C1 7745   1.158  14.167  10.714  0.0402  0.0600  0.0633
  485loPI    C2 7746   0.912  14.442  10.559  0.0114 -0.1201 -0.2177
  485loPI    C3 7747   0.831  14.278  10.915 -0.0874  0.0751 -0.1491
  485loPI   PO4 7748   1.298  14.164  10.582  0.1557 -0.0614  0.2815
  485loPI   GL1 7749   1.311  14.051  10.152 -0.2293 -0.2521  0.4169
  485loPI   GL2 7750   1.304  14.296  10.134 -0.2570 -0.0689 -0.0578
  485loPI   C1A 7751   1.245  13.791   9.792  0.0507 -0.3343 -0.0637
  485loPI   C2A 7752   1.304  13.879   9.418  0.0480  0.0478  0.2021
  485loPI   C3A 7753   1.323  13.850   9.010 -0.4878 -0.0223  0.1482
  485loPI   C4A 7754   1.136  13.852   8.577  0.0412 -0.2676 -0.0357
  485loPI   C5A 7755   0.839  14.074   8.206  0.2854  0.1333  0.1815
  485loPI   C6A 7756   0.427  14.196   8.239  0.2636  0.2842  0.0449
  485loPI   C1B 7757   1.455  14.405   9.653 -0.1541 -0.2229  0.0332
  485loPI   C2B 7758   1.473  14.373   9.176 -0.2462 -0.1604 -0.1846
  485loPI   C3B 7759   1.285  14.362   8.779  0.1169 -0.1280  0.0014
  485loPI   C4B 7760   1.120  14.519   8.375 -0.0364  0.1372  0.0793
  486loPI    C1 7761  13.813   3.117  10.443  0.2125  0.1934 -0.0159
  486loPI    C2 7762  13.924   2.889  10.752  0.2234  0.0222 -0.1446
  486loPI    C3 7763  13.916   3.287  10.790  0.1231 -0.0020  0.1080
  486loPI   PO4 7764  13.971   3.088  10.209  0.0131 -0.0558 -0.4890
  486loPI   GL1 7765  13.877   3.097   9.767 -0.0329  0.0527  0.0330
  486loPI   GL2 7766  13.636   2.891   9.612 -0.1044  0.1314  0.0862
  486loPI   C1A 7767  13.930   3.146   9.274  0.0490  0.3284  0.0448
  486loPI   C2A 7768  13.780   2.974   8.796 -0.3051 -0.1419  0.2582
  486loPI   C3A 7769  13.771   2.862   8.362 -0.1779  0.1983 -0.0445
  486loPI   C4A 7770  13.601   2.738   8.008  0.0027  0.0360  0.2951
  486loPI   C5A 7771  13.850   2.703   7.610 -0.0194  0.1401 -0.1359
  486loPI   C6A 7772  13.881   2.661   7.212  0.3214 -0.0776  0.0220
  486loPI   C1B 7773  13.469   2.783   9.146  0.0143 -0.3650 -0.2546
  486loPI   C2B 7774  13.365   2.719   8.713 -0.1684  0.3447 -0.1104
  486loPI   C3B 7775  13.188   2.597   8.245  0.0191 -0.3044  0.3340
  486loPI   C4B 7776  13.141   2.782   7.854 -0.0163  0.3635  0.0806
  487loPI    C1 7777   4.114   2.400  11.024 -0.2422 -0.0230  0.2569
  487loPI    C2 7778   4.411   2.184  11.182 -0.0851  0.0802  0.1081
  487loPI    C3 7779   4.037   2.141  11.318 -0.0542 -0.2709  0.0922
  487loPI   PO4 7780   4.178   2.426  10.789 -0.2190  0.1685  0.0408
  487loPI   GL1 7781   4.160   2.677  10.480  0.2474  0.1340  0.0315
  487loPI   GL2 7782   4.431   2.664  10.407 -0.2422 -0.3448  0.0836
  487loPI   C1A 7783   4.108   2.573  10.041 -0.1220 -0.1164  0.3593
  487loPI   C2A 7784   4.054   2.461   9.636 -0.1181 -0.0867 -0.0087
  487loPI   C3A 7785   4.056   2.382   9.132 -0.0281 -0.0196 -0.1336
  487loPI   C4A 7786   4.019   2.375   8.698  0.1054 -0.0408 -0.0922
  487loPI   C5A 7787   4.408   2.293   8.387  0.0449  0.1786 -0.0014
  487loPI   C6A 7788   4.626   1.964   8.277 -0.0332  0.0286 -0.1590
  487loPI   C1B 7789   4.614   2.711  10.141  0.0926 -0.2954 -0.0899
  487loPI   C2B 7790   4.531   2.570   9.683  0.0278  0.0483 -0.1163
  487loPI   C3B 7791   4.594   2.626   9.217  0.0868  0.1215  0.1828
  487loPI   C4B 7792   4.457   2.626   8.737  0.1624  0.1429 -0.1736
  488loPI    C1 7793  10.724  17.418  11.056  0.1987  0.0821 -0.0339
  488loPI    C2 7794  10.519  17.262  11.362 -0.0728 -0.1039 -0.3054
  488loPI    C3 7795  10.484  17.651  11.275  0.2040  0.0065  0.0528
  488loPI   PO4 7796  10.690  17.205  10.822 -0.0821 -0.1326 -0.2142
  488loPI   GL1 7797  10.445  17.263  10.451 -0.2426 -0.2986 -0.0289
  488loPI   GL2 7798  10.500  17.594  10.241  0.1335  0.1044  0.1713
  488loPI   C1A 7799  10.513  17.090  10.082 -0.0198 -0.0751 -0.0401
  488loPI   C2A 7800  10.530  17.171   9.678  0.0718 -0.2470  0.1921
  488loPI   C3A 7801  10.512  17.111   9.330 -0.1984  0.1399  0.1473
  488loPI   C4A 7802  10.526  17.030   8.970 -0.0804 -0.0912  0.0042
  488loPI   C5A 7803  10.443  16.973   8.544 -0.0183 -0.1539 -0.0996
  488loPI   C6A 7804  10.628  16.738   8.219  0.0010  0.1155 -0.2039
  488loPI   C1B 7805  10.555  17.654   9.805 -0.1427  0.3086  0.1465
  488loPI   C2B 7806  10.543  17.615   9.359 -0.0590 -0.0507 -0.4523
  488loPI   C3B 7807  10.547  17.519   8.966  0.2585 -0.1132 -0.0247
  488loPI   C4B 7808  10.561  17.462   8.611  0.0043 -0.1415  0.5000
  489loPI    C1 7809   4.113  15.163  11.170  0.2413  0.2714 -0.0966
  489loPI    C2 7810   3.794  15.173  11.411  0.1605  0.2575 -0.2026
  489loPI    C3 7811   4.150  15.063  11.556  0.0698  0.0467 -0.1363
  489loPI   PO4 7812   4.067  15.354  10.987  0.0816 -0.5038  0.0121
  489loPI   GL1 7813   4.176  15.463  10.630  0.0931 -0.3007  0.1002
  489loPI   GL2 7814   3.793  15.423  10.547  0.0987 -0.1630  0.1391
  489loPI   C1A 7815   4.198  15.568  10.241 -0.2430 -0.2116  0.2819
  489loPI   C2A 7816   4.219  15.628   9.799  0.0769 -0.1860 -0.0761
  489loPI   C3A 7817   4.272  15.525   9.259 -0.0168  0.1023  0.1409
  489loPI   C4A 7818   4.313  15.563   8.748  0.3479  0.1301 -0.1751
  489loPI   C5A 7819   4.156  15.350   8.354  0.1125 -0.1873  0.0994
  489loPI   C6A 7820   3.945  15.125   7.995 -0.0203  0.0958  0.0547
  489loPI   C1B 7821   3.747  15.383  10.155  0.0777  0.2109  0.0243
  489loPI   C2B 7822   3.744  15.447   9.644 -0.0424  0.0523 -0.1233
  489loPI   C3B 7823   3.840  15.339   9.172  0.0508  0.0267 -0.0093
  489loPI   C4B 7824   3.832  15.364   8.740  0.1071 -0.1328  0.3955
  490loPI    C1 7825   9.632   9.868  10.305 -0.4578 -0.0874  0.0875
  490loPI    C2 7826   9.648   9.671  10.653  0.3038 -0.0385  0.0958
  490loPI    C3 7827   9.840  10.020  10.611 -0.0273  0.1052 -0.2894
  490loPI   PO4 7828   9.548   9.681  10.144 -0.1817  0.0791  0.0258
  490loPI   GL1 7829   9.396   9.751   9.637 -0.0842 -0.3364  0.0433
  490loPI   GL2 7830   9.371   9.937   9.491 -0.1150  0.1408  0.4428
  490loPI   C1A 7831   9.508   9.590   9.127 -0.0391  0.2597  0.3262
  490loPI   C2A 7832   9.506   9.680   8.722 -0.1355  0.1892  0.2498
  490loPI   C3A 7833   9.344   9.744   8.333 -0.2394 -0.1377  0.3150
  490loPI   C4A 7834   9.262   9.426   8.025 -0.1697  0.0697  0.0554
  490loPI   C5A 7835   9.399   9.244   7.709  0.0382  0.0543 -0.1982
  490loPI   C6A 7836   9.817   9.518   7.514  0.2587 -0.0291  0.4891
  490loPI   C1B 7837   9.050   9.778   9.281  0.0623 -0.0311  0.1093
  490loPI   C2B 7838   9.091   9.889   8.877  0.0206  0.0303  0.1906
  490loPI   C3B 7839   8.997  10.069   8.442 -0.5938  0.2150  0.0695
  490loPI   C4B 7840   9.048  10.465   8.372  0.0194  0.0947 -0.1596
  491loPI    C1 7841  15.655  11.361  10.456 -0.0544 -0.0606 -0.0700
  491loPI    C2 7842  15.352  11.538  10.647  0.0699  0.1936 -0.1034
  491loPI    C3 7843  15.610  11.310  10.850 -0.1008  0.0336 -0.0629
  491loPI   PO4 7844  15.815  11.527  10.351  0.3122  0.3503 -0.2858
  491loPI   GL1 7845  15.845  11.524   9.973 -0.3002  0.1619  0.0446
  491loPI   GL2 7846  15.666  11.640   9.824 -0.1642 -0.0253 -0.1082
  491loPI   C1A 7847  16.196  11.675   9.713 -0.0086 -0.0176  0.1689
  491loPI   C2A 7848  16.275  11.870   9.303 -0.1517  0.2030 -0.0964
  491loPI   C3A 7849  16.146  11.991   8.897  0.2696  0.1363  0.0417
  491loPI   C4A 7850  16.088  11.988   8.451 -0.1368  0.0979  0.1872
  491loPI   C5A 7851  16.147  11.982   8.010  0.2118  0.0258 -0.1179
  491loPI   C6A 7852  16.313  11.992   7.664 -0.0844 -0.1496 -0.0308
  491loPI   C1B 7853  15.739  11.684   9.447 -0.3310  0.0993 -0.2261
  491loPI   C2B 7854  15.703  11.736   9.012 -0.2723 -0.1690 -0.2013
  491loPI   C3B 7855  15.615  11.811   8.556  0.1398 -0.2560 -0.0960
  491loPI   C4B 7856  15.702  11.737   8.120  0.0299 -0.2810 -0.1016
  492loPI    C1 7857  11.949   0.840  10.503 -0.1163  0.0426  0.0222
  492loPI    C2 7858  12.004   0.836  10.900 -0.1873  0.2495  0.0348
  492loPI    C3 7859  12.059   1.174  10.693  0.0215  0.1007 -0.1573
  492loPI   PO4 7860  12.085   0.659  10.379  0.2802 -0.1764  0.0960
  492loPI   GL1 7861  12.312   0.646  10.010  0.3894 -0.1179  0.1484
  492loPI   GL2 7862  12.598   0.618  10.006  0.0667 -0.0729  0.1921
  492loPI   C1A 7863  12.204   0.750   9.629  0.0331 -0.3421  0.0628
  492loPI   C2A 7864  12.069   0.799   9.273 -0.0218  0.4546 -0.0221
  492loPI   C3A 7865  12.157   0.726   8.897 -0.1621  0.1576 -0.1487
  492loPI   C4A 7866  12.340   0.866   8.444 -0.1229  0.1849 -0.2814
  492loPI   C5A 7867  12.395   0.893   8.071  0.0416  0.0619  0.1445
  492loPI   C6A 7868  12.531   0.678   7.710  0.0991  0.1593 -0.3225
  492loPI   C1B 7869  12.560   0.475   9.549  0.1002  0.0728  0.1181
  492loPI   C2B 7870  12.483   0.494   9.196 -0.0522  0.2833  0.1634
  492loPI   C3B 7871  12.479   0.417   8.657 -0.2204 -0.1578  0.0556
  492loPI   C4B 7872  12.430   0.332   8.221 -0.0030 -0.2430  0.0428
  493loPI    C1 7873   6.555   7.880  10.402 -0.1483 -0.3198 -0.1145
  493loPI    C2 7874   6.753   7.800  10.740 -0.2972 -0.2682 -0.0144
  493loPI    C3 7875   6.906   8.057  10.475 -0.1118 -0.4164 -0.0529
  493loPI   PO4 7876   6.479   7.605  10.314  0.1937  0.0619 -0.0903
  493loPI   GL1 7877   6.257   7.398  10.047  0.0915  0.0277  0.0079
  493loPI   GL2 7878   6.362   7.197   9.982  0.2013  0.0554  0.2091
  493loPI   C1A 7879   5.980   7.539   9.654  0.1674 -0.0002  0.3994
  493loPI   C2A 7880   5.834   7.563   9.291  0.0857  0.2977 -0.1237
  493loPI   C3A 7881   5.765   7.569   8.842  0.2275  0.2819  0.1660
  493loPI   C4A 7882   5.754   7.614   8.344  0.0717  0.0494  0.1545
  493loPI   C5A 7883   5.768   7.415   7.953 -0.2960 -0.3554 -0.1344
  493loPI   C6A 7884   6.088   7.618   7.624 -0.0026  0.1977  0.1410
  493loPI   C1B 7885   6.136   6.823   9.743  0.1383  0.1582  0.1377
  493loPI   C2B 7886   6.104   6.771   9.221  0.1387  0.1506  0.2042
  493loPI   C3B 7887   5.964   6.695   8.839  0.0263 -0.1603 -0.2158
  493loPI   C4B 7888   5.995   6.654   8.412  0.1376  0.0383  0.0975
  494loPI    C1 7889  16.282  16.896  10.970  0.0327  0.0046  0.1639
  494loPI    C2 7890  16.621  17.090  10.885  0.0956 -0.2242 -0.1243
  494loPI    C3 7891  16.634  16.746  11.089  0.0331 -0.2168 -0.1077
  494loPI   PO4 7892  16.089  16.997  10.642 -0.1796 -0.0782  0.2978
  494loPI   GL1 7893  16.306  16.950  10.269 -0.2474  0.0942 -0.1366
  494loPI   GL2 7894  16.569  17.119  10.388 -0.2832 -0.1567  0.0412
  494loPI   C1A 7895  16.353  17.009   9.909 -0.1685 -0.3374  0.0743
  494loPI   C2A 7896  16.348  16.933   9.547  0.2797  0.0847 -0.1738
  494loPI   C3A 7897  16.389  17.063   9.121  0.0085 -0.2210  0.0953
  494loPI   C4A 7898  16.321  16.887   8.789  0.1510  0.2342  0.3978
  494loPI   C5A 7899  16.465  16.659   8.509  0.5033 -0.0776 -0.0471
  494loPI   C6A 7900  16.892  16.516   8.267  0.1436 -0.0308 -0.2408
  494loPI   C1B 7901  16.776  16.846  10.127 -0.1308  0.3104  0.0046
  494loPI   C2B 7902  16.779  16.650   9.694  0.1209  0.0448 -0.0537
  494loPI   C3B 7903  16.753  16.694   9.229  0.0639 -0.0679 -0.3243
  494loPI   C4B 7904  16.862  16.663   8.830 -0.0609  0.0488  0.1563
  495loPI    C1 7905  16.037   8.834   9.685 -0.0938  0.3427  0.2426
  495loPI    C2 7906  15.698   8.787   9.893 -0.1734 -0.2010  0.0050
  495loPI    C3 7907  15.696   8.995   9.552 -0.2162 -0.0064  0.1227
  495loPI   PO4 7908  16.137   8.697   9.664 -0.1701  0.1417 -0.0353
  495loPI   GL1 7909  16.544   8.791   9.523  0.1524 -0.3628 -0.1817
  495loPI   GL2 7910  16.824   8.577   9.477  0.2012 -0.1561 -0.2009
  495loPI   C1A 7911  16.378   8.726   9.092 -0.2557  0.2201 -0.0368
  495loPI   C2A 7912  16.468   8.585   8.604 -0.2777 -0.0406  0.0214
  495loPI   C3A 7913  16.572   8.665   8.275  0.0829  0.0574  0.0437
  495loPI   C4A 7914  16.678   8.559   7.912  0.1461 -0.0610  0.1054
  495loPI   C5A 7915  16.846   8.691   7.553  0.1916 -0.2497  0.4831
  495loPI   C6A 7916  16.865   9.091   7.261  0.3160  0.0825 -0.0548
  495loPI   C1B 7917  16.880   8.575   9.021  0.1761 -0.0771 -0.2075
  495loPI   C2B 7918  16.997   8.631   8.617  0.2055  0.0680 -0.0162
  495loPI   C3B 7919  17.135   8.580   8.225  0.1231 -0.0030  0.1316
  495loPI   C4B 7920  17.325   8.775   7.908  0.1660 -0.1448  0.0929
  496loPI    C1 7921  12.365  17.743  10.983  0.2236 -0.2916 -0.1998
  496loPI    C2 7922  12.724  17.724  11.158  0.2455 -0.0704 -0.2187
  496loPI    C3 7923  12.453  17.439  11.228  0.3515 -0.1296 -0.0419
  496loPI   PO4 7924  12.443  17.741  10.720 -0.2188  0.0551  0.0367
  496loPI   GL1 7925  12.455  17.543  10.371  0.0505 -0.0910  0.4152
  496loPI   GL2 7926  12.161  17.375  10.275 -0.1666 -0.2017  0.3171
  496loPI   C1A 7927  12.380  17.718   9.975  0.2193 -0.0281  0.1147
  496loPI   C2A 7928  12.312  17.818   9.559 -0.2750  0.2637  0.0409
  496loPI   C3A 7929  12.334  17.861   9.107 -0.0854 -0.1735 -0.1669
  496loPI   C4A 7930  12.329  17.793   8.701  0.0395  0.1762 -0.2511
  496loPI   C5A 7931  12.362  17.737   8.415  0.4216 -0.4572  0.1791
  496loPI   C6A 7932  12.047  18.047   8.305  0.0455 -0.0046 -0.0302
  496loPI   C1B 7933  12.192  17.243   9.796 -0.2065  0.2801 -0.0870
  496loPI   C2B 7934  12.309  17.302   9.305 -0.0451 -0.0534  0.0966
  496loPI   C3B 7935  12.342  17.247   8.872 -0.2376  0.4296  0.4504
  496loPI   C4B 7936  12.341  17.244   8.420  0.0780  0.0256 -0.0174
  497loPI    C1 7937  14.464   8.382  10.345 -0.0141  0.2051  0.1391
  497loPI    C2 7938  14.540   8.668  10.615  0.3749  0.2339  0.0044
  497loPI    C3 7939  14.643   8.288  10.690  0.0882  0.1682  0.0762
  497loPI   PO4 7940  14.449   8.539  10.068  0.1194  0.0812  0.3484
  497loPI   GL1 7941  14.592   8.575   9.580 -0.1586  0.1234 -0.0160
  497loPI   GL2 7942  15.008   8.428   9.524  0.1847 -0.2652 -0.2084
  497loPI   C1A 7943  14.628   8.768   9.118  0.1369 -0.0412 -0.3297
  497loPI   C2A 7944  14.733   8.657   8.687 -0.0631  0.0675  0.0992
  497loPI   C3A 7945  14.726   8.519   8.227 -0.0319  0.0115  0.3506
  497loPI   C4A 7946  14.891   8.500   7.818 -0.0060  0.0338  0.1103
  497loPI   C5A 7947  15.121   8.467   7.511 -0.0539  0.0132 -0.4544
  497loPI   C6A 7948  15.612   8.462   7.509  0.2124 -0.0309  0.1485
  497loPI   C1B 7949  15.059   8.444   9.113  0.1640 -0.2586  0.0674
  497loPI   C2B 7950  15.137   8.448   8.674 -0.0031 -0.2353 -0.0066
  497loPI   C3B 7951  15.291   8.407   8.302 -0.1969  0.1952  0.2128
  497loPI   C4B 7952  15.569   8.667   8.026  0.1421 -0.5700 -0.1722
  498loPI    C1 7953   9.610  10.478  10.316 -0.1084 -0.2803  0.3676
  498loPI    C2 7954   9.676  10.785  10.564 -0.0063  0.0295 -0.0333
  498loPI    C3 7955   9.955  10.502  10.518  0.1604  0.2064 -0.1242
  498loPI   PO4 7956   9.542  10.577  10.087  0.1521  0.0640  0.4276
  498loPI   GL1 7957   9.610  10.606   9.714  0.1158  0.1311  0.4120
  498loPI   GL2 7958   9.700  10.336   9.650 -0.0487 -0.1066 -0.0763
  498loPI   C1A 7959   9.445  10.403   9.256 -0.0762 -0.1289 -0.3371
  498loPI   C2A 7960   9.506  10.162   8.969  0.1440 -0.1691  0.1560
  498loPI   C3A 7961   9.521  10.160   8.536 -0.1672  0.0449 -0.1943
  498loPI   C4A 7962   9.413  10.265   8.002  0.0493 -0.0942 -0.2064
  498loPI   C5A 7963   9.405  10.422   7.597  0.2912 -0.1289  0.0397
  498loPI   C6A 7964   9.281  10.167   7.176 -0.0345  0.0338 -0.2798
  498loPI   C1B 7965   9.874  10.085   9.317  0.1963 -0.0914  0.1929
  498loPI   C2B 7966   9.966   9.852   8.963  0.3224 -0.0383  0.0328
  498loPI   C3B 7967   9.949   9.710   8.548 -0.2186 -0.1081 -0.2503
  498loPI   C4B 7968   9.826   9.955   8.177  0.1033  0.0140  0.0426
  499loPI    C1 7969   2.634  14.147  11.203 -0.4362  0.0297  0.0412
  499loPI    C2 7970   2.740  14.383  11.508 -0.0213 -0.0406 -0.0425
  499loPI    C3 7971   2.425  14.138  11.544 -0.3345  0.3729  0.1165
  499loPI   PO4 7972   2.658  14.326  10.979  0.1155  0.0396  0.0494
  499loPI   GL1 7973   2.921  14.310  10.688  0.0896  0.1613  0.1981
  499loPI   GL2 7974   3.152  14.348  10.728  0.2473 -0.2233  0.3828
  499loPI   C1A 7975   2.815  14.498  10.343  0.1536  0.0324 -0.2444
  499loPI   C2A 7976   2.716  14.506   9.852 -0.0477 -0.2029 -0.3281
  499loPI   C3A 7977   2.832  14.470   9.456  0.0989 -0.1232  0.1548
  499loPI   C4A 7978   2.835  14.460   8.973 -0.0564 -0.0413  0.0631
  499loPI   C5A 7979   2.808  14.518   8.565  0.0497  0.1551 -0.1740
  499loPI   C6A 7980   2.745  14.997   8.496 -0.1382 -0.0820 -0.3263
  499loPI   C1B 7981   3.216  14.197  10.252  0.0056  0.2701  0.0436
  499loPI   C2B 7982   3.187  14.125   9.877  0.0575  0.2105 -0.1779
  499loPI   C3B 7983   3.192  14.156   9.442 -0.0975 -0.0378  0.2461
  499loPI   C4B 7984   3.218  14.148   9.017 -0.1408 -0.0651 -0.0096
  500loPI    C1 7985   3.311   7.162  10.581 -0.2418  0.1806  0.0746
  500loPI    C2 7986   3.026   6.884  10.621 -0.0111 -0.0490  0.1563
  500loPI    C3 7987   3.039   7.195  10.873 -0.1362 -0.0842  0.2070
  500loPI   PO4 7988   3.308   7.180  10.265  0.0453  0.1311  0.1230
  500loPI   GL1 7989   3.337   7.014   9.822  0.1173 -0.0478 -0.1233
  500loPI   GL2 7990   3.247   6.656   9.961  0.1390  0.1249  0.1287
  500loPI   C1A 7991   3.475   7.166   9.469  0.3879 -0.0933 -0.3329
  500loPI   C2A 7992   3.446   7.096   9.056  0.1466 -0.2073  0.0156
  500loPI   C3A 7993   3.495   7.009   8.677 -0.2491 -0.0956 -0.1647
  500loPI   C4A 7994   3.484   7.086   8.260 -0.0416  0.2777  0.0794
  500loPI   C5A 7995   3.233   6.917   7.978  0.1946  0.0222  0.1723
  500loPI   C6A 7996   2.946   6.906   7.781 -0.1157 -0.0680  0.1032
  500loPI   C1B 7997   3.286   6.522   9.529 -0.0811 -0.0200  0.1715
  500loPI   C2B 7998   3.357   6.597   9.036  0.2603  0.0974  0.0497
  500loPI   C3B 7999   3.404   6.477   8.646  0.0565  0.3597 -0.1597
  500loPI   C4B 8000   3.439   6.514   8.257 -0.2255  0.1247  0.1683
  501loPI    C1 8001  17.131  15.957  10.807  0.0379  0.1934 -0.2510
  501loPI    C2 8002  17.302  15.604  10.726  0.0753  0.2017 -0.2082
  501loPI    C3 8003  17.395  15.799  11.063 -0.0819  0.1660 -0.1432
  501loPI   PO4 8004  17.053  16.069  10.573 -0.1709  0.1259 -0.1873
  501loPI   GL1 8005  16.866  16.402  10.356 -0.1011  0.1908  0.1642
  501loPI   GL2 8006  16.637  16.223  10.200 -0.0101 -0.0922  0.1284
  501loPI   C1A 8007  17.074  16.372  10.007  0.0567  0.3581 -0.1851
  501loPI   C2A 8008  17.322  16.265   9.718  0.1941 -0.0196 -0.4433
  501loPI   C3A 8009  17.367  16.275   9.285  0.3592 -0.3069 -0.2973
  501loPI   C4A 8010  17.343  16.407   8.845  0.1196 -0.0590 -0.0425
  501loPI   C5A 8011  17.410  16.423   8.429  0.2178 -0.0197  0.1204
  501loPI   C6A 8012  17.531  16.241   8.017  0.0732 -0.2026  0.1929
  501loPI   C1B 8013  16.696  16.120   9.738  0.0081  0.0827 -0.1748
  501loPI   C2B 8014  16.882  16.205   9.363 -0.0244 -0.0247 -0.0728
  501loPI   C3B 8015  16.722  16.194   9.054  0.1347 -0.0177 -0.0758
  501loPI   C4B 8016  16.696  16.219   8.608  0.0363 -0.1125  0.2632
  502loPI    C1 8017   6.638  10.265  10.365 -0.1529  0.0635  0.0909
  502loPI    C2 8018   6.746  10.245  10.750  0.1962  0.2830  0.0082
  502loPI    C3 8019   6.986  10.096  10.466 -0.0878  0.0664 -0.1231
  502loPI   PO4 8020   6.591  10.587  10.391  0.0647 -0.0789 -0.1666
  502loPI   GL1 8021   6.282  10.773  10.118  0.4089  0.0379 -0.3605
  502loPI   GL2 8022   5.912  10.737  10.057  0.1491 -0.1138  0.1644
  502loPI   C1A 8023   6.400  10.845   9.703  0.2869  0.0647  0.0637
  502loPI   C2A 8024   6.461  11.095   9.404 -0.1389 -0.1802  0.0981
  502loPI   C3A 8025   6.456  11.087   8.947 -0.3534  0.0923  0.2386
  502loPI   C4A 8026   6.308  11.210   8.500 -0.0315 -0.2494  0.2943
  502loPI   C5A 8027   6.278  11.467   8.163 -0.0036 -0.2395 -0.3566
  502loPI   C6A 8028   6.060  11.424   7.763 -0.2688 -0.0726  0.0511
  502loPI   C1B 8029   5.924  10.787   9.682  0.0719 -0.1643  0.1726
  502loPI   C2B 8030   5.862  10.851   9.212 -0.0365 -0.2773  0.0702
  502loPI   C3B 8031   5.847  10.981   8.727  0.0213  0.0076  0.1187
  502loPI   C4B 8032   5.812  10.948   8.318 -0.1883  0.4795  0.0151
  503loPI    C1 8033   2.267  16.300  10.907  0.1853 -0.1685  0.1870
  503loPI    C2 8034   2.113  16.532  11.193  0.2205  0.0707  0.0144
  503loPI    C3 8035   2.355  16.690  10.916 -0.0180 -0.1046 -0.2994
  503loPI   PO4 8036   1.991  16.126  10.831 -0.1747 -0.0390 -0.1177
  503loPI   GL1 8037   2.040  15.865  10.457  0.3533  0.0451 -0.0683
  503loPI   GL2 8038   2.023  15.579  10.345 -0.0524  0.3351  0.2770
  503loPI   C1A 8039   2.149  16.170  10.153 -0.0256  0.2082 -0.2106
  503loPI   C2A 8040   2.261  16.177   9.747  0.3709  0.3136  0.2672
  503loPI   C3A 8041   2.080  16.135   9.298 -0.0235  0.0901 -0.0665
  503loPI   C4A 8042   2.142  16.088   8.857 -0.2535  0.2519 -0.0930
  503loPI   C5A 8043   1.971  16.117   8.531  0.4306 -0.1517  0.1335
  503loPI   C6A 8044   1.745  16.468   8.271 -0.1110 -0.1788  0.1860
  503loPI   C1B 8045   2.111  15.618   9.938 -0.0407  0.1017 -0.0801
  503loPI   C2B 8046   2.044  15.625   9.513  0.1617  0.1830 -0.0037
  503loPI   C3B 8047   1.997  15.634   9.174 -0.1929 -0.1199  0.1289
  503loPI   C4B 8048   2.018  15.606   8.681  0.1546  0.2166 -0.0926
  504loPI    C1 8049  12.543  17.151  10.843  0.0150 -0.1487  0.0236
  504loPI    C2 8050  12.907  17.086  10.997  0.0999  0.2138 -0.0156
  504loPI    C3 8051  12.582  16.952  11.188  0.2514 -0.1073  0.0225
  504loPI   PO4 8052  12.605  17.145  10.568  0.2059 -0.2630  0.0568
  504loPI   GL1 8053  12.851  17.244  10.333  0.1681 -0.2993 -0.2308
  504loPI   GL2 8054  12.609  17.133  10.092  0.1711  0.0474  0.0935
  504loPI   C1A 8055  13.099  17.272   9.897 -0.1585 -0.1730  0.0077
  504loPI   C2A 8056  13.237  17.239   9.508 -0.1630  0.0545  0.3078
  504loPI   C3A 8057  13.176  17.225   9.023  0.0308  0.3200  0.1500
  504loPI   C4A 8058  13.181  17.206   8.533  0.3984  0.3182 -0.1241
  504loPI   C5A 8059  13.164  16.834   8.260  0.2114  0.0006 -0.2483
  504loPI   C6A 8060  13.097  16.502   7.999  0.0934  0.0701  0.2815
  504loPI   C1B 8061  12.665  17.058   9.640 -0.0024  0.1141 -0.1151
  504loPI   C2B 8062  12.785  17.044   9.236 -0.0792  0.0825 -0.3568
  504loPI   C3B 8063  12.793  16.954   8.855  0.1764  0.0367  0.1441
  504loPI   C4B 8064  12.693  16.895   8.471  0.0759  0.1498  0.0738
  505loPI    C1 8065  14.357  17.188  10.835  0.0468 -0.0240 -0.0417
  505loPI    C2 8066  14.224  17.281  11.201  0.1536  0.3684 -0.0974
  505loPI    C3 8067  14.467  16.967  11.149 -0.2389  0.0234  0.0949
  505loPI   PO4 8068  14.133  17.241  10.698  0.1957 -0.1933  0.1108
  505loPI   GL1 8069  14.234  17.548  10.337  0.1272 -0.0062 -0.3145
  505loPI   GL2 8070  14.505  17.711  10.338 -0.2391 -0.1183 -0.2125
  505loPI   C1A 8071  14.078  17.614  10.021 -0.2544 -0.0062  0.0724
  505loPI   C2A 8072  14.174  17.614   9.571  0.2104  0.2281 -0.0352
  505loPI   C3A 8073  14.191  17.457   9.163 -0.3493  0.3522  0.2449
  505loPI   C4A 8074  14.085  17.532   8.754  0.1662  0.0236  0.2551
  505loPI   C5A 8075  14.195  17.525   8.350  0.2139  0.2739 -0.2555
  505loPI   C6A 8076  14.474  17.785   8.189  0.0432 -0.0454  0.1588
  505loPI   C1B 8077  14.636  17.738   9.855  0.2666  0.3913  0.0189
  505loPI   C2B 8078  14.604  17.810   9.396  0.0678 -0.0576 -0.1462
  505loPI   C3B 8079  14.614  17.616   8.979 -0.1607 -0.3043  0.0568
  505loPI   C4B 8080  14.706  17.722   8.646  0.0856  0.2401  0.2018
  506loPI    C1 8081  12.941   2.009  10.495 -0.0323  0.2673 -0.0534
  506loPI    C2 8082  12.808   1.706  10.720  0.0504  0.2813  0.0149
  506loPI    C3 8083  12.931   2.045  10.894 -0.1458  0.3958 -0.0671
  506loPI   PO4 8084  12.736   1.975  10.255  0.4150  0.0971 -0.0558
  506loPI   GL1 8085  12.715   2.062   9.878  0.1498 -0.3212 -0.0658
  506loPI   GL2 8086  12.921   1.740   9.919  0.3199 -0.2567  0.1564
  506loPI   C1A 8087  12.849   2.043   9.451 -0.1497  0.0119 -0.0408
  506loPI   C2A 8088  12.873   1.970   9.025 -0.0128 -0.0840 -0.2053
  506loPI   C3A 8089  12.742   2.030   8.575  0.1494  0.2382  0.2318
  506loPI   C4A 8090  12.630   1.914   8.113  0.0203  0.2607 -0.1190
  506loPI   C5A 8091  12.810   1.595   7.796 -0.3795  0.0716 -0.2335
  506loPI   C6A 8092  12.922   1.489   7.314  0.1369 -0.0393  0.1834
  506loPI   C1B 8093  12.814   1.472   9.534  0.0703 -0.0352  0.0526
  506loPI   C2B 8094  12.761   1.411   9.085  0.2487 -0.0927  0.2740
  506loPI   C3B 8095  12.614   1.391   8.635 -0.5165  0.2349 -0.1653
  506loPI   C4B 8096  12.513   1.451   8.273 -0.1165  0.0342 -0.1821
  507loPI    C1 8097  11.026  10.862  10.184 -0.0004 -0.0894 -0.0571
  507loPI    C2 8098  11.344  11.104  10.180 -0.0204 -0.0639 -0.1284
  507loPI    C3 8099  11.198  10.970  10.528  0.0262 -0.0204 -0.0920
  507loPI   PO4 8100  11.071  10.671   9.962  0.2875 -0.1352 -0.1426
  507loPI   GL1 8101  10.975  10.767   9.504  0.0908  0.1263 -0.1978
  507loPI   GL2 8102  11.217  11.019   9.610  0.1669  0.1504  0.0088
  507loPI   C1A 8103  10.900  10.769   9.054  0.3454 -0.0574 -0.4008
  507loPI   C2A 8104  10.736  10.936   8.660  0.2863 -0.0876 -0.1618
  507loPI   C3A 8105  10.562  11.068   8.348  0.0971  0.0821  0.0057
  507loPI   C4A 8106  10.242  11.262   8.112 -0.1796 -0.0180 -0.1615
  507loPI   C5A 8107  10.150  11.329   7.663 -0.0863 -0.0745  0.2608
  507loPI   C6A 8108  10.055  11.768   7.495  0.1305  0.1115  0.0555
  507loPI   C1B 8109  11.417  11.068   9.249 -0.2476  0.0408 -0.3101
  507loPI   C2B 8110  11.524  11.226   8.885  0.0721 -0.1375  0.0628
  507loPI   C3B 8111  11.384  11.324   8.429 -0.0399 -0.1145 -0.1310
  507loPI   C4B 8112  11.463  11.201   7.942 -0.0038 -0.4590  0.1458
  508loPI    C1 8113  14.933   2.232  10.762  0.0115  0.1038 -0.1277
  508loPI    C2 8114  14.906   2.541  11.014 -0.0386  0.0642 -0.0841
  508loPI    C3 8115  15.059   2.193  11.140 -0.1108  0.0289 -0.0940
  508loPI   PO4 8116  15.102   2.400  10.589 -0.0167 -0.2380  0.0670
  508loPI   GL1 8117  15.210   2.342  10.062 -0.1216 -0.0267  0.1858
  508loPI   GL2 8118  14.883   2.301   9.967 -0.1890 -0.0684  0.0511
  508loPI   C1A 8119  15.217   2.570   9.639 -0.1920  0.0067 -0.1056
  508loPI   C2A 8120  15.215   2.374   9.275 -0.0799  0.3392  0.1108
  508loPI   C3A 8121  15.184   2.363   8.800  0.0897  0.2448  0.1767
  508loPI   C4A 8122  15.158   2.481   8.296 -0.0825 -0.0387 -0.2593
  508loPI   C5A 8123  14.922   2.445   7.958  0.2796 -0.0537  0.1838
  508loPI   C6A 8124  14.851   2.153   7.560 -0.0370  0.2883 -0.1099
  508loPI   C1B 8125  14.698   2.311   9.555  0.2775 -0.0537 -0.1149
  508loPI   C2B 8126  14.677   2.223   9.087 -0.1186  0.1432 -0.1834
  508loPI   C3B 8127  14.719   2.213   8.715 -0.2810  0.0291 -0.2015
  508loPI   C4B 8128  14.710   2.559   8.436  0.0341  0.1361  0.1249
  509loPI    C1 8129   0.391  10.793  10.963  0.0742  0.1173 -0.1744
  509loPI    C2 8130   0.203  10.472  10.816  0.5083 -0.1482 -0.1669
  509loPI    C3 8131   0.196  10.544  11.209 -0.0379  0.1567 -0.2225
  509loPI   PO4 8132   0.398  10.926  10.791 -0.1794 -0.0318  0.3207
  509loPI   GL1 8133   0.392  11.067  10.341  0.1334 -0.3928  0.1218
  509loPI   GL2 8134   0.061  11.197  10.223  0.0385 -0.1849  0.2474
  509loPI   C1A 8135   0.426  11.048   9.857 -0.0757 -0.4112 -0.0031
  509loPI   C2A 8136   0.405  11.122   9.424 -0.1256  0.2788 -0.3575
  509loPI   C3A 8137   0.336  11.122   8.963  0.1161  0.0015  0.1257
  509loPI   C4A 8138   0.359  11.148   8.588  0.1231  0.1433  0.1180
  509loPI   C5A 8139   0.340  11.177   8.165  0.0108 -0.0190 -0.0649
  509loPI   C6A 8140   0.422  11.083   7.724  0.1896  0.3077  0.3124
  509loPI   C1B 8141   0.041  11.373   9.818 -0.1604 -0.1124  0.1132
  509loPI   C2B 8142   0.011  11.371   9.364 -0.0464  0.0542 -0.1365
  509loPI   C3B 8143  -0.067  11.429   8.987 -0.0918 -0.0737  0.1674
  509loPI   C4B 8144  -0.002  11.494   8.498  0.0824  0.0007 -0.0442
  510loPI    C1 8145  16.287   0.668  10.983  0.0363  0.1262 -0.0986
  510loPI    C2 8146  16.618   0.666  11.207  0.1633  0.0350 -0.2849
  510loPI    C3 8147  16.264   0.750  11.374  0.2755  0.1037 -0.0787
  510loPI   PO4 8148  16.231   0.504  10.807 -0.2121  0.0460 -0.2785
  510loPI   GL1 8149  16.067   0.384  10.414  0.2707  0.0361  0.0304
  510loPI   GL2 8150  16.405   0.288  10.378 -0.0958 -0.2144  0.0245
  510loPI   C1A 8151  16.099   0.478   9.999  0.0755  0.0266 -0.1538
  510loPI   C2A 8152  16.268   0.433   9.599  0.3044 -0.1669  0.3571
  510loPI   C3A 8153  16.143   0.422   9.176 -0.0525  0.0669 -0.2832
  510loPI   C4A 8154  16.318   0.280   8.713  0.1429  0.0782  0.0841
  510loPI   C5A 8155  16.504   0.038   8.278 -0.2177 -0.1605  0.0596
  510loPI   C6A 8156  16.425  -0.325   8.091 -0.1557 -0.2768 -0.2050
  510loPI   C1B 8157  16.551   0.125  10.010 -0.1405  0.0923  0.2831
  510loPI   C2B 8158  16.623   0.036   9.582 -0.2687  0.0090 -0.0903
  510loPI   C3B 8159  16.576   0.068   9.173  0.0003  0.1577 -0.4226
  510loPI   C4B 8160  16.784   0.035   8.817  0.0448 -0.0505 -0.0534
  511loPI    C1 8161  12.828   6.918  10.271 -0.2515 -0.1496  0.1450
  511loPI    C2 8162  12.730   7.184  10.554  0.1387  0.1363  0.0200
  511loPI    C3 8163  12.546   7.192  10.198  0.0373  0.1333  0.0720
  511loPI   PO4 8164  13.076   6.953  10.183  0.1659  0.1579 -0.2718
  511loPI   GL1 8165  13.280   6.992   9.789 -0.3618 -0.1325 -0.1412
  511loPI   GL2 8166  13.273   7.203   9.574 -0.1923  0.2262 -0.2865
  511loPI   C1A 8167  13.453   6.725   9.477 -0.1381  0.1944  0.1425
  511loPI   C2A 8168  13.287   6.579   9.065 -0.0588  0.1509 -0.3667
  511loPI   C3A 8169  13.254   6.644   8.552 -0.2839 -0.2007 -0.0209
  511loPI   C4A 8170  13.177   6.825   8.152  0.1226  0.2178 -0.2706
  511loPI   C5A 8171  13.158   6.911   7.703  0.1348  0.1400  0.0242
  511loPI   C6A 8172  13.265   7.160   7.441  0.1367  0.3119 -0.2556
  511loPI   C1B 8173  13.241   7.121   9.177 -0.2042 -0.0454  0.1785
  511loPI   C2B 8174  13.276   7.176   8.846 -0.0771  0.0879 -0.0682
  511loPI   C3B 8175  13.263   7.229   8.380 -0.3119 -0.3797  0.0725
  511loPI   C4B 8176  13.175   7.324   7.953  0.0045 -0.0938  0.0107
  512loPI    C1 8177  13.314   0.374  11.137  0.2673 -0.0199 -0.1132
  512loPI    C2 8178  13.391   0.766  11.168 -0.2608  0.0882 -0.0849
  512loPI    C3 8179  13.198   0.576  11.462 -0.3048 -0.1199 -0.2454
  512loPI   PO4 8180  13.415   0.405  10.794 -0.1794 -0.3377 -0.0402
  512loPI   GL1 8181  13.559   0.412  10.340 -0.0750  0.1651  0.1283
  512loPI   GL2 8182  13.906   0.580  10.365 -0.1923  0.4637  0.1658
  512loPI   C1A 8183  13.447   0.402   9.809 -0.1748 -0.1777 -0.2383
  512loPI   C2A 8184  13.448   0.307   9.401  0.2462 -0.0401 -0.0244
  512loPI   C3A 8185  13.454   0.251   8.981 -0.3818  0.1190 -0.0127
  512loPI   C4A 8186  13.356   0.251   8.506  0.1845  0.1056 -0.0804
  512loPI   C5A 8187  13.376   0.235   8.044 -0.0509  0.1631 -0.0225
  512loPI   C6A 8188  13.414   0.617   7.779 -0.3002  0.1810 -0.0170
  512loPI   C1B 8189  13.946   0.499   9.964  0.2581 -0.1238 -0.0332
  512loPI   C2B 8190  13.955   0.476   9.402  0.2620 -0.1136  0.0297
  512loPI   C3B 8191  13.982   0.563   8.870  0.0067  0.0794 -0.1678
  512loPI   C4B 8192  14.037   0.474   8.401 -0.1732  0.2498  0.0815
  513loPI    C1 8193  11.912   9.317  10.265  0.1325  0.1111 -0.0413
  513loPI    C2 8194  12.263   9.203  10.419  0.1502  0.2285  0.0062
  513loPI    C3 8195  11.990   9.379  10.652  0.0001  0.0032  0.0034
  513loPI   PO4 8196  11.986   9.438   9.989 -0.1313  0.1786 -0.1260
  513loPI   GL1 8197  11.756   9.284   9.637  0.0135  0.0563 -0.3027
  513loPI   GL2 8198  12.074   9.346   9.540  0.0947  0.1821  0.1139
  513loPI   C1A 8199  11.610   9.360   9.283  0.0199  0.2358  0.3525
  513loPI   C2A 8200  11.569   9.421   8.793 -0.0680  0.0885 -0.2733
  513loPI   C3A 8201  11.309   9.152   8.369  0.1596  0.0107  0.0074
  513loPI   C4A 8202  11.219   8.926   7.914 -0.1618 -0.1576  0.1403
  513loPI   C5A 8203  11.137   8.713   7.506 -0.2832 -0.1189 -0.3091
  513loPI   C6A 8204  11.038   8.306   7.381  0.1702 -0.0064  0.2096
  513loPI   C1B 8205  12.121   9.398   9.181  0.2800 -0.0732 -0.0272
  513loPI   C2B 8206  12.093   9.445   8.766  0.1191 -0.2600 -0.3199
  513loPI   C3B 8207  12.189   9.451   8.293  0.1670 -0.1851 -0.1382
  513loPI   C4B 8208  11.975   9.289   7.967  0.1006 -0.1996  0.0391
  514loPI    C1 8209   8.979   7.316  10.192 -0.1105  0.0861  0.0105
  514loPI    C2 8210   9.249   7.132  10.423 -0.0549 -0.0437 -0.1557
  514loPI    C3 8211   9.021   7.424  10.575  0.2122  0.1011 -0.0261
  514loPI   PO4 8212   8.920   7.147   9.976 -0.2514 -0.0328 -0.0272
  514loPI   GL1 8213   8.998   7.093   9.495 -0.2412  0.1760  0.0023
  514loPI   GL2 8214   8.796   6.845   9.364  0.0271 -0.3808 -0.1806
  514loPI   C1A 8215   9.031   7.084   9.000  0.4236  0.3945 -0.0869
  514loPI   C2A 8216   8.989   6.881   8.522 -0.1077 -0.1333 -0.1122
  514loPI   C3A 8217   8.968   7.006   8.099 -0.3222  0.1558  0.3727
  514loPI   C4A 8218   8.855   7.051   7.669 -0.0821  0.0676  0.2125
  514loPI   C5A 8219   9.051   6.794   7.400  0.0488 -0.2865  0.0085
  514loPI   C6A 8220   9.270   6.712   7.053 -0.3895 -0.2074  0.0835
  514loPI   C1B 8221   8.751   6.541   9.140  0.0129  0.3007 -0.4580
  514loPI   C2B 8222   8.781   6.462   8.738 -0.1408 -0.2689 -0.2000
  514loPI   C3B 8223   8.762   6.487   8.253 -0.0998  0.1245 -0.1928
  514loPI   C4B 8224   8.801   6.563   7.855 -0.4081  0.2082 -0.6766
  515loPI    C1 8225   5.115   6.579  10.320 -0.1204  0.0854 -0.0999
  515loPI    C2 8226   5.333   6.370  10.582  0.0694  0.1012 -0.2435
  515loPI    C3 8227   4.967   6.494  10.682  0.0050 -0.1869 -0.1098
  515loPI   PO4 8228   5.191   6.505  10.124  0.2881 -0.2710 -0.1548
  515loPI   GL1 8229   5.253   6.483   9.737 -0.1430  0.0226  0.0074
  515loPI   GL2 8230   5.410   6.832   9.764  0.2298  0.1074 -0.1389
  515loPI   C1A 8231   5.118   6.317   9.370  0.0513  0.0360  0.1939
  515loPI   C2A 8232   5.119   6.266   8.921  0.1160 -0.4566  0.0139
  515loPI   C3A 8233   5.118   6.186   8.419 -0.1803  0.1535  0.0932
  515loPI   C4A 8234   5.140   6.187   7.967 -0.2755  0.3303 -0.0779
  515loPI   C5A 8235   5.257   6.202   7.608  0.0089  0.3402 -0.5356
  515loPI   C6A 8236   5.363   6.169   7.242 -0.0379  0.0087  0.0952
  515loPI   C1B 8237   5.228   6.792   9.335  0.2759  0.2261 -0.1144
  515loPI   C2B 8238   5.237   6.756   8.898  0.0177 -0.3628  0.3863
  515loPI   C3B 8239   5.297   6.835   8.499  0.0387  0.2250 -0.0961
  515loPI   C4B 8240   5.210   6.777   8.055  0.0156  0.1139 -0.1902
  516loPI    C1 8241  15.261  14.790  11.000  0.1510 -0.0498 -0.0408
  516loPI    C2 8242  15.228  14.596  11.348 -0.1067 -0.0472 -0.0617
  516loPI    C3 8243  15.051  14.951  11.300  0.1056  0.0513 -0.1259
  516loPI   PO4 8244  15.104  14.533  10.728 -0.0991 -0.0149  0.0011
  516loPI   GL1 8245  14.930  14.561  10.312 -0.0111 -0.1667  0.0380
  516loPI   GL2 8246  15.271  14.671  10.233 -0.1177  0.1295  0.0559
  516loPI   C1A 8247  14.725  14.274   9.973 -0.1191  0.1431  0.0468
  516loPI   C2A 8248  14.600  14.255   9.587  0.1421  0.1072 -0.2211
  516loPI   C3A 8249  14.563  14.242   9.208 -0.2617  0.1955 -0.0823
  516loPI   C4A 8250  14.528  14.271   8.796 -0.0588 -0.3684 -0.1356
  516loPI   C5A 8251  14.539  14.411   8.333 -0.4929  0.1741 -0.1519
  516loPI   C6A 8252  14.548  14.202   7.775 -0.2456 -0.0761  0.0497
  516loPI   C1B 8253  15.094  14.565   9.826 -0.3056  0.2907  0.1768
  516loPI   C2B 8254  15.060  14.449   9.391 -0.1231 -0.1335 -0.0773
  516loPI   C3B 8255  14.989  14.399   8.938  0.3212  0.0652  0.3194
  516loPI   C4B 8256  15.049  14.390   8.524 -0.0399 -0.0793 -0.0704
  517loPI    C1 8257   4.992  11.331  11.008  0.1717  0.1725 -0.2365
  517loPI    C2 8258   5.001  10.985  11.209 -0.1335  0.2074 -0.1567
  517loPI    C3 8259   5.102  11.325  11.392 -0.1106  0.1987 -0.1531
  517loPI   PO4 8260   5.068  11.192  10.747 -0.1394  0.0670  0.2503
  517loPI   GL1 8261   4.743  11.247  10.446 -0.2333  0.0361  0.0045
  517loPI   GL2 8262   4.680  10.928  10.344  0.3831  0.1226 -0.2299
  517loPI   C1A 8263   4.580  11.380  10.026  0.1112  0.1400 -0.0715
  517loPI   C2A 8264   4.529  11.356   9.619 -0.2862 -0.1619 -0.0584
  517loPI   C3A 8265   4.532  11.357   9.144 -0.0251 -0.4316  0.3099
  517loPI   C4A 8266   4.447  11.306   8.672 -0.0531 -0.1722  0.0870
  517loPI   C5A 8267   4.601  11.497   8.309 -0.1093  0.2084 -0.0069
  517loPI   C6A 8268   4.749  11.638   8.027  0.0330 -0.3626 -0.0355
  517loPI   C1B 8269   4.359  10.913  10.000 -0.0921  0.0055 -0.2795
  517loPI   C2B 8270   4.400  10.838   9.626  0.1324  0.1293 -0.0223
  517loPI   C3B 8271   4.459  10.825   9.206  0.0411 -0.0910  0.2735
  517loPI   C4B 8272   4.457  10.769   8.796 -0.3420  0.1215 -0.1191
  518loPI    C1 8273  15.687   9.375  10.140 -0.1356  0.0399 -0.1354
  518loPI    C2 8274  15.847   9.694   9.960 -0.1417  0.1570  0.0636
  518loPI    C3 8275  16.064   9.480  10.219 -0.0065 -0.2384 -0.3620
  518loPI   PO4 8276  15.525   9.269   9.940 -0.1714  0.0093 -0.0173
  518loPI   GL1 8277  15.306   9.358   9.537 -0.1460  0.0818 -0.0597
  518loPI   GL2 8278  15.108   9.588   9.422  0.1047  0.2005  0.1357
  518loPI   C1A 8279  15.521   9.289   9.131  0.0087 -0.0873 -0.0583
  518loPI   C2A 8280  15.595   9.317   8.788 -0.0027 -0.0111  0.2513
  518loPI   C3A 8281  15.737   9.520   8.415 -0.0391 -0.0662 -0.0593
  518loPI   C4A 8282  16.048   9.441   7.956  0.0029  0.1480 -0.1725
  518loPI   C5A 8283  16.257   9.421   7.626  0.3106  0.0349 -0.1087
  518loPI   C6A 8284  16.689   9.678   7.579  0.1237  0.1525 -0.0941
  518loPI   C1B 8285  15.135   9.604   8.932 -0.1743 -0.3648 -0.3296
  518loPI   C2B 8286  15.251   9.542   8.454  0.2288 -0.0512  0.3333
  518loPI   C3B 8287  15.372   9.593   8.032  0.1177 -0.2081  0.1290
  518loPI   C4B 8288  15.442   9.675   7.580  0.1558 -0.0631  0.0437
  519loPI    C1 8289   1.117   0.039  11.543  0.3252 -0.0448 -0.0535
  519loPI    C2 8290   0.829   0.087  11.816  0.2463 -0.1818 -0.1111
  519loPI    C3 8291   1.174   0.288  11.850  0.2382 -0.1994  0.0899
  519loPI   PO4 8292   0.941   0.048  11.284 -0.1448 -0.0139  0.0595
  519loPI   GL1 8293   0.915   0.149  10.835  0.0596 -0.1916  0.1454
  519loPI   GL2 8294   1.035   0.374  10.741 -0.0274  0.0279  0.0214
  519loPI   C1A 8295   1.096  -0.225  10.568  0.0700 -0.1382 -0.3993
  519loPI   C2A 8296   1.011  -0.199  10.162  0.2547  0.2306  0.1869
  519loPI   C3A 8297   1.046  -0.317   9.731  0.0826  0.0269  0.0612
  519loPI   C4A 8298   1.028  -0.393   9.311  0.0915 -0.1802 -0.1265
  519loPI   C5A 8299   1.107  -0.483   8.858  0.0058 -0.1502  0.3062
  519loPI   C6A 8300   1.307  -0.660   8.517 -0.1268 -0.1264 -0.1436
  519loPI   C1B 8301   1.059   0.263  10.305  0.1059  0.1184 -0.1900
  519loPI   C2B 8302   1.007   0.239   9.811  0.1011 -0.0087 -0.0143
  519loPI   C3B 8303   1.008   0.081   9.356  0.0716  0.3146 -0.1209
  519loPI   C4B 8304   1.004   0.053   8.893  0.4046 -0.2333 -0.1401
  520loPI    C1 8305  10.221   1.948  10.832  0.1082  0.1433  0.0264
  520loPI    C2 8306   9.961   1.718  11.031  0.1360 -0.0436 -0.1496
  520loPI    C3 8307  10.281   1.867  11.219  0.0756 -0.0833 -0.0142
  520loPI   PO4 8308  10.050   2.016  10.599  0.0662  0.4091  0.0403
  520loPI   GL1 8309   9.809   1.843  10.234  0.2241 -0.2091 -0.0448
  520loPI   GL2 8310   9.560   1.935  10.236  0.0051  0.1446  0.1450
  520loPI   C1A 8311   9.544   1.583   9.911 -0.1223 -0.0090 -0.2447
  520loPI   C2A 8312   9.478   1.693   9.500  0.1112 -0.0372  0.1675
  520loPI   C3A 8313   9.537   1.681   9.093  0.2375 -0.2120 -0.1033
  520loPI   C4A 8314   9.394   1.687   8.749 -0.1885  0.2104  0.1647
  520loPI   C5A 8315   9.491   1.621   8.279 -0.2773  0.3931 -0.0019
  520loPI   C6A 8316   9.486   1.503   7.850  0.2300 -0.3083 -0.3044
  520loPI   C1B 8317   9.221   1.996   9.876 -0.0038 -0.0032  0.6063
  520loPI   C2B 8318   8.982   2.004   9.502 -0.1511 -0.3283  0.1923
  520loPI   C3B 8319   9.139   2.006   9.089  0.1043  0.0111  0.2139
  520loPI   C4B 8320   8.997   2.003   8.752 -0.2791 -0.2021 -0.0791
  521loPI    C1 8321   1.574   9.017  10.833 -0.2079  0.3799 -0.1310
  521loPI    C2 8322   1.199   8.884  10.784 -0.0451 -0.1922  0.0842
  521loPI    C3 8323   1.274   9.183  11.039 -0.3281 -0.2234  0.2073
  521loPI   PO4 8324   1.644   9.044  10.587  0.4263  0.0551 -0.1014
  521loPI   GL1 8325   1.615   9.162  10.208 -0.0475  0.2331  0.3633
  521loPI   GL2 8326   1.580   8.946   9.981  0.0392  0.2552  0.0450
  521loPI   C1A 8327   1.885   9.271   9.770 -0.0410 -0.0305  0.0337
  521loPI   C2A 8328   1.914   9.349   9.327  0.1265 -0.3467  0.0759
  521loPI   C3A 8329   1.886   9.344   8.795  0.0067  0.1451  0.0926
  521loPI   C4A 8330   2.091   9.397   8.401  0.3148 -0.4470  0.0832
  521loPI   C5A 8331   1.988   9.498   7.956  0.0808  0.1641 -0.0950
  521loPI   C6A 8332   1.881   9.483   7.544  0.1178  0.0640 -0.0413
  521loPI   C1B 8333   1.838   8.777   9.549 -0.1245  0.2588 -0.0372
  521loPI   C2B 8334   1.895   8.915   9.134  0.0673 -0.1063 -0.2052
  521loPI   C3B 8335   1.875   8.905   8.660 -0.0705 -0.0671 -0.0512
  521loPI   C4B 8336   1.884   8.821   8.224  0.1891  0.1098 -0.1013
  522loPI    C1 8337   2.281   0.956  11.303  0.2043 -0.0820 -0.1177
  522loPI    C2 8338   2.572   1.219  11.379  0.1140 -0.0283  0.0468
  522loPI    C3 8339   2.192   1.342  11.357  0.0878 -0.1211 -0.0254
  522loPI   PO4 8340   2.402   0.817  11.080  0.1059 -0.1475 -0.1551
  522loPI   GL1 8341   2.438   0.688  10.666 -0.3986 -0.3028 -0.2063
  522loPI   GL2 8342   2.587   0.990  10.502 -0.0906 -0.2004  0.0286
  522loPI   C1A 8343   2.427   0.447  10.286  0.0096  0.1369  0.0775
  522loPI   C2A 8344   2.382   0.355   9.911 -0.2977 -0.2569 -0.0752
  522loPI   C3A 8345   2.413   0.407   9.466 -0.2093  0.0584 -0.1268
  522loPI   C4A 8346   2.418   0.233   9.055 -0.0943 -0.0536  0.0263
  522loPI   C5A 8347   2.413   0.311   8.530  0.0279 -0.1805  0.1110
  522loPI   C6A 8348   2.627   0.343   8.115  0.1400  0.0051 -0.0797
  522loPI   C1B 8349   2.536   0.907  10.048 -0.3615 -0.0310  0.1983
  522loPI   C2B 8350   2.464   0.859   9.612 -0.2795 -0.0211  0.2011
  522loPI   C3B 8351   2.481   0.844   9.224  0.1027  0.0360  0.0646
  522loPI   C4B 8352   2.465   0.792   8.830 -0.0191  0.0807  0.0775
  523loPI    C1 8353  15.192  12.290  10.815 -0.0494  0.1065 -0.0374
  523loPI    C2 8354  15.262  12.682  10.859  0.1001  0.0741  0.0186
  523loPI    C3 8355  15.146  12.463  11.173  0.0861  0.0594  0.0033
  523loPI   PO4 8356  15.187  12.251  10.582 -0.3103 -0.2250 -0.2409
  523loPI   GL1 8357  15.211  12.331  10.127  0.0240  0.3711 -0.1924
  523loPI   GL2 8358  14.880  12.346  10.147 -0.0723  0.3086  0.4661
  523loPI   C1A 8359  15.310  12.486   9.678  0.0634 -0.0770 -0.0282
  523loPI   C2A 8360  15.379  12.597   9.375 -0.3234 -0.1839 -0.0776
  523loPI   C3A 8361  15.286  12.593   8.918 -0.1472 -0.0329 -0.0973
  523loPI   C4A 8362  15.243  12.558   8.633 -0.4390 -0.0893  0.3395
  523loPI   C5A 8363  15.139  12.633   8.185  0.3243 -0.1155  0.2221
  523loPI   C6A 8364  15.434  12.746   7.854 -0.0769 -0.3021 -0.0013
  523loPI   C1B 8365  14.819  12.434   9.687  0.0651  0.0896 -0.0206
  523loPI   C2B 8366  14.886  12.385   9.300  0.3553  0.2035  0.0453
  523loPI   C3B 8367  14.767  12.409   8.895  0.0405 -0.0485  0.0145
  523loPI   C4B 8368  14.782  12.487   8.534  0.0965 -0.0420 -0.0852
  524loPI    C1 8369   2.966   4.456  10.739  0.2285  0.0447 -0.0159
  524loPI    C2 8370   3.048   4.705  11.042 -0.0455  0.0961  0.0185
  524loPI    C3 8371   2.786   4.813  10.759 -0.1791 -0.1586  0.0419
  524loPI   PO4 8372   3.167   4.444  10.587  0.0432 -0.0689  0.0541
  524loPI   GL1 8373   3.189   4.241  10.280  0.0572 -0.2223  0.0614
  524loPI   GL2 8374   2.968   4.006  10.166 -0.0832 -0.2242  0.1428
  524loPI   C1A 8375   3.359   4.156   9.769 -0.1772  0.0587 -0.1204
  524loPI   C2A 8376   3.443   4.160   9.313  0.0925  0.0904  0.1732
  524loPI   C3A 8377   3.416   4.092   8.791  0.1302 -0.1838 -0.1453
  524loPI   C4A 8378   3.527   4.337   8.435 -0.1547  0.1144 -0.2797
  524loPI   C5A 8379   3.312   4.548   8.140  0.3478 -0.0901 -0.2327
  524loPI   C6A 8380   3.016   4.826   7.913 -0.1625 -0.0670 -0.1670
  524loPI   C1B 8381   2.859   3.961   9.718  0.0126 -0.0453 -0.1643
  524loPI   C2B 8382   2.929   3.941   9.331 -0.0082 -0.2987  0.1003
  524loPI   C3B 8383   2.982   3.875   8.817  0.3905  0.0350  0.0054
  524loPI   C4B 8384   3.073   3.924   8.411  0.1340 -0.0818 -0.1576
  525loPI    C1 8385  17.316  12.995  10.297  0.4854 -0.1076 -0.0782
  525loPI    C2 8386  17.314  12.958  10.695 -0.1034  0.1418 -0.0477
  525loPI    C3 8387  17.152  12.672  10.467  0.1353  0.0508 -0.1064
  525loPI   PO4 8388  17.483  13.113  10.250  0.0059 -0.1266  0.1555
  525loPI   GL1 8389  17.548  13.383   9.863 -0.2742  0.1494 -0.0705
  525loPI   GL2 8390  17.273  13.192   9.790 -0.1810  0.2506  0.0953
  525loPI   C1A 8391  17.698  13.579   9.523 -0.0760  0.2828  0.0013
  525loPI   C2A 8392  17.819  13.744   9.123 -0.0811  0.3041 -0.1280
  525loPI   C3A 8393  17.746  13.798   8.737 -0.0785  0.1000 -0.0272
  525loPI   C4A 8394  17.673  13.646   8.339  0.1637  0.1174  0.0795
  525loPI   C5A 8395  17.503  13.632   7.929  0.1920 -0.2152  0.2588
  525loPI   C6A 8396  17.341  13.774   7.517  0.0309 -0.2314 -0.1507
  525loPI   C1B 8397  17.283  13.387   9.393  0.0160  0.1802  0.1875
  525loPI   C2B 8398  17.237  13.478   8.916 -0.0612 -0.1017  0.2506
  525loPI   C3B 8399  17.335  13.372   8.526 -0.2747 -0.0493 -0.2104
  525loPI   C4B 8400  17.176  13.267   8.098 -0.1064  0.1278 -0.5892
  526loPI    C1 8401  13.040   0.773  10.829 -0.2521  0.4422 -0.0548
  526loPI    C2 8402  12.831   0.547  11.084 -0.0077  0.1682 -0.0925
  526loPI    C3 8403  12.902   0.931  11.170  0.2619  0.0243  0.3644
  526loPI   PO4 8404  12.905   0.668  10.593 -0.2039 -0.0806 -0.0003
  526loPI   GL1 8405  13.111   0.503  10.179 -0.0341 -0.0281 -0.0131
  526loPI   GL2 8406  13.099   0.756  10.137 -0.1421 -0.0493  0.0466
  526loPI   C1A 8407  13.001   0.294   9.773  0.0054 -0.0907 -0.0455
  526loPI   C2A 8408  13.007   0.166   9.236 -0.0065  0.1668  0.0553
  526loPI   C3A 8409  12.861   0.184   8.923 -0.0614 -0.2270  0.2334
  526loPI   C4A 8410  12.888   0.038   8.514 -0.0214  0.2493  0.0375
  526loPI   C5A 8411  12.912   0.253   8.185 -0.0599 -0.0944  0.2179
  526loPI   C6A 8412  12.953   0.622   8.032  0.1937  0.2166 -0.1563
  526loPI   C1B 8413  13.148   0.797   9.792  0.0823 -0.0663 -0.1376
  526loPI   C2B 8414  13.072   0.703   9.326 -0.0075 -0.4015 -0.2294
  526loPI   C3B 8415  13.089   0.611   8.948  0.0901  0.2088 -0.0347
  526loPI   C4B 8416  13.002   0.596   8.546 -0.0790 -0.1108 -0.0958
  527loPI    C1 8417  13.993   9.320  10.047 -0.2051  0.5251  0.1586
  527loPI    C2 8418  14.220   9.472   9.755 -0.0536  0.1615  0.0823
  527loPI    C3 8419  14.323   9.528  10.138  0.1472  0.0317  0.0491
  527loPI   PO4 8420  14.014   9.107   9.987 -0.0231  0.1010  0.1787
  527loPI   GL1 8421  14.185   9.010   9.595 -0.0633 -0.0571 -0.1844
  527loPI   GL2 8422  14.400   9.156   9.356  0.0286  0.2052 -0.3270
  527loPI   C1A 8423  14.162   8.742   9.215 -0.0002  0.3299  0.0890
  527loPI   C2A 8424  14.262   8.632   8.830  0.1507 -0.1379  0.1593
  527loPI   C3A 8425  14.270   8.741   8.471  0.2440  0.3366 -0.3262
  527loPI   C4A 8426  14.068   9.043   8.075 -0.1725  0.1769 -0.0488
  527loPI   C5A 8427  13.696   9.206   7.851 -0.3504  0.4633 -0.0960
  527loPI   C6A 8428  13.720   9.508   7.515 -0.1015 -0.2676  0.2092
  527loPI   C1B 8429  14.384   9.176   8.944  0.3098  0.1588 -0.0382
  527loPI   C2B 8430  14.501   9.111   8.648  0.1933 -0.2226  0.1496
  527loPI   C3B 8431  14.525   9.085   8.174 -0.0089 -0.0629  0.3656
  527loPI   C4B 8432  14.541   8.967   7.765  0.0977 -0.0820 -0.0086
  528loPI    C1 8433   9.931   6.816  10.259  0.0684  0.1536 -0.0073
  528loPI    C2 8434  10.139   6.475  10.282  0.0822  0.1604 -0.0299
  528loPI    C3 8435   9.871   6.566  10.565 -0.0543  0.0435 -0.1204
  528loPI   PO4 8436   9.859   6.850   9.999  0.0766 -0.4224 -0.4293
  528loPI   GL1 8437   9.635   6.669   9.683 -0.1794  0.3222  0.1281
  528loPI   GL2 8438   9.811   6.898   9.512 -0.1119  0.0895 -0.3850
  528loPI   C1A 8439   9.363   6.754   9.260  0.2220 -0.0357  0.0239
  528loPI   C2A 8440   9.310   6.564   8.799  0.1655 -0.2899  0.1894
  528loPI   C3A 8441   9.243   6.506   8.353 -0.0017 -0.0915  0.0204
  528loPI   C4A 8442   9.217   6.323   7.969  0.0471 -0.0186  0.0486
  528loPI   C5A 8443   9.085   6.263   7.558 -0.3842  0.0659 -0.1017
  528loPI   C6A 8444   9.405   5.979   7.240  0.0723 -0.1071 -0.0406
  528loPI   C1B 8445   9.885   6.841   9.097 -0.0409  0.4478 -0.0695
  528loPI   C2B 8446   9.838   6.773   8.682  0.4303 -0.0362 -0.0644
  528loPI   C3B 8447   9.928   6.775   8.230 -0.0671 -0.1071 -0.0362
  528loPI   C4B 8448   9.948   6.570   7.777 -0.0137 -0.4875 -0.0694
  529loPI    C1 8449  10.439  14.717  11.084 -0.0198  0.3016 -0.0731
  529loPI    C2 8450  10.171  14.978  11.226 -0.2491  0.0782 -0.0864
  529loPI    C3 8451  10.060  14.603  11.146  0.0358  0.0224 -0.2320
  529loPI   PO4 8452  10.518  14.799  10.852 -0.1084 -0.2596 -0.0981
  529loPI   GL1 8453  10.354  14.923  10.450 -0.1217 -0.0669  0.4984
  529loPI   GL2 8454  10.637  15.054  10.472 -0.0798 -0.0245  0.1342
  529loPI   C1A 8455  10.117  14.798  10.081 -0.2505  0.0714  0.0293
  529loPI   C2A 8456  10.131  15.014   9.641  0.1698  0.0376 -0.0934
  529loPI   C3A 8457  10.068  15.018   9.160  0.2002  0.3236  0.0855
  529loPI   C4A 8458  10.094  15.068   8.770  0.1052  0.2230  0.1100
  529loPI   C5A 8459  10.107  15.115   8.277  0.0746  0.0306 -0.2477
  529loPI   C6A 8460  10.261  14.931   7.877 -0.4410 -0.0065  0.1549
  529loPI   C1B 8461  10.600  15.061   9.979 -0.4730 -0.2526 -0.0466
  529loPI   C2B 8462  10.651  15.146   9.532  0.2235 -0.1808 -0.1839
  529loPI   C3B 8463  10.617  15.280   9.087 -0.0494  0.0997 -0.0607
  529loPI   C4B 8464  10.594  15.266   8.629 -0.3515  0.0928 -0.2265
  530loPI    C1 8465   6.374  11.354  10.827 -0.4148  0.1366 -0.1227
  530loPI    C2 8466   6.155  11.031  10.918  0.0026 -0.0991  0.0777
  530loPI    C3 8467   6.359  11.044  10.574  0.0990 -0.1096  0.1343
  530loPI   PO4 8468   6.204  11.572  10.841  0.0169  0.0166  0.3714
  530loPI   GL1 8469   6.023  11.686  10.501 -0.2052  0.0583  0.1335
  530loPI   GL2 8470   6.287  11.897  10.341 -0.1555  0.2818 -0.1344
  530loPI   C1A 8471   5.706  11.651  10.149  0.0462  0.2643 -0.1238
  530loPI   C2A 8472   5.513  11.699   9.801  0.1418  0.1528  0.1495
  530loPI   C3A 8473   5.493  11.627   9.340 -0.2106 -0.0221 -0.3047
  530loPI   C4A 8474   5.582  11.596   8.938 -0.0514 -0.0860 -0.3123
  530loPI   C5A 8475   5.757  11.599   8.492 -0.0596 -0.1637  0.3176
  530loPI   C6A 8476   5.835  11.840   8.082 -0.4673 -0.1416 -0.2583
  530loPI   C1B 8477   6.228  11.791   9.923 -0.0612  0.3886  0.0675
  530loPI   C2B 8478   5.984  11.886   9.648 -0.1067  0.2573  0.0758
  530loPI   C3B 8479   5.983  11.884   9.190  0.0273  0.1436  0.1405
  530loPI   C4B 8480   5.988  12.040   8.728 -0.0949  0.2307 -0.0442
  531loPI    C1 8481  14.343   6.624   9.789 -0.0203 -0.2239 -0.0160
  531loPI    C2 8482  14.181   6.425   9.482 -0.1002 -0.4100  0.1445
  531loPI    C3 8483  14.492   6.269   9.680  0.2069 -0.1086 -0.0877
  531loPI   PO4 8484  14.345   6.882   9.694  0.1822 -0.4293  0.0305
  531loPI   GL1 8485  14.132   6.985   9.336 -0.0992 -0.0415  0.1613
  531loPI   GL2 8486  13.848   7.013   9.457 -0.0865  0.2223 -0.0153
  531loPI   C1A 8487  14.065   7.194   9.064 -0.1300 -0.0904  0.2220
  531loPI   C2A 8488  13.924   7.192   8.648 -0.1132 -0.1723 -0.1000
  531loPI   C3A 8489  13.779   7.426   8.280  0.2270  0.1754  0.1433
  531loPI   C4A 8490  13.563   7.702   7.934 -0.1685 -0.2107 -0.3090
  531loPI   C5A 8491  13.165   7.898   7.789 -0.0571 -0.3422  0.1082
  531loPI   C6A 8492  12.787   7.941   7.426 -0.2027 -0.0943 -0.0336
  531loPI   C1B 8493  13.652   6.941   9.025  0.0624  0.0183  0.0261
  531loPI   C2B 8494  13.775   6.687   8.626  0.0723 -0.2946 -0.0450
  531loPI   C3B 8495  13.752   6.906   8.202 -0.1277  0.1401 -0.1406
  531loPI   C4B 8496  13.620   7.077   7.792  0.2291  0.2956  0.1307
  532loPI    C1 8497  15.139   8.451  10.046 -0.1734  0.0923 -0.0554
  532loPI    C2 8498  15.050   8.142  10.283 -0.0171  0.0628 -0.0344
  532loPI    C3 8499  14.810   8.234   9.977  0.0013 -0.1569 -0.1171
  532loPI   PO4 8500  15.434   8.350   9.907 -0.1616 -0.0713  0.1550
  532loPI   GL1 8501  15.492   8.427   9.471  0.0059  0.2576 -0.5758
  532loPI   GL2 8502  15.457   8.239   9.309 -0.2402  0.2735 -0.2708
  532loPI   C1A 8503  15.711   8.747   9.172  0.0759  0.1050  0.0060
  532loPI   C2A 8504  15.647   8.810   8.658  0.0463  0.1617 -0.0451
  532loPI   C3A 8505  15.532   9.092   8.337 -0.2582 -0.1370 -0.1073
  532loPI   C4A 8506  15.661   9.161   7.852  0.3879  0.2944  0.0528
  532loPI   C5A 8507  15.893   8.932   7.641 -0.2115 -0.0755  0.0600
  532loPI   C6A 8508  15.928   8.840   7.241 -0.0355  0.1221  0.1664
  532loPI   C1B 8509  15.580   8.291   8.913 -0.1201  0.0131 -0.2484
  532loPI   C2B 8510  15.718   8.194   8.498  0.1448  0.4114  0.3701
  532loPI   C3B 8511  15.682   8.147   8.038 -0.1154 -0.1659  0.1062
  532loPI   C4B 8512  15.304   8.143   7.826  0.1911 -0.0107  0.1262
  533loPI    C1 8513  15.607  14.469  10.956 -0.2342 -0.1814 -0.1274
  533loPI    C2 8514  15.773  14.111  10.893 -0.1059 -0.1113 -0.1916
  533loPI    C3 8515  15.581  14.184  11.236  0.2001 -0.1181 -0.0155
  533loPI   PO4 8516  15.594  14.507  10.609 -0.3768  0.2101  0.0876
  533loPI   GL1 8517  15.681  14.176  10.302  0.2466  0.0758  0.2935
  533loPI   GL2 8518  15.518  14.250  10.140  0.2806 -0.0980 -0.1037
  533loPI   C1A 8519  15.979  14.275   9.944 -0.0893 -0.0851  0.1144
  533loPI   C2A 8520  15.960  14.390   9.535 -0.2621  0.2178  0.0610
  533loPI   C3A 8521  16.122  14.358   9.141 -0.0923 -0.2637  0.0034
  533loPI   C4A 8522  16.002  14.376   8.652 -0.0865 -0.1372  0.4586
  533loPI   C5A 8523  15.901  14.529   8.215  0.1373  0.0143 -0.1868
  533loPI   C6A 8524  15.707  14.853   8.081  0.0692 -0.3244  0.2311
  533loPI   C1B 8525  15.469  14.311   9.677  0.1500  0.2347 -0.0433
  533loPI   C2B 8526  15.499  14.186   9.244  0.1691  0.0526 -0.1041
  533loPI   C3B 8527  15.469  14.136   8.876  0.0291  0.0759 -0.0072
  533loPI   C4B 8528  15.539  14.133   8.400  0.2069  0.1898 -0.0861
  534loPI    C1 8529  11.256   0.150  10.895 -0.1014  0.1945 -0.0802
  534loPI    C2 8530  11.477   0.460  11.020  0.1060  0.0235 -0.0164
  534loPI    C3 8531  11.125   0.381  11.194  0.0551  0.2183 -0.0290
  534loPI   PO4 8532  11.245   0.167  10.602 -0.2064 -0.2842  0.2098
  534loPI   GL1 8533  10.995   0.409  10.222 -0.1964 -0.2397  0.1001
  534loPI   GL2 8534  10.652   0.358  10.303 -0.1457  0.1085  0.1597
  534loPI   C1A 8535  11.093   0.451   9.814 -0.3906  0.2070 -0.1911
  534loPI   C2A 8536  11.286   0.429   9.316  0.4383  0.0404  0.0412
  534loPI   C3A 8537  11.184   0.443   8.907 -0.1632 -0.3553 -0.1165
  534loPI   C4A 8538  11.222   0.433   8.486  0.1917  0.1023  0.0506
  534loPI   C5A 8539  11.405   0.679   8.059  0.0206 -0.2954 -0.1165
  534loPI   C6A 8540  11.326   0.927   7.723  0.0614  0.2925 -0.0947
  534loPI   C1B 8541  10.615   0.291   9.883  0.1534  0.1240 -0.0535
  534loPI   C2B 8542  10.600   0.165   9.471 -0.2792  0.2938  0.3125
  534loPI   C3B 8543  10.721   0.171   8.980 -0.3230 -0.0790 -0.0043
  534loPI   C4B 8544  10.658   0.141   8.530 -0.0145  0.0675 -0.0343
  535loPI    C1 8545  12.412   1.457  10.564 -0.1600  0.0993 -0.1601
  535loPI    C2 8546  12.524   1.244  10.883  0.1150  0.1473 -0.2214
  535loPI    C3 8547  12.339   1.595  10.932  0.0560  0.1022 -0.1167
  535loPI   PO4 8548  12.580   1.468  10.245 -0.3757 -0.2460  0.1069
  535loPI   GL1 8549  12.854   1.187  10.046 -0.1267 -0.1159 -0.2178
  535loPI   GL2 8550  13.198   1.202  10.053 -0.3622 -0.0114 -0.3837
  535loPI   C1A 8551  12.659   1.059   9.786  0.0656 -0.1649 -0.0878
  535loPI   C2A 8552  12.640   0.992   9.314 -0.0508  0.4046  0.1291
  535loPI   C3A 8553  12.649   0.866   8.814 -0.0704 -0.1310 -0.0636
  535loPI   C4A 8554  12.788   0.941   8.357  0.3066 -0.0311  0.1395
  535loPI   C5A 8555  12.904   1.091   7.904 -0.0497  0.0660 -0.0975
  535loPI   C6A 8556  13.036   0.845   7.538 -0.1642 -0.0358 -0.1538
  535loPI   C1B 8557  13.295   1.287   9.685 -0.0982 -0.0669 -0.2962
  535loPI   C2B 8558  13.159   1.170   9.261 -0.0444 -0.1344 -0.1891
  535loPI   C3B 8559  13.071   1.143   8.764  0.2021  0.4292 -0.2504
  535loPI   C4B 8560  13.267   1.023   8.354  0.2073 -0.2093 -0.2621
  536loPI    C1 8561  16.444   8.458  10.110 -0.1504 -0.0924  0.0515
  536loPI    C2 8562  16.544   8.709  10.406 -0.0331  0.1620 -0.1989
  536loPI    C3 8563  16.170   8.570  10.379 -0.0238  0.0690  0.1150
  536loPI   PO4 8564  16.678   8.497   9.951  0.2429  0.2044  0.1569
  536loPI   GL1 8565  17.029   8.359   9.893  0.0331 -0.1592  0.3442
  536loPI   GL2 8566  17.313   8.331   9.681 -0.0058  0.3124  0.1227
  536loPI   C1A 8567  16.915   8.154   9.371 -0.3444  0.3117  0.1993
  536loPI   C2A 8568  17.282   8.224   9.011 -0.1998  0.0202 -0.0029
  536loPI   C3A 8569  17.449   8.224   8.628 -0.1903  0.1055  0.1273
  536loPI   C4A 8570  17.363   8.157   8.288  0.1653 -0.1306 -0.2037
  536loPI   C5A 8571  17.464   7.860   7.924 -0.2285  0.0668  0.1864
  536loPI   C6A 8572  17.090   7.753   7.664  0.0434 -0.1099 -0.3685
  536loPI   C1B 8573  17.299   8.578   9.382 -0.1044 -0.1508  0.1889
  536loPI   C2B 8574  17.411   8.734   8.889  0.3840  0.2866 -0.3017
  536loPI   C3B 8575  17.571   8.669   8.605  0.0526 -0.0286 -0.0334
  536loPI   C4B 8576  17.649   8.601   8.198 -0.0290 -0.2524  0.1694
  537loPI    C1 8577   4.540   4.794  10.764 -0.3321 -0.0907 -0.0470
  537loPI    C2 8578   4.317   4.692  11.079 -0.3102 -0.0861 -0.0299
  537loPI    C3 8579   4.674   4.864  11.134 -0.2906 -0.1182 -0.0567
  537loPI   PO4 8580   4.460   4.881  10.600  0.0708  0.1813  0.0515
  537loPI   GL1 8581   4.308   5.049  10.338 -0.0326  0.0367 -0.0580
  537loPI   GL2 8582   4.425   5.312  10.302 -0.0684 -0.1095 -0.0186
  537loPI   C1A 8583   4.069   4.876  10.046 -0.1208  0.0191 -0.1036
  537loPI   C2A 8584   3.944   4.883   9.630  0.1986  0.0574 -0.1548
  537loPI   C3A 8585   3.976   4.906   9.158 -0.3505 -0.2407  0.1926
  537loPI   C4A 8586   3.983   4.803   8.710  0.3510 -0.2639 -0.0936
  537loPI   C5A 8587   3.846   4.647   8.270 -0.2537  0.0982  0.0912
  537loPI   C6A 8588   3.965   4.519   7.995  0.0646  0.2705 -0.1131
  537loPI   C1B 8589   4.435   5.068   9.866 -0.2422  0.0902 -0.0684
  537loPI   C2B 8590   4.397   5.038   9.381  0.1747 -0.2118  0.1865
  537loPI   C3B 8591   4.416   5.033   8.951  0.0676  0.0742 -0.2811
  537loPI   C4B 8592   4.447   4.966   8.466  0.1960  0.1401 -0.1203
  538loPI    C1 8593   4.848   7.414  10.715  0.0306 -0.2329  0.3268
  538loPI    C2 8594   4.671   7.682  10.954  0.3519  0.1204  0.1797
  538loPI    C3 8595   5.025   7.526  11.056  0.2623 -0.0954  0.1651
  538loPI   PO4 8596   4.802   7.464  10.479  0.1043  0.2132  0.1327
  538loPI   GL1 8597   4.750   7.546  10.068 -0.2737  0.2567  0.3369
  538loPI   GL2 8598   4.978   7.587   9.784  0.2110  0.0434  0.1372
  538loPI   C1A 8599   4.449   7.427   9.783  0.3917  0.0088 -0.0362
  538loPI   C2A 8600   4.368   7.385   9.370  0.1508 -0.0435  0.0090
  538loPI   C3A 8601   4.361   7.435   8.957  0.1797  0.2084  0.2026
  538loPI   C4A 8602   4.443   7.299   8.618  0.1527  0.0981 -0.0750
  538loPI   C5A 8603   4.482   7.360   8.200  0.0563 -0.2224 -0.1713
  538loPI   C6A 8604   4.796   7.214   7.786 -0.3405 -0.0141  0.1080
  538loPI   C1B 8605   4.963   7.735   9.404 -0.1428  0.3262 -0.0139
  538loPI   C2B 8606   4.975   7.721   8.935 -0.2879 -0.0404 -0.0778
  538loPI   C3B 8607   4.878   7.544   8.542  0.0768  0.1974  0.1594
  538loPI   C4B 8608   4.892   7.635   8.133  0.0864 -0.1415 -0.0165
  539loPI    C1 8609   0.338   6.706  10.500 -0.2928  0.0625 -0.0555
  539loPI    C2 8610   0.343   6.636  10.894  0.0100  0.1483 -0.0415
  539loPI    C3 8611   0.319   7.011  10.758 -0.0901  0.1190 -0.1060
  539loPI   PO4 8612   0.542   6.540  10.382 -0.0347 -0.0354 -0.0267
  539loPI   GL1 8613   0.614   6.430   9.989 -0.3366  0.0474  0.1355
  539loPI   GL2 8614   0.862   6.649   9.947 -0.1147 -0.1667  0.1104
  539loPI   C1A 8615   0.605   6.441   9.521 -0.1114 -0.2054  0.2075
  539loPI   C2A 8616   0.654   6.395   9.083 -0.2079 -0.2373 -0.1586
  539loPI   C3A 8617   0.638   6.375   8.599  0.0152 -0.3232  0.0543
  539loPI   C4A 8618   0.725   6.396   8.150  0.0641  0.0351  0.0096
  539loPI   C5A 8619   0.751   6.676   7.857 -0.0673 -0.3026 -0.3832
  539loPI   C6A 8620   0.770   7.087   7.842  0.1302  0.3476  0.1141
  539loPI   C1B 8621   1.048   6.639   9.589  0.2744  0.3490 -0.0563
  539loPI   C2B 8622   1.099   6.587   9.207  0.3210  0.0758 -0.2490
  539loPI   C3B 8623   1.105   6.496   8.705  0.0718 -0.0315 -0.3061
  539loPI   C4B 8624   1.167   6.575   8.309 -0.0713 -0.1807  0.0812
  540loPI    C1 8625  13.580   5.220  10.037  0.1301 -0.1507  0.1707
  540loPI    C2 8626  13.804   5.457  10.268  0.2282 -0.0956  0.0205
  540loPI    C3 8627  13.411   5.427  10.335  0.2304  0.0386  0.0978
  540loPI   PO4 8628  13.620   5.306   9.779 -0.1733 -0.1466  0.3731
  540loPI   GL1 8629  13.449   5.552   9.469  0.0559 -0.0794 -0.3479
  540loPI   GL2 8630  13.303   5.894   9.454  0.0638 -0.0119 -0.4497
  540loPI   C1A 8631  13.493   5.592   8.991  0.0728  0.0323  0.0579
  540loPI   C2A 8632  13.402   5.816   8.512  0.0782  0.0740 -0.4269
  540loPI   C3A 8633  13.374   5.944   8.078  0.0443 -0.1077 -0.3582
  540loPI   C4A 8634  13.422   5.628   7.761 -0.1494  0.2329  0.0465
  540loPI   C5A 8635  13.373   5.433   7.300  0.2258  0.1729 -0.2143
  540loPI   C6A 8636  13.011   5.128   7.138  0.2509 -0.1024 -0.0217
  540loPI   C1B 8637  13.308   6.088   9.088 -0.1377  0.0210  0.0949
  540loPI   C2B 8638  13.438   6.251   8.726  0.2557 -0.2972 -0.1928
  540loPI   C3B 8639  13.580   6.439   8.232  0.2844 -0.0485  0.0861
  540loPI   C4B 8640  13.612   6.529   7.781 -0.1070 -0.1988 -0.2434
  541loPI    C1 8641  16.311   2.707  10.747 -0.1327 -0.1757 -0.3346
  541loPI    C2 8642  15.962   2.867  10.637 -0.2162  0.0577  0.2319
  541loPI    C3 8643  15.968   2.519  10.833 -0.1032 -0.1105 -0.0638
  541loPI   PO4 8644  16.536   2.831  10.492 -0.0185  0.0153  0.1417
  541loPI   GL1 8645  16.597   2.691  10.045  0.1862  0.0117 -0.1827
  541loPI   GL2 8646  16.581   2.982   9.890 -0.0106 -0.1003  0.0793
  541loPI   C1A 8647  16.556   2.529   9.632  0.0705 -0.1694  0.0222
  541loPI   C2A 8648  16.719   2.496   9.178  0.0256 -0.3293  0.1767
  541loPI   C3A 8649  16.737   2.515   8.720  0.1549 -0.0910  0.1819
  541loPI   C4A 8650  16.757   2.498   8.215  0.3859 -0.0646  0.0982
  541loPI   C5A 8651  16.905   2.281   7.866  0.0462 -0.0959 -0.1263
  541loPI   C6A 8652  17.040   1.879   7.777 -0.0984  0.1035  0.4634
  541loPI   C1B 8653  16.576   3.070   9.496  0.3495  0.3214  0.0596
  541loPI   C2B 8654  16.670   3.145   9.094 -0.3457 -0.1108 -0.0777
  541loPI   C3B 8655  16.683   3.025   8.749 -0.4334 -0.1764  0.1670
  541loPI   C4B 8656  16.808   2.982   8.268  0.2488  0.2056  0.0020
  542loPI    C1 8657   5.571  17.781  11.376 -0.0151 -0.0432  0.0958
  542loPI    C2 8658   5.175  17.728  11.405 -0.0210 -0.0269  0.0442
  542loPI    C3 8659   5.343  18.063  11.546  0.0012 -0.1271  0.2583
  542loPI   PO4 8660   5.781  17.723  11.161 -0.2247 -0.2809  0.1142
  542loPI   GL1 8661   5.778  17.783  10.681 -0.1697  0.4041 -0.0500
  542loPI   GL2 8662   5.410  17.503  10.556  0.0730 -0.0613  0.0423
  542loPI   C1A 8663   6.032  17.803  10.297 -0.0845  0.1248 -0.0084
  542loPI   C2A 8664   5.959  17.770   9.913 -0.2696  0.1789  0.2151
  542loPI   C3A 8665   6.019  17.752   9.484  0.2573  0.1165  0.2410
  542loPI   C4A 8666   5.985  17.736   9.079  0.0714 -0.0306 -0.1693
  542loPI   C5A 8667   6.036  17.811   8.602  0.4837 -0.3352 -0.0081
  542loPI   C6A 8668   5.990  17.574   8.162  0.1925  0.1950 -0.1487
  542loPI   C1B 8669   5.492  17.596  10.104  0.0260  0.1094 -0.0407
  542loPI   C2B 8670   5.449  17.550   9.625  0.0054 -0.0908  0.1316
  542loPI   C3B 8671   5.574  17.560   9.239  0.2477  0.0914  0.0647
  542loPI   C4B 8672   5.538  17.518   8.872 -0.4662  0.1140 -0.2800
  543loPI    C1 8673   4.558  16.278  11.533  0.0924  0.0913 -0.0449
  543loPI    C2 8674   4.454  15.967  11.762 -0.0012  0.0004 -0.2089
  543loPI    C3 8675   4.248  16.309  11.783  0.1365  0.0717  0.0125
  543loPI   PO4 8676   4.577  16.151  11.258  0.1487 -0.0193 -0.4312
  543loPI   GL1 8677   4.535  15.990  10.767 -0.0938  0.2225  0.1941
  543loPI   GL2 8678   4.621  15.832  10.599  0.0295  0.0007 -0.1863
  543loPI   C1A 8679   4.363  16.176  10.350 -0.0577 -0.2565  0.1613
  543loPI   C2A 8680   4.357  16.187   9.941 -0.2722  0.1102 -0.2890
  543loPI   C3A 8681   4.219  16.174   9.559 -0.0602 -0.4373 -0.1040
  543loPI   C4A 8682   4.324  15.998   9.259 -0.1619  0.1013 -0.3353
  543loPI   C5A 8683   4.382  16.065   8.884  0.2182  0.0589 -0.0370
  543loPI   C6A 8684   4.370  16.267   8.414  0.1276 -0.0568  0.2069
  543loPI   C1B 8685   4.710  15.819  10.139  0.3049  0.3621 -0.0215
  543loPI   C2B 8686   4.668  15.779   9.614 -0.1854  0.2181  0.1171
  543loPI   C3B 8687   4.762  15.680   9.086  0.0929  0.2042 -0.4689
  543loPI   C4B 8688   4.772  15.786   8.626 -0.0190 -0.0590  0.0443
  544loPI    C1 8689   2.438   7.369  10.751  0.0460 -0.1987  0.1449
  544loPI    C2 8690   2.248   7.647  10.967  0.0629  0.0236 -0.1205
  544loPI    C3 8691   2.643   7.600  11.005  0.0075 -0.2202  0.1958
  544loPI   PO4 8692   2.459   7.403  10.488  0.0053 -0.2234 -0.1578
  544loPI   GL1 8693   2.717   7.129  10.301  0.0012 -0.1590 -0.1227
  544loPI   GL2 8694   2.800   6.940  10.062  0.4113  0.0837 -0.1252
  544loPI   C1A 8695   2.929   7.350   9.760  0.2082  0.1656 -0.3057
  544loPI   C2A 8696   3.037   7.384   9.347  0.0885  0.3442  0.0165
  544loPI   C3A 8697   3.050   7.370   8.933  0.2731 -0.0854  0.2928
  544loPI   C4A 8698   2.990   7.304   8.436 -0.1992  0.1913 -0.0979
  544loPI   C5A 8699   2.783   7.243   8.141  0.0018 -0.0275 -0.0300
  544loPI   C6A 8700   2.423   7.350   8.003  0.2865 -0.1018  0.2339
  544loPI   C1B 8701   2.921   6.866   9.635 -0.0461  0.0343  0.1605
  544loPI   C2B 8702   3.050   6.881   9.285 -0.0409  0.0132 -0.0873
  544loPI   C3B 8703   2.937   6.865   8.892 -0.0548  0.0250 -0.0491
  544loPI   C4B 8704   3.048   6.796   8.459  0.1735  0.0575 -0.2802
  545loPI    C1 8705   0.230  15.179  10.892 -0.4666 -0.1475  0.0084
  545loPI    C2 8706   0.279  15.443  11.188  0.1380 -0.0380 -0.1761
  545loPI    C3 8707   0.426  15.073  11.224 -0.1192 -0.1434 -0.1905
  545loPI   PO4 8708   0.203  15.347  10.626 -0.0480 -0.0684 -0.1015
  545loPI   GL1 8709   0.205  15.670  10.350 -0.4741  0.2909  0.1894
  545loPI   GL2 8710   0.063  15.894  10.427  0.2182 -0.0971  0.0968
  545loPI   C1A 8711   0.131  15.827   9.887  0.0101 -0.1573  0.0049
  545loPI   C2A 8712   0.197  15.850   9.439 -0.2126  0.0028  0.0813
  545loPI   C3A 8713   0.189  15.809   8.974 -0.1199 -0.1486  0.0556
  545loPI   C4A 8714   0.198  15.916   8.516  0.1462 -0.0104 -0.0008
  545loPI   C5A 8715   0.088  16.257   8.279  0.0967  0.0758  0.1877
  545loPI   C6A 8716   0.351  16.430   7.914  0.2047  0.1485  0.2059
  545loPI   C1B 8717   0.267  16.222  10.094  0.1225  0.1974  0.3105
  545loPI   C2B 8718   0.216  16.391   9.631 -0.1559 -0.2198  0.1937
  545loPI   C3B 8719   0.343  16.362   9.207  0.1431 -0.2037  0.3831
  545loPI   C4B 8720   0.317  16.341   8.738  0.1115  0.1764  0.1039
  546loPI    C1 8721   6.570  17.241  11.406  0.2554 -0.0336  0.0074
  546loPI    C2 8722   6.855  17.504  11.502  0.3488 -0.0961 -0.0960
  546loPI    C3 8723   6.729  17.238  11.773  0.2820  0.0287 -0.0034
  546loPI   PO4 8724   6.561  17.260  11.151 -0.1503  0.2531 -0.3312
  546loPI   GL1 8725   6.665  17.324  10.648  0.2477 -0.2790 -0.1844
  546loPI   GL2 8726   6.894  17.144  10.462 -0.0450 -0.0073 -0.2844
  546loPI   C1A 8727   6.343  17.452  10.354 -0.1149  0.2926 -0.0480
  546loPI   C2A 8728   6.238  17.410   9.987  0.1187  0.1600 -0.1281
  546loPI   C3A 8729   6.388  17.375   9.503  0.3664 -0.0089 -0.0159
  546loPI   C4A 8730   6.346  17.407   9.116 -0.2108  0.2438  0.0658
  546loPI   C5A 8731   6.379  17.499   8.552  0.1292 -0.0921  0.3018
  546loPI   C6A 8732   6.581  17.333   8.113 -0.4773 -0.0436 -0.0807
  546loPI   C1B 8733   6.732  17.000  10.054 -0.3825  0.1468 -0.5125
  546loPI   C2B 8734   6.786  17.003   9.537  0.0060 -0.0491  0.0195
  546loPI   C3B 8735   6.798  17.001   9.134 -0.1113  0.1926  0.0587
  546loPI   C4B 8736   6.616  17.022   8.849 -0.0715 -0.1174  0.0032
  547loPI    C1 8737  16.551  12.614  10.453 -0.1569 -0.2238  0.0439
  547loPI    C2 8738  16.780  12.414  10.714 -0.1125  0.0356  0.2073
  547loPI    C3 8739  16.382  12.384  10.733 -0.1114  0.1065  0.3494
  547loPI   PO4 8740  16.615  12.542  10.233 -0.0528  0.0596 -0.0219
  547loPI   GL1 8741  16.711  12.653   9.899  0.0275  0.0905  0.1721
  547loPI   GL2 8742  17.053  12.790   9.911 -0.1470 -0.0630 -0.0257
  547loPI   C1A 8743  16.660  12.716   9.447  0.0375  0.2732 -0.1455
  547loPI   C2A 8744  16.744  12.766   9.053  0.2749  0.3012 -0.0255
  547loPI   C3A 8745  16.688  12.766   8.536 -0.0070 -0.2493 -0.1212
  547loPI   C4A 8746  16.845  12.787   8.185 -0.0151  0.2210 -0.2978
  547loPI   C5A 8747  16.799  12.527   7.800 -0.1899  0.0093 -0.0094
  547loPI   C6A 8748  16.599  12.408   7.456 -0.1403  0.0358 -0.1759
  547loPI   C1B 8749  17.234  12.774   9.526 -0.2692 -0.0258 -0.2908
  547loPI   C2B 8750  17.183  12.882   9.163  0.1229 -0.1345  0.3191
  547loPI   C3B 8751  17.189  12.977   8.759  0.0745 -0.1612 -0.1262
  547loPI   C4B 8752  17.336  12.836   8.259  0.0271  0.1796 -0.3485
  548loPI    C1 8753  17.763   7.092  10.916 -0.0130  0.0964  0.1411
  548loPI    C2 8754  17.540   7.424  10.909 -0.1904 -0.0243 -0.0726
  548loPI    C3 8755  17.781   7.351  11.220 -0.3794  0.1535  0.1186
  548loPI   PO4 8756  17.862   7.089  10.602 -0.2480  0.4149  0.1575
  548loPI   GL1 8757  17.812   6.883  10.162  0.0912 -0.1553  0.2056
  548loPI   GL2 8758  17.977   7.170  10.090  0.0730 -0.1712 -0.0802
  548loPI   C1A 8759  17.655   6.814   9.750 -0.2300 -0.1207 -0.1629
  548loPI   C2A 8760  17.668   6.840   9.345  0.2393 -0.1771 -0.1547
  548loPI   C3A 8761  17.705   6.928   8.954  0.1251  0.2926  0.0692
  548loPI   C4A 8762  17.632   6.831   8.683 -0.1274  0.0310  0.3014
  548loPI   C5A 8763  17.616   6.792   8.209 -0.0420 -0.0493  0.1753
  548loPI   C6A 8764  17.367   7.016   7.922  0.0680 -0.1624  0.0009
  548loPI   C1B 8765  18.053   7.130   9.641 -0.0747  0.0296 -0.1014
  548loPI   C2B 8766  18.161   7.026   9.255 -0.1515 -0.0825 -0.1763
  548loPI   C3B 8767  18.179   7.016   8.832 -0.1623 -0.0783  0.3607
  548loPI   C4B 8768  18.137   7.053   8.382  0.0731 -0.3216 -0.0747
  549loPI    C1 8769  14.321   1.055  10.743  0.1258  0.2208  0.0218
  549loPI    C2 8770  13.960   1.032  10.572  0.0137 -0.0915  0.2904
  549loPI    C3 8771  13.999   1.192  10.937  0.2230  0.3887  0.0663
  549loPI   PO4 8772  14.508   1.138  10.625  0.1133  0.1056 -0.0834
  549loPI   GL1 8773  14.457   1.122  10.256 -0.4147 -0.2178 -0.0764
  549loPI   GL2 8774  14.387   0.799  10.269 -0.0595  0.0829  0.0149
  549loPI   C1A 8775  14.510   1.192   9.816 -0.1556 -0.1595 -0.1299
  549loPI   C2A 8776  14.531   1.297   9.400 -0.0707  0.4103 -0.3489
  549loPI   C3A 8777  14.466   1.187   8.924  0.1680  0.0400 -0.0005
  549loPI   C4A 8778  14.458   1.268   8.464  0.1927  0.2282  0.2052
  549loPI   C5A 8779  14.421   1.541   8.112 -0.0389  0.4161  0.1951
  549loPI   C6A 8780  14.389   1.755   7.662  0.2754 -0.2291 -0.0229
  549loPI   C1B 8781  14.397   0.637   9.774 -0.1113  0.0051 -0.0167
  549loPI   C2B 8782  14.413   0.660   9.285 -0.2639 -0.2576  0.0754
  549loPI   C3B 8783  14.490   0.704   8.873 -0.1209 -0.2425 -0.1908
  549loPI   C4B 8784  14.458   0.708   8.395 -0.1638  0.1216  0.5441
  550loPI    C1 8785  10.191   2.948  10.652 -0.0585  0.0168  0.0248
  550loPI    C2 8786  10.142   3.343  10.683 -0.0239  0.0108  0.1650
  550loPI    C3 8787  10.009   3.102  10.973 -0.0652 -0.0823  0.0693
  550loPI   PO4 8788  10.043   2.812  10.350 -0.2059 -0.0057 -0.0248
  550loPI   GL1 8789  10.113   2.830   9.952 -0.2509  0.1564  0.0409
  550loPI   GL2 8790   9.853   3.025   9.940  0.1476  0.0492  0.3131
  550loPI   C1A 8791  10.121   2.521   9.601  0.1569  0.2000  0.3492
  550loPI   C2A 8792  10.086   2.354   9.186  0.4569  0.1914 -0.3467
  550loPI   C3A 8793   9.945   2.407   8.804 -0.0703 -0.1768  0.3393
  550loPI   C4A 8794   9.928   2.362   8.438  0.1020  0.1178 -0.3679
  550loPI   C5A 8795  10.024   2.318   8.119  0.1242 -0.0948 -0.2080
  550loPI   C6A 8796   9.697   2.232   7.751 -0.1606 -0.0715 -0.4085
  550loPI   C1B 8797   9.666   2.696   9.563  0.1947 -0.0180 -0.1163
  550loPI   C2B 8798   9.638   2.739   9.143  0.2342 -0.0393  0.1561
  550loPI   C3B 8799   9.551   2.633   8.672  0.1879 -0.1002 -0.0686
  550loPI   C4B 8800   9.495   2.667   8.239 -0.2033  0.3676  0.1633
  551loPI    C1 8801   9.941  17.277  11.225 -0.0897  0.0814  0.0177
  551loPI    C2 8802  10.087  17.133  11.568  0.2486  0.2103 -0.0675
  551loPI    C3 8803   9.742  16.993  11.422  0.2380 -0.0366  0.1864
  551loPI   PO4 8804  10.107  17.260  11.041  0.1655  0.0396  0.0650
  551loPI   GL1 8805   9.954  17.174  10.551 -0.4242  0.2671  0.1123
  551loPI   GL2 8806   9.995  17.538  10.497  0.2655 -0.0383 -0.0019
  551loPI   C1A 8807   9.987  17.024  10.131 -0.1360  0.1979  0.1869
  551loPI   C2A 8808  10.014  16.928   9.764  0.2242 -0.3239  0.4636
  551loPI   C3A 8809   9.919  16.905   9.375  0.2029  0.3620 -0.1678
  551loPI   C4A 8810   9.937  16.872   8.956 -0.0990  0.2704 -0.0446
  551loPI   C5A 8811   9.933  16.920   8.518  0.1194  0.0348 -0.0517
  551loPI   C6A 8812   9.708  16.735   8.255  0.0904  0.0891  0.2192
  551loPI   C1B 8813  10.063  17.503  10.087  0.3545  0.0418 -0.1371
  551loPI   C2B 8814  10.068  17.465   9.659 -0.2963  0.0104  0.1835
  551loPI   C3B 8815  10.140  17.317   9.192 -0.1938 -0.2861 -0.0048
  551loPI   C4B 8816  10.083  17.305   8.759 -0.2540 -0.2338  0.1050
  552loPI    C1 8817   6.868   2.405  11.314 -0.0298 -0.1696 -0.0157
  552loPI    C2 8818   7.123   2.100  11.354 -0.1093 -0.2431 -0.0668
  552loPI    C3 8819   6.894   2.211  11.663 -0.0659 -0.2220 -0.0421
  552loPI   PO4 8820   6.834   2.249  10.957 -0.0525 -0.1072 -0.1620
  552loPI   GL1 8821   6.849   2.179  10.538 -0.1355  0.1629 -0.0411
  552loPI   GL2 8822   7.117   2.333  10.513 -0.1621  0.1150  0.1784
  552loPI   C1A 8823   6.846   2.264  10.096  0.0808 -0.0011 -0.0080
  552loPI   C2A 8824   6.732   2.131   9.725 -0.3870  0.2054 -0.0196
  552loPI   C3A 8825   6.852   2.132   9.326 -0.1735 -0.1173  0.3181
  552loPI   C4A 8826   6.861   1.962   8.954 -0.2655  0.2343  0.1332
  552loPI   C5A 8827   7.019   2.137   8.580 -0.0969  0.1504  0.1098
  552loPI   C6A 8828   7.285   2.358   8.230 -0.1767 -0.1710  0.1777
  552loPI   C1B 8829   7.219   1.949  10.107  0.2636  0.2247 -0.0693
  552loPI   C2B 8830   7.169   1.855   9.688  0.0064  0.2455  0.0221
  552loPI   C3B 8831   7.135   1.703   9.272  0.0346 -0.2376  0.2326
  552loPI   C4B 8832   7.241   1.725   8.756  0.0288  0.1873 -0.1063
  553loPI    C1 8833   0.209  11.973  10.928 -0.1210 -0.0139  0.0117
  553loPI    C2 8834   0.560  12.064  11.099 -0.1268 -0.1335  0.0889
  553loPI    C3 8835   0.329  11.778  11.256 -0.0864 -0.3157 -0.1769
  553loPI   PO4 8836   0.113  12.279  10.802  0.1550 -0.0867 -0.1940
  553loPI   GL1 8837   0.114  12.392  10.414 -0.2110  0.0299  0.1670
  553loPI   GL2 8838   0.387  12.478  10.208  0.0925  0.0862  0.1267
  553loPI   C1A 8839   0.099  12.382   9.805 -0.0081 -0.1978 -0.0611
  553loPI   C2A 8840   0.070  12.397   9.376  0.2432  0.0567 -0.2491
  553loPI   C3A 8841   0.024  12.417   8.937  0.1657 -0.1253  0.0269
  553loPI   C4A 8842   0.138  12.517   8.469  0.2287 -0.0028  0.0764
  553loPI   C5A 8843   0.193  12.816   8.067  0.0396 -0.1839 -0.0072
  553loPI   C6A 8844   0.116  13.248   7.973  0.1715  0.2591 -0.0444
  553loPI   C1B 8845   0.570  12.657   9.772  0.4863 -0.1258  0.1471
  553loPI   C2B 8846   0.587  12.571   9.339  0.0590 -0.1731 -0.1229
  553loPI   C3B 8847   0.622  12.671   8.841 -0.0618  0.2456  0.2875
  553loPI   C4B 8848   0.640  12.708   8.344  0.1666 -0.0665 -0.4483
  554loPI    C1 8849   2.422   5.515  10.718  0.0761 -0.0393 -0.0747
  554loPI    C2 8850   2.479   5.809  10.983 -0.1787 -0.0882  0.0373
  554loPI    C3 8851   2.546   5.429  11.089 -0.2621 -0.1062  0.0261
  554loPI   PO4 8852   2.379   5.635  10.521 -0.2058  0.0568 -0.0318
  554loPI   GL1 8853   2.435   5.616  10.022 -0.2140  0.0047 -0.5434
  554loPI   GL2 8854   2.710   5.398   9.908  0.3859 -0.3592  0.2699
  554loPI   C1A 8855   2.225   5.637   9.621  0.2674 -0.2712 -0.0563
  554loPI   C2A 8856   2.313   5.501   9.235  0.1051 -0.1987  0.1547
  554loPI   C3A 8857   2.417   5.655   8.822 -0.0156 -0.3137 -0.1452
  554loPI   C4A 8858   2.365   5.638   8.416 -0.1852 -0.0133 -0.1602
  554loPI   C5A 8859   2.395   5.748   8.058 -0.3455 -0.0710  0.1362
  554loPI   C6A 8860   2.201   5.860   7.708 -0.2512 -0.1547  0.1164
  554loPI   C1B 8861   2.711   5.298   9.470  0.0077  0.0347  0.0539
  554loPI   C2B 8862   2.756   5.326   8.994  0.0878  0.1349  0.0067
  554loPI   C3B 8863   2.719   5.224   8.604  0.2092 -0.0976 -0.2905
  554loPI   C4B 8864   2.771   5.406   8.200 -0.1849 -0.1454 -0.0950
  555loPI    C1 8865   0.902  10.876  10.696 -0.0269 -0.1640  0.2531
  555loPI    C2 8866   0.805  11.076  11.029  0.0152  0.0167  0.1584
  555loPI    C3 8867   1.164  10.902  10.998  0.0512  0.0891  0.1668
  555loPI   PO4 8868   0.944  10.966  10.457 -0.0525  0.1894  0.0255
  555loPI   GL1 8869   1.245  10.967  10.119 -0.1967  0.0216 -0.0839
  555loPI   GL2 8870   1.554  11.158  10.096 -0.1921  0.0327 -0.0398
  555loPI   C1A 8871   1.252  10.989   9.665 -0.0481  0.1698 -0.1821
  555loPI   C2A 8872   1.372  11.070   9.211  0.1507 -0.0799 -0.2410
  555loPI   C3A 8873   1.233  10.993   8.704  0.0149 -0.0542 -0.0085
  555loPI   C4A 8874   1.288  11.068   8.293 -0.0420  0.2411 -0.0626
  555loPI   C5A 8875   1.422  11.206   7.871 -0.0466 -0.1611  0.2034
  555loPI   C6A 8876   1.461  11.127   7.439  0.0709 -0.0451 -0.2408
  555loPI   C1B 8877   1.744  11.198   9.716  0.0089  0.1613  0.0819
  555loPI   C2B 8878   1.856  11.229   9.238  0.2403 -0.0647 -0.0910
  555loPI   C3B 8879   1.737  11.201   8.887 -0.0632 -0.1688 -0.3124
  555loPI   C4B 8880   1.755  11.283   8.425  0.0940  0.0831 -0.1973
  556loPI    C1 8881   1.420  13.411  11.211  0.0814  0.0064  0.0564
  556loPI    C2 8882   1.085  13.214  11.305  0.1309 -0.1477 -0.0855
  556loPI    C3 8883   1.417  13.156  11.519  0.0769 -0.0208  0.0340
  556loPI   PO4 8884   1.510  13.414  10.816  0.1257 -0.1310 -0.2794
  556loPI   GL1 8885   1.415  13.279  10.369 -0.1002 -0.2870  0.3102
  556loPI   GL2 8886   1.574  13.567  10.090  0.0899  0.2391 -0.1061
  556loPI   C1A 8887   1.525  13.127   9.859 -0.1125  0.4161  0.0897
  556loPI   C2A 8888   1.676  13.066   9.528  0.2866  0.1053 -0.3356
  556loPI   C3A 8889   1.513  13.068   9.137  0.0734  0.1597  0.1564
  556loPI   C4A 8890   1.700  13.017   8.715  0.3201  0.2972  0.2342
  556loPI   C5A 8891   1.953  13.025   8.242  0.2009  0.0982 -0.0060
  556loPI   C6A 8892   2.032  12.881   7.821 -0.1213 -0.2033 -0.2322
  556loPI   C1B 8893   1.736  13.584   9.717  0.1571  0.2226 -0.0161
  556loPI   C2B 8894   1.719  13.577   9.265  0.0771  0.3722  0.0328
  556loPI   C3B 8895   1.791  13.575   8.849  0.1742  0.1281  0.0029
  556loPI   C4B 8896   1.817  13.508   8.397  0.0361 -0.0180 -0.1979
  557loPI    C1 8897  15.066  11.475  10.224  0.1843  0.0379  0.0475
  557loPI    C2 8898  14.958  11.860  10.240  0.1393  0.0183  0.2452
  557loPI    C3 8899  14.774  11.591  10.472  0.0966 -0.1410  0.0294
  557loPI   PO4 8900  15.324  11.483  10.119  0.2040 -0.1465  0.3210
  557loPI   GL1 8901  15.269  11.915   9.816  0.0269 -0.0714  0.0168
  557loPI   GL2 8902  15.185  11.559   9.691  0.4468  0.0595  0.0747
  557loPI   C1A 8903  15.351  12.048   9.379 -0.1455  0.2020  0.2356
  557loPI   C2A 8904  15.256  12.014   8.969 -0.0662 -0.2257  0.0249
  557loPI   C3A 8905  15.199  12.097   8.516 -0.0221  0.2009 -0.3399
  557loPI   C4A 8906  15.165  12.067   8.090 -0.0581  0.1839 -0.1301
  557loPI   C5A 8907  15.339  12.020   7.767 -0.2171 -0.1865 -0.0069
  557loPI   C6A 8908  15.731  11.995   7.657  0.0904 -0.2972 -0.1747
  557loPI   C1B 8909  15.242  11.550   9.189  0.1504 -0.0640  0.4376
  557loPI   C2B 8910  15.173  11.584   8.742  0.1518  0.0847 -0.3513
  557loPI   C3B 8911  15.163  11.571   8.354 -0.2580 -0.0676  0.3077
  557loPI   C4B 8912  15.231  11.565   7.908 -0.2764 -0.1562 -0.1103
  558loPI    C1 8913   9.850  13.105  10.770 -0.0970  0.1666  0.1694
  558loPI    C2 8914   9.765  12.731  10.658  0.0457  0.1513  0.1104
  558loPI    C3 8915   9.472  12.976  10.775 -0.0813  0.1041 -0.1040
  558loPI   PO4 8916   9.965  13.286  10.600  0.1822  0.2059  0.5179
  558loPI   GL1 8917   9.981  13.269  10.127 -0.1533 -0.1582  0.2524
  558loPI   GL2 8918   9.676  13.401  10.220 -0.0352 -0.1283  0.0897
  558loPI   C1A 8919   9.994  13.419   9.654  0.1382 -0.3242  0.0600
  558loPI   C2A 8920  10.028  13.468   9.256  0.0465 -0.3031  0.0771
  558loPI   C3A 8921   9.898  13.509   8.842  0.0563 -0.3138 -0.1289
  558loPI   C4A 8922   9.801  13.679   8.403 -0.1745 -0.0521  0.0813
  558loPI   C5A 8923  10.037  13.982   8.146 -0.0870 -0.0761 -0.0787
  558loPI   C6A 8924   9.984  14.279   7.740 -0.0626 -0.1625  0.0243
  558loPI   C1B 8925   9.523  13.291   9.880  0.3104 -0.0597 -0.0897
  558loPI   C2B 8926   9.549  13.286   9.525 -0.1548  0.2954  0.1745
  558loPI   C3B 8927   9.500  13.291   9.088 -0.0316  0.2524  0.0433
  558loPI   C4B 8928   9.480  13.281   8.663  0.0263 -0.2088  0.0168
  559loPI    C1 8929   0.456  16.451  11.255  0.0372 -0.0442 -0.0720
  559loPI    C2 8930   0.775  16.692  11.241  0.0240 -0.0308 -0.1453
  559loPI    C3 8931   0.798  16.340  11.430  0.1111 -0.0724 -0.2325
  559loPI   PO4 8932   0.392  16.410  11.013  0.0725  0.2779  0.1063
  559loPI   GL1 8933   0.365  16.337  10.595 -0.0170 -0.2715  0.0868
  559loPI   GL2 8934   0.089  16.573  10.478 -0.1567  0.1239  0.2280
  559loPI   C1A 8935   0.677  16.521  10.288 -0.3377 -0.2742  0.2045
  559loPI   C2A 8936   0.655  16.609   9.871 -0.1599  0.1021  0.0447
  559loPI   C3A 8937   0.794  16.529   9.433  0.3237  0.3290 -0.3464
  559loPI   C4A 8938   0.792  16.413   8.998 -0.1346 -0.0335  0.5018
  559loPI   C5A 8939   0.810  16.445   8.581 -0.2591  0.0019 -0.0494
  559loPI   C6A 8940   0.732  16.308   8.182  0.2878  0.1424  0.2743
  559loPI   C1B 8941   0.286  16.943  10.233  0.0342  0.0604  0.3575
  559loPI   C2B 8942   0.328  16.984   9.832 -0.0512  0.0745 -0.0504
  559loPI   C3B 8943   0.418  16.884   9.400  0.3298 -0.0094 -0.0777
  559loPI   C4B 8944   0.352  16.868   8.907 -0.0662 -0.0201  0.1667
  560loPI    C1 8945  12.198  15.391  11.360  0.0872  0.0927 -0.0033
  560loPI    C2 8946  11.950  15.701  11.406  0.1088  0.0772  0.2308
  560loPI    C3 8947  12.096  15.512  11.727  0.1772 -0.1112  0.0910
  560loPI   PO4 8948  12.248  15.406  11.075  0.2143 -0.1068 -0.2397
  560loPI   GL1 8949  12.072  15.530  10.644  0.1566 -0.1480  0.2674
  560loPI   GL2 8950  12.140  15.263  10.545  0.3645  0.0129 -0.0518
  560loPI   C1A 8951  12.046  15.646  10.144  0.2968  0.1512 -0.0529
  560loPI   C2A 8952  12.045  15.756   9.780  0.0641  0.3567  0.1072
  560loPI   C3A 8953  11.955  15.769   9.288  0.1374 -0.0508  0.0489
  560loPI   C4A 8954  12.078  15.819   8.890 -0.1573 -0.0824 -0.0774
  560loPI   C5A 8955  12.206  15.486   8.509  0.2643  0.0838  0.1454
  560loPI   C6A 8956  12.161  15.590   8.032 -0.1359 -0.0715  0.1041
  560loPI   C1B 8957  12.026  15.152  10.155 -0.1776 -0.1178 -0.1890
  560loPI   C2B 8958  12.018  15.191   9.685  0.1131 -0.0842 -0.0287
  560loPI   C3B 8959  12.018  15.246   9.310  0.1978 -0.0413 -0.1884
  560loPI   C4B 8960  12.030  15.282   8.965 -0.1657 -0.1546  0.0288
  561loPI    C1 8961   6.725  18.308  11.117  0.4611  0.0528 -0.0303
  561loPI    C2 8962   6.516  18.629  11.232  0.0512 -0.2007 -0.0473
  561loPI    C3 8963   6.694  18.398  11.506  0.0900 -0.1310 -0.0132
  561loPI   PO4 8964   6.574  18.274  10.915  0.0716  0.4157 -0.1575
  561loPI   GL1 8965   6.444  18.299  10.467 -0.2045  0.6253  0.0136
  561loPI   GL2 8966   6.421  17.961  10.527  0.1221 -0.3181  0.2426
  561loPI   C1A 8967   6.486  18.493  10.140 -0.4308 -0.0997  0.1043
  561loPI   C2A 8968   6.498  18.438   9.681  0.3325 -0.4360 -0.0130
  561loPI   C3A 8969   6.499  18.359   9.227 -0.0923  0.0253  0.3959
  561loPI   C4A 8970   6.605  18.400   8.779 -0.0064 -0.2015 -0.0528
  561loPI   C5A 8971   6.518  18.407   8.377  0.1594  0.0452  0.1954
  561loPI   C6A 8972   6.263  18.423   7.945 -0.2693  0.0095 -0.1893
  561loPI   C1B 8973   6.448  17.956  10.121  0.1017 -0.0236 -0.3806
  561loPI   C2B 8974   6.423  17.878   9.722  0.0707 -0.3155  0.0031
  561loPI   C3B 8975   6.537  17.870   9.217  0.0484  0.1225 -0.0829
  561loPI   C4B 8976   6.439  17.925   8.856 -0.0915  0.1707  0.6618
  562loPI    C1 8977   9.928  15.536  11.007  0.0637  0.1913 -0.2006
  562loPI    C2 8978   9.756  15.420  11.349  0.0483  0.0991 -0.2393
  562loPI    C3 8979   9.807  15.809  11.273 -0.1348  0.1270 -0.2232
  562loPI   PO4 8980   9.775  15.391  10.832  0.2568  0.2216 -0.2792
  562loPI   GL1 8981   9.476  15.474  10.454 -0.1956  0.0779 -0.0857
  562loPI   GL2 8982   9.695  15.195  10.271 -0.0525 -0.3461 -0.2620
  562loPI   C1A 8983   9.288  15.616  10.030  0.1585  0.0515 -0.1276
  562loPI   C2A 8984   9.380  15.635   9.519 -0.0179 -0.3566  0.1771
  562loPI   C3A 8985   9.347  15.646   9.164  0.1211 -0.0402  0.2578
  562loPI   C4A 8986   9.254  15.653   8.762 -0.2222 -0.2451  0.1935
  562loPI   C5A 8987   9.166  15.698   8.264  0.1100  0.0352  0.1720
  562loPI   C6A 8988   9.410  15.899   7.910 -0.2268  0.1128  0.1212
  562loPI   C1B 8989   9.672  15.306   9.816 -0.4824  0.0153 -0.0715
  562loPI   C2B 8990   9.757  15.382   9.404 -0.3583 -0.0856  0.2033
  562loPI   C3B 8991   9.712  15.346   8.983  0.2860  0.2227  0.0599
  562loPI   C4B 8992   9.721  15.320   8.509  0.0872 -0.0899 -0.0140
  563loPI    C1 8993   7.974   1.025  10.846 -0.0481  0.2648  0.0370
  563loPI    C2 8994   8.275   1.170  10.626  0.0370 -0.0564 -0.0637
  563loPI    C3 8995   8.296   1.180  11.025  0.0360  0.2128 -0.0683
  563loPI   PO4 8996   7.871   0.830  10.685 -0.2435 -0.0782  0.1981
  563loPI   GL1 8997   7.918   0.749  10.294 -0.0457 -0.0413  0.5159
  563loPI   GL2 8998   8.265   0.853  10.187 -0.3713 -0.1194  0.0129
  563loPI   C1A 8999   7.828   0.686   9.879 -0.1082 -0.3396 -0.1047
  563loPI   C2A 9000   7.809   0.700   9.532  0.0741 -0.2469  0.2097
  563loPI   C3A 9001   8.010   0.594   9.135 -0.0067  0.0151  0.2142
  563loPI   C4A 9002   8.053   0.490   8.703  0.3196 -0.4286 -0.1451
  563loPI   C5A 9003   8.066   0.386   8.319  0.1944  0.1749 -0.0742
  563loPI   C6A 9004   7.881   0.022   8.018  0.3068  0.0911  0.0527
  563loPI   C1B 9005   8.340   0.885   9.772 -0.1905  0.0322 -0.0711
  563loPI   C2B 9006   8.426   0.863   9.319 -0.0272  0.3652 -0.0318
  563loPI   C3B 9007   8.504   0.755   8.870 -0.0901  0.0278 -0.2260
  563loPI   C4B 9008   8.444   0.677   8.480 -0.0876 -0.0793 -0.0049
  564loPI    C1 9009   1.341   7.677  10.583  0.0057 -0.1801  0.0564
  564loPI    C2 9010   1.326   7.996  10.823  0.2575 -0.0161 -0.1409
  564loPI    C3 9011   1.223   7.636  10.963 -0.2104  0.1772  0.0325
  564loPI   PO4 9012   1.539   7.654  10.485 -0.1029  0.1397 -0.0225
  564loPI   GL1 9013   1.672   7.671  10.069  0.3468  0.1180 -0.0646
  564loPI   GL2 9014   1.905   7.543  10.030 -0.0119 -0.2566 -0.1934
  564loPI   C1A 9015   1.609   7.857   9.685  0.2105 -0.0350 -0.3854
  564loPI   C2A 9016   1.745   7.755   9.199  0.4420 -0.2622 -0.0362
  564loPI   C3A 9017   1.743   7.769   8.774 -0.1125  0.1276 -0.1488
  564loPI   C4A 9018   1.662   7.794   8.295 -0.1668 -0.2732 -0.0271
  564loPI   C5A 9019   1.636   7.975   7.940 -0.1303  0.1560 -0.0186
  564loPI   C6A 9020   1.370   8.260   7.754 -0.0173 -0.1384 -0.1157
  564loPI   C1B 9021   2.012   7.529   9.635 -0.1541  0.2316 -0.0596
  564loPI   C2B 9022   2.184   7.518   9.188  0.4642 -0.3226  0.0011
  564loPI   C3B 9023   2.187   7.428   8.737 -0.0241 -0.2399 -0.1409
  564loPI   C4B 9024   2.031   7.485   8.310  0.0454 -0.0258 -0.1921
  565loPI    C1 9025   2.199   9.262  10.816  0.2011 -0.0732 -0.0959
  565loPI    C2 9026   2.397   9.037  11.082  0.0825  0.0452  0.0950
  565loPI    C3 9027   2.045   8.913  10.937  0.1440 -0.0163 -0.0027
  565loPI   PO4 9028   2.399   9.253  10.640 -0.1393 -0.0053 -0.1013
  565loPI   GL1 9029   2.606   9.140  10.267 -0.0984  0.0316 -0.0398
  565loPI   GL2 9030   2.830   9.232  10.149 -0.3216  0.0389  0.0632
  565loPI   C1A 9031   2.386   8.997   9.874 -0.0140 -0.2642  0.0077
  565loPI   C2A 9032   2.298   8.984   9.455 -0.0956 -0.0683  0.1727
  565loPI   C3A 9033   2.347   9.095   9.029  0.1470 -0.2438  0.1735
  565loPI   C4A 9034   2.409   9.033   8.619  0.2074 -0.1527  0.1532
  565loPI   C5A 9035   2.404   9.074   8.180 -0.1614 -0.0768 -0.0723
  565loPI   C6A 9036   2.133   9.075   7.798  0.3766 -0.1635  0.3030
  565loPI   C1B 9037   2.781   9.278   9.726 -0.2565 -0.0555  0.1438
  565loPI   C2B 9038   2.833   9.308   9.383 -0.0754  0.0877  0.0373
  565loPI   C3B 9039   2.911   9.307   9.093  0.0519  0.0436 -0.0181
  565loPI   C4B 9040   2.830   9.220   8.648  0.0215  0.1434 -0.0320
  566loPI    C1 9041  10.680   4.996  10.188 -0.1647 -0.2233  0.1834
  566loPI    C2 9042  10.913   5.076  10.504 -0.1213 -0.0453  0.1077
  566loPI    C3 9043  10.576   5.283  10.446  0.1768  0.3487 -0.2885
  566loPI   PO4 9044  10.887   4.998   9.987 -0.0058  0.2180  0.1075
  566loPI   GL1 9045  10.895   4.927   9.582  0.2542  0.0055 -0.4326
  566loPI   GL2 9046  10.782   4.621   9.695 -0.1790 -0.3071 -0.2124
  566loPI   C1A 9047  10.662   4.857   9.266  0.1990  0.1895 -0.3207
  566loPI   C2A 9048  10.758   4.751   8.875  0.0110 -0.0589  0.2340
  566loPI   C3A 9049  10.676   4.552   8.410 -0.1734 -0.1936  0.0146
  566loPI   C4A 9050  10.543   4.564   7.973  0.2368  0.3118 -0.0537
  566loPI   C5A 9051  10.752   4.604   7.594  0.0874 -0.3381  0.0813
  566loPI   C6A 9052  10.771   4.558   7.186  0.2262  0.1065  0.0193
  566loPI   C1B 9053  11.084   4.537   9.352 -0.3572  0.1111  0.1635
  566loPI   C2B 9054  11.180   4.359   8.920  0.3203  0.2672 -0.1660
  566loPI   C3B 9055  11.138   4.362   8.512 -0.0033  0.2382  0.0970
  566loPI   C4B 9056  10.964   4.317   8.137  0.0264 -0.0048  0.1481
  567loPI    C1 9057   0.681  13.433  10.958 -0.2615  0.1955 -0.0456
  567loPI    C2 9058   1.049  13.591  10.954 -0.1482 -0.0624 -0.0267
  567loPI    C3 9059   0.758  13.765  11.167  0.0127  0.0345  0.1154
  567loPI   PO4 9060   0.651  13.356  10.673  0.0872  0.0007 -0.2633
  567loPI   GL1 9061   0.850  13.294  10.287 -0.0712 -0.1168  0.0679
  567loPI   GL2 9062   0.594  13.601  10.253 -0.2855 -0.1809  0.1618
  567loPI   C1A 9063   1.104  13.332   9.944 -0.1538 -0.0913 -0.0824
  567loPI   C2A 9064   1.098  13.295   9.439  0.0202 -0.3164  0.1685
  567loPI   C3A 9065   1.155  13.373   8.956  0.2310 -0.1666 -0.2145
  567loPI   C4A 9066   1.072  13.363   8.559  0.1654 -0.1861 -0.1013
  567loPI   C5A 9067   1.223  13.571   8.187 -0.1943 -0.1035  0.1587
  567loPI   C6A 9068   1.025  13.693   7.963 -0.0552 -0.1872  0.1466
  567loPI   C1B 9069   0.640  13.561   9.730  0.1367 -0.2035 -0.1577
  567loPI   C2B 9070   0.762  13.646   9.359  0.1109 -0.0782 -0.2117
  567loPI   C3B 9071   0.698  13.640   8.872 -0.1992 -0.0590  0.2833
  567loPI   C4B 9072   0.676  13.626   8.457  0.0443  0.0252  0.1159
  568loPI    C1 9073   3.647  15.622  11.105 -0.2831 -0.1001 -0.2136
  568loPI    C2 9074   3.391  15.823  11.337 -0.1442  0.0952 -0.2268
  568loPI    C3 9075   3.386  15.423  11.334 -0.1077  0.0878  0.1577
  568loPI   PO4 9076   3.510  15.692  10.794 -0.3719 -0.1884  0.0105
  568loPI   GL1 9077   3.282  15.689  10.354 -0.0788 -0.0419 -0.0326
  568loPI   GL2 9078   3.067  15.480  10.523 -0.0837 -0.0590  0.0601
  568loPI   C1A 9079   3.417  15.679   9.907 -0.0536 -0.2635 -0.0388
  568loPI   C2A 9080   3.363  15.716   9.482  0.0115 -0.0505 -0.0916
  568loPI   C3A 9081   3.462  15.601   9.074  0.0104 -0.0454 -0.0117
  568loPI   C4A 9082   3.483  15.682   8.638 -0.0986  0.1514  0.2378
  568loPI   C5A 9083   3.554  16.101   8.409 -0.2248  0.4822 -0.3128
  568loPI   C6A 9084   3.873  16.409   8.326 -0.1353 -0.0821  0.0149
  568loPI   C1B 9085   2.946  15.457  10.049  0.0015 -0.0192  0.1324
  568loPI   C2B 9086   2.944  15.504   9.549  0.2214 -0.2724 -0.1966
  568loPI   C3B 9087   2.938  15.416   9.137  0.0296 -0.0602 -0.2760
  568loPI   C4B 9088   2.919  15.442   8.821  0.0395 -0.2298 -0.1330
  569loPI    C1 9089  13.324   2.616  10.216 -0.0869 -0.0044  0.1082
  569loPI    C2 9090  13.719   2.671  10.246 -0.0930  0.1124 -0.0144
  569loPI    C3 9091  13.478   2.775  10.549 -0.0084 -0.1837  0.1589
  569loPI   PO4 9092  13.264   2.674   9.917  0.1075  0.1003 -0.3056
  569loPI   GL1 9093  13.084   2.525   9.571 -0.0745 -0.5011 -0.1048
  569loPI   GL2 9094  13.356   2.276   9.676  0.1521  0.1930  0.0425
  569loPI   C1A 9095  12.890   2.543   9.218  0.0864  0.1114  0.1371
  569loPI   C2A 9096  12.823   2.436   8.771  0.2495 -0.2613  0.0266
  569loPI   C3A 9097  12.731   2.445   8.348 -0.3159  0.1622 -0.2336
  569loPI   C4A 9098  12.846   2.372   7.897  0.2956  0.0861 -0.0683
  569loPI   C5A 9099  12.886   2.493   7.521  0.2737  0.1064 -0.0251
  569loPI   C6A 9100  12.915   2.550   7.129 -0.1123  0.0348  0.0159
  569loPI   C1B 9101  13.278   2.186   9.262  0.1423  0.1745 -0.1689
  569loPI   C2B 9102  13.263   2.219   8.832 -0.2188  0.0263  0.0293
  569loPI   C3B 9103  13.196   2.054   8.329  0.2247 -0.3340  0.0598
  569loPI   C4B 9104  13.358   2.296   7.861  0.1565  0.0008 -0.2549
  570loPI    C1 9105  16.654  11.951  10.618  0.1976  0.1131  0.1927
  570loPI    C2 9106  16.432  11.709  10.846  0.0906 -0.0686 -0.0987
  570loPI    C3 9107  16.746  11.563  10.646  0.1088  0.0619 -0.1671
  570loPI   PO4 9108  16.474  12.046  10.377 -0.0871  0.1332 -0.0677
  570loPI   GL1 9109  16.461  12.073   9.989 -0.1432  0.1625  0.2734
  570loPI   GL2 9110  16.699  12.135   9.828 -0.0035  0.2896  0.0307
  570loPI   C1A 9111  16.171  12.224   9.664  0.0634 -0.1426 -0.2472
  570loPI   C2A 9112  16.280  12.422   9.331  0.1294  0.2130  0.1388
  570loPI   C3A 9113  16.306  12.472   8.998  0.1702  0.1208 -0.0991
  570loPI   C4A 9114  16.261  12.488   8.660  0.0786 -0.0006 -0.1353
  570loPI   C5A 9115  16.225  12.516   8.334 -0.0024  0.0539  0.0052
  570loPI   C6A 9116  16.327  12.503   7.924  0.1650  0.0928 -0.1502
  570loPI   C1B 9117  16.671  12.158   9.446  0.1981 -0.0664  0.0709
  570loPI   C2B 9118  16.647  12.137   8.977 -0.0019 -0.3738  0.2258
  570loPI   C3B 9119  16.664  12.236   8.586  0.1503 -0.0375  0.0777
  570loPI   C4B 9120  16.579  12.161   8.155 -0.0808 -0.0236  0.1894
  571loPI    C1 9121  13.544   7.372   9.975  0.0139  0.3460 -0.1866
  571loPI    C2 9122  13.775   7.354  10.301 -0.1384 -0.1311 -0.0966
  571loPI    C3 9123  13.555   7.680  10.230  0.1274  0.0998  0.1132
  571loPI   PO4 9124  13.685   7.337   9.851 -0.2803  0.3519 -0.0526
  571loPI   GL1 9125  13.817   7.517   9.438 -0.4281 -0.1646  0.2299
  571loPI   GL2 9126  14.137   7.695   9.308 -0.0366 -0.1970  0.3395
  571loPI   C1A 9127  13.632   7.433   9.014  0.1986 -0.0311 -0.0704
  571loPI   C2A 9128  13.584   7.599   8.709  0.2607 -0.1272 -0.4563
  571loPI   C3A 9129  13.422   7.870   8.384 -0.0062  0.1527 -0.1679
  571loPI   C4A 9130  13.619   8.175   8.098 -0.0193  0.2092  0.3814
  571loPI   C5A 9131  13.577   8.356   7.713  0.0122  0.2075  0.3044
  571loPI   C6A 9132  13.447   8.715   7.647 -0.2584 -0.0971 -0.0974
  571loPI   C1B 9133  14.058   7.663   8.919 -0.0256 -0.0102  0.1705
  571loPI   C2B 9134  13.984   7.812   8.568  0.0610  0.2071  0.0011
  571loPI   C3B 9135  14.028   7.880   8.121 -0.1066  0.0082  0.2716
  571loPI   C4B 9136  14.333   7.755   7.851 -0.2142 -0.3457 -0.1393
  572loPI    C1 9137   9.927  12.284  10.531  0.0478  0.2506  0.0036
  572loPI    C2 9138   9.646  12.384  10.265 -0.0548 -0.0629 -0.0097
  572loPI    C3 9139   9.542  12.289  10.639  0.0736  0.2123  0.0981
  572loPI   PO4 9140  10.149  12.422  10.459 -0.0991 -0.1377 -0.1024
  572loPI   GL1 9141  10.162  12.522  10.057 -0.0332 -0.0334 -0.0164
  572loPI   GL2 9142   9.918  12.382   9.853  0.1509 -0.0703  0.3877
  572loPI   C1A 9143  10.071  12.848   9.806 -0.2604  0.2174 -0.1653
  572loPI   C2A 9144  10.001  12.982   9.294  0.1567  0.1056 -0.0596
  572loPI   C3A 9145   9.937  13.053   8.923  0.1034  0.1314 -0.2194
  572loPI   C4A 9146   9.993  13.214   8.465 -0.1236  0.3470 -0.1066
  572loPI   C5A 9147   9.958  13.050   7.945  0.0998 -0.2284  0.2557
  572loPI   C6A 9148  10.022  12.710   7.730  0.2824  0.0619  0.0539
  572loPI   C1B 9149   9.997  12.525   9.414  0.0125  0.1581  0.2297
  572loPI   C2B 9150   9.864  12.586   8.976 -0.2088 -0.1023  0.2582
  572loPI   C3B 9151   9.813  12.503   8.634 -0.3743  0.1732 -0.0421
  572loPI   C4B 9152   9.885  12.664   8.254 -0.4365 -0.0678  0.1262
  573loPI    C1 9153   4.188   1.599  11.433 -0.0166 -0.1418  0.0492
  573loPI    C2 9154   4.320   1.886  11.678 -0.1239  0.0089 -0.0681
  573loPI    C3 9155   3.988   1.683  11.769 -0.0597 -0.0640  0.0044
  573loPI   PO4 9156   4.197   1.682  11.156  0.1376  0.2985 -0.1344
  573loPI   GL1 9157   4.176   1.916  10.803  0.2511  0.0328  0.1221
  573loPI   GL2 9158   4.007   1.667  10.698 -0.2049 -0.1202 -0.1433
  573loPI   C1A 9159   4.415   1.734  10.377 -0.1256  0.0432 -0.0506
  573loPI   C2A 9160   4.372   1.643  10.034  0.0177 -0.2652 -0.0326
  573loPI   C3A 9161   4.400   1.724   9.501  0.1472 -0.3128  0.1295
  573loPI   C4A 9162   4.480   1.611   9.086 -0.2792 -0.0175 -0.1110
  573loPI   C5A 9163   4.364   1.657   8.706  0.2100  0.0194  0.0892
  573loPI   C6A 9164   4.151   1.906   8.516  0.2581 -0.1515  0.1071
  573loPI   C1B 9165   3.978   1.448  10.312 -0.0855 -0.1881 -0.2659
  573loPI   C2B 9166   3.952   1.452   9.898  0.3832  0.1405  0.0068
  573loPI   C3B 9167   3.959   1.499   9.553 -0.1040 -0.1364  0.0172
  573loPI   C4B 9168   3.942   1.397   9.070  0.0093  0.0436  0.2437
  574loPI    C1 9169   3.221  12.785  11.288  0.1267 -0.3446 -0.3074
  574loPI    C2 9170   3.576  12.658  11.421 -0.0441 -0.2434  0.2761
  574loPI    C3 9171   3.240  12.494  11.562 -0.2405 -0.0443  0.0486
  574loPI   PO4 9172   3.260  12.855  11.052 -0.2521  0.0381 -0.0536
  574loPI   GL1 9173   3.332  12.979  10.685 -0.2833  0.1391 -0.1269
  574loPI   GL2 9174   3.312  12.738  10.505 -0.2910 -0.2442  0.1089
  574loPI   C1A 9175   3.470  13.270  10.410  0.0385 -0.2123  0.3443
  574loPI   C2A 9176   3.485  13.283   9.890 -0.3734  0.2342 -0.0417
  574loPI   C3A 9177   3.395  13.333   9.454 -0.2113  0.1489  0.3696
  574loPI   C4A 9178   3.461  13.319   9.017 -0.2059 -0.2202 -0.0597
  574loPI   C5A 9179   3.464  13.373   8.559 -0.3214 -0.3193  0.2459
  574loPI   C6A 9180   3.161  13.586   8.272 -0.2860 -0.0240  0.3786
  574loPI   C1B 9181   3.377  12.836  10.045 -0.0765 -0.3355  0.0156
  574loPI   C2B 9182   3.423  12.820   9.628 -0.2415 -0.2167 -0.3776
  574loPI   C3B 9183   3.426  12.828   9.241 -0.0501 -0.2027  0.2351
  574loPI   C4B 9184   3.381  12.825   8.795 -0.1870 -0.1071  0.1370
  575loPI    C1 9185   1.135  15.400  11.218  0.0600  0.0994  0.2171
  575loPI    C2 9186   0.927  15.724  11.110 -0.0941  0.0696  0.4180
  575loPI    C3 9187   0.772  15.465  11.372 -0.1339 -0.3683 -0.0224
  575loPI   PO4 9188   1.368  15.504  10.926 -0.2670  0.3098 -0.1982
  575loPI   GL1 9189   1.299  15.354  10.483 -0.0158  0.0623  0.0839
  575loPI   GL2 9190   1.333  14.927  10.259  0.1446 -0.0794 -0.0155
  575loPI   C1A 9191   1.606  15.518  10.070  0.1580 -0.0313 -0.2179
  575loPI   C2A 9192   1.546  15.504   9.696 -0.0133 -0.0679  0.0770
  575loPI   C3A 9193   1.490  15.452   9.293 -0.0861  0.1365 -0.1230
  575loPI   C4A 9194   1.517  15.371   8.884 -0.1845  0.0350  0.0857
  575loPI   C5A 9195   1.517  15.549   8.472 -0.1215 -0.0855 -0.0309
  575loPI   C6A 9196   1.537  15.915   8.322 -0.0425 -0.0958 -0.1196
  575loPI   C1B 9197   1.517  14.915   9.906 -0.2402 -0.1329 -0.0519
  575loPI   C2B 9198   1.487  14.919   9.466  0.1847 -0.2921  0.1723
  575loPI   C3B 9199   1.432  14.916   9.057 -0.3679 -0.4153 -0.0325
  575loPI   C4B 9200   1.335  14.946   8.637 -0.1372 -0.0236 -0.0877
  576loPI    C1 9201   2.544  10.002  10.760  0.0851 -0.0610 -0.0031
  576loPI    C2 9202   2.519   9.631  10.909 -0.0744 -0.0337  0.0397
  576loPI    C3 9203   2.518   9.946  11.155  0.1483 -0.0074  0.0087
  576loPI   PO4 9204   2.734  10.056  10.628 -0.0824  0.1739  0.0516
  576loPI   GL1 9205   2.898  10.182  10.230  0.1009  0.1413  0.2633
  576loPI   GL2 9206   2.591   9.992  10.088 -0.1242  0.0542 -0.0356
  576loPI   C1A 9207   3.089  10.286   9.856  0.2103  0.1732  0.0152
  576loPI   C2A 9208   3.056  10.317   9.535  0.1895  0.2834  0.3214
  576loPI   C3A 9209   2.982  10.329   9.118 -0.0550  0.1213  0.0237
  576loPI   C4A 9210   3.010  10.199   8.776 -0.1118 -0.1299  0.3074
  576loPI   C5A 9211   2.966  10.371   8.388 -0.3272 -0.3331  0.1207
  576loPI   C6A 9212   3.187  10.625   8.044  0.0505  0.0673  0.1369
  576loPI   C1B 9213   2.449  10.063   9.644  0.2263  0.4026 -0.0752
  576loPI   C2B 9214   2.507  10.099   9.201 -0.0018  0.1684  0.0340
  576loPI   C3B 9215   2.504  10.144   8.736 -0.2727  0.0865 -0.2856
  576loPI   C4B 9216   2.512  10.149   8.324 -0.2109 -0.4628  0.0425
  577loPI    C1 9217  17.837  16.201  11.266  0.0791  0.2021  0.0695
  577loPI    C2 9218  17.701  15.891  11.479 -0.0743  0.1165 -0.1496
  577loPI    C3 9219  17.725  16.254  11.647  0.0138  0.0076  0.0782
  577loPI   PO4 9220  17.931  16.071  11.116  0.0395 -0.0618  0.1164
  577loPI   GL1 9221  17.869  15.998  10.653  0.0722 -0.1569  0.1794
  577loPI   GL2 9222  17.567  15.937  10.458  0.2494  0.0933 -0.0715
  577loPI   C1A 9223  18.125  16.191  10.345  0.1802  0.0453 -0.3288
  577loPI   C2A 9224  18.150  16.210   9.898 -0.0885  0.1437 -0.0771
  577loPI   C3A 9225  18.203  16.138   9.450  0.1225  0.0269 -0.0602
  577loPI   C4A 9226  18.264  16.231   9.037  0.0348 -0.0526 -0.0420
  577loPI   C5A 9227  18.154  16.167   8.636  0.2585 -0.2361  0.1785
  577loPI   C6A 9228  17.989  16.090   8.234 -0.0359  0.0579 -0.0514
  577loPI   C1B 9229  17.559  15.987  10.008 -0.1127  0.0661 -0.2158
  577loPI   C2B 9230  17.757  16.006   9.579 -0.0846  0.0315  0.0047
  577loPI   C3B 9231  17.770  16.055   9.055  0.0270  0.3288  0.1547
  577loPI   C4B 9232  17.638  16.044   8.597 -0.4476  0.0359 -0.2260
  578loPI    C1 9233   8.831   6.259  10.171  0.3774 -0.2153  0.0572
  578loPI    C2 9234   8.922   5.932  10.384  0.2733 -0.1112  0.2640
  578loPI    C3 9235   8.917   6.291  10.561 -0.1514 -0.0649  0.1684
  578loPI   PO4 9236   8.600   6.186  10.004  0.1026  0.0991 -0.1484
  578loPI   GL1 9237   8.553   6.017   9.682  0.1355  0.1204 -0.2669
  578loPI   GL2 9238   8.829   6.103   9.444  0.0079 -0.0050 -0.2212
  578loPI   C1A 9239   8.353   5.840   9.428  0.0050 -0.0330  0.0867
  578loPI   C2A 9240   8.276   5.608   9.168  0.2579 -0.2473 -0.0498
  578loPI   C3A 9241   8.216   5.631   8.814 -0.1784 -0.0630  0.0184
  578loPI   C4A 9242   8.135   5.595   8.430 -0.4395 -0.2935 -0.1058
  578loPI   C5A 9243   7.998   5.711   8.007  0.0369  0.3258 -0.0105
  578loPI   C6A 9244   8.033   5.971   7.593  0.2600  0.1358 -0.0591
  578loPI   C1B 9245   8.725   5.991   9.058  0.0386 -0.0081  0.1646
  578loPI   C2B 9246   8.651   5.782   8.601 -0.2857 -0.1250 -0.1081
  578loPI   C3B 9247   8.553   5.692   8.156  0.1693  0.0752  0.1516
  578loPI   C4B 9248   8.438   5.669   7.724  0.0764  0.2304  0.0930
  579loPI    C1 9249  10.484  16.728  11.197 -0.2267 -0.3403 -0.1092
  579loPI    C2 9250  10.794  16.829  11.429 -0.2138  0.1374 -0.3225
  579loPI    C3 9251  10.505  16.591  11.572  0.2111 -0.2607 -0.1003
  579loPI   PO4 9252  10.748  16.645  10.927 -0.1230  0.1915 -0.0700
  579loPI   GL1 9253  10.795  16.472  10.548 -0.2115  0.0428  0.0598
  579loPI   GL2 9254  10.757  16.801  10.398  0.0898  0.0877 -0.0587
  579loPI   C1A 9255  10.842  16.276  10.138  0.1586 -0.0994  0.2009
  579loPI   C2A 9256  10.816  16.160   9.686 -0.1104 -0.0513  0.0055
  579loPI   C3A 9257  10.801  16.259   9.239 -0.0366  0.1036  0.0562
  579loPI   C4A 9258  10.880  16.232   8.817 -0.0869 -0.2168  0.3389
  579loPI   C5A 9259  10.716  16.263   8.486  0.0521  0.1615  0.0829
  579loPI   C6A 9260  10.522  15.988   8.191  0.0190 -0.2148 -0.0909
  579loPI   C1B 9261  10.896  16.776  10.023 -0.2742 -0.4933  0.0240
  579loPI   C2B 9262  10.902  16.831   9.540 -0.1247  0.0035  0.3771
  579loPI   C3B 9263  10.902  16.738   9.119  0.0939  0.1803 -0.0628
  579loPI   C4B 9264  10.905  16.757   8.745 -0.1825  0.3731  0.0802
  580loPI    C1 9265   9.232   6.548   9.949  0.0012 -0.1531 -0.0064
  580loPI    C2 9266   9.289   6.307  10.263 -0.1977 -0.0883  0.0809
  580loPI    C3 9267   9.425   6.683  10.272 -0.1583 -0.1021  0.0680
  580loPI   PO4 9268   9.197   6.358   9.753  0.0346  0.1283  0.0608
  580loPI   GL1 9269   9.453   6.183   9.493  0.1728 -0.0882  0.3053
  580loPI   GL2 9270   9.735   6.167   9.463 -0.2254  0.1395 -0.0762
  580loPI   C1A 9271   9.208   6.184   9.148  0.2670  0.4081 -0.0304
  580loPI   C2A 9272   9.185   6.045   8.711 -0.1268 -0.1385 -0.0069
  580loPI   C3A 9273   9.027   5.856   8.283 -0.0116  0.1224 -0.0811
  580loPI   C4A 9274   8.824   5.990   7.822 -0.0001 -0.1355  0.0334
  580loPI   C5A 9275   8.556   6.151   7.573 -0.0930  0.1315  0.1197
  580loPI   C6A 9276   8.220   6.396   7.509  0.0780 -0.0781  0.1443
  580loPI   C1B 9277   9.753   6.302   8.995  0.1663 -0.0162  0.2794
  580loPI   C2B 9278   9.675   6.268   8.503  0.2015 -0.0625  0.2593
  580loPI   C3B 9279   9.739   6.347   8.126 -0.0178 -0.3656  0.1574
  580loPI   C4B 9280   9.647   6.148   7.720  0.0178  0.1720 -0.5145
  581loPI    C1 9281   5.110   3.196  10.979  0.0027  0.0267  0.0581
  581loPI    C2 9282   5.460   3.348  11.098  0.1176 -0.3213  0.1787
  581loPI    C3 9283   5.166   3.292  11.363 -0.0683  0.0601  0.0601
  581loPI   PO4 9284   5.198   3.099  10.742 -0.0194  0.1896 -0.2133
  581loPI   GL1 9285   5.304   2.997  10.288 -0.0151  0.0903  0.0329
  581loPI   GL2 9286   5.057   2.802  10.338 -0.0024  0.2548 -0.0162
  581loPI   C1A 9287   5.181   3.359  10.022  0.0544  0.3114  0.3274
  581loPI   C2A 9288   5.111   3.363   9.622  0.1500 -0.3339  0.0088
  581loPI   C3A 9289   5.151   3.444   9.177 -0.0564 -0.1041 -0.1132
  581loPI   C4A 9290   5.192   3.403   8.689  0.0816 -0.0376 -0.0399
  581loPI   C5A 9291   5.189   3.165   8.302 -0.1640  0.0657 -0.1152
  581loPI   C6A 9292   5.437   2.747   8.140  0.0025  0.0106 -0.1119
  581loPI   C1B 9293   5.043   2.928   9.796 -0.1123 -0.0057  0.0474
  581loPI   C2B 9294   4.999   2.919   9.376 -0.0640  0.2454 -0.1587
  581loPI   C3B 9295   4.967   2.890   8.989 -0.2082 -0.5412  0.1459
  581loPI   C4B 9296   5.005   2.786   8.527 -0.2066 -0.1254 -0.0133
  582loPI    C1 9297   4.574   3.212  11.337  0.2270  0.2127 -0.1312
  582loPI    C2 9298   4.774   3.478  11.559 -0.0474  0.2325  0.0980
  582loPI    C3 9299   4.799   3.087  11.643  0.0272  0.2205  0.0210
  582loPI   PO4 9300   4.612   3.245  11.053 -0.1946  0.1757  0.0620
  582loPI   GL1 9301   4.588   3.268  10.650  0.0123  0.0834 -0.0752
  582loPI   GL2 9302   4.704   3.073  10.524 -0.0276 -0.0897 -0.1153
  582loPI   C1A 9303   4.196   3.152  10.383 -0.2444 -0.0990  0.2071
  582loPI   C2A 9304   4.177   3.053   9.954 -0.1902 -0.1857  0.3251
  582loPI   C3A 9305   4.161   3.019   9.540 -0.2294 -0.2623  0.2949
  582loPI   C4A 9306   4.149   2.955   9.026 -0.3184  0.1329 -0.1238
  582loPI   C5A 9307   4.085   2.899   8.556 -0.0825  0.0346  0.0021
  582loPI   C6A 9308   4.070   2.629   8.169  0.4198 -0.0139 -0.2766
  582loPI   C1B 9309   4.690   3.207  10.120  0.4017 -0.4117 -0.0635
  582loPI   C2B 9310   4.628   3.224   9.671 -0.0660  0.2570 -0.1299
  582loPI   C3B 9311   4.626   3.216   9.191  0.1429 -0.1342 -0.1335
  582loPI   C4B 9312   4.572   3.148   8.764 -0.1157  0.0114  0.1334
  583loPI    C1 9313   4.981   1.468  11.209 -0.0574 -0.0842 -0.0981
  583loPI    C2 9314   5.101   1.723  11.492  0.2779 -0.0346 -0.2801
  583loPI    C3 9315   4.711   1.680  11.415  0.1747 -0.1127  0.2443
  583loPI   PO4 9316   5.172   1.617  10.999 -0.2224  0.0251 -0.2327
  583loPI   GL1 9317   5.227   1.464  10.522 -0.0018 -0.0872  0.3174
  583loPI   GL2 9318   4.829   1.382  10.640  0.3980  0.0634 -0.1034
  583loPI   C1A 9319   5.339   1.556  10.046  0.1991 -0.1663  0.0790
  583loPI   C2A 9320   5.305   1.566   9.635 -0.1814  0.1290 -0.0461
  583loPI   C3A 9321   5.291   1.526   9.188 -0.0553 -0.1646 -0.1116
  583loPI   C4A 9322   5.332   1.488   8.755 -0.1143 -0.1237  0.1517
  583loPI   C5A 9323   5.293   1.246   8.408  0.0598  0.0610 -0.1521
  583loPI   C6A 9324   5.336   0.937   8.274 -0.0382 -0.2989  0.0041
  583loPI   C1B 9325   4.778   1.266  10.239  0.2954  0.4385 -0.1702
  583loPI   C2B 9326   4.870   1.417   9.846  0.0812  0.0705  0.1268
  583loPI   C3B 9327   4.862   1.328   9.409 -0.0983  0.1392 -0.0446
  583loPI   C4B 9328   4.880   1.294   8.940 -0.2111  0.0939  0.4290
  584loPI    C1 9329  14.962   5.602   9.866  0.0506  0.0744  0.1300
  584loPI    C2 9330  15.018   5.479  10.243  0.3257  0.0074  0.0699
  584loPI    C3 9331  14.860   5.840  10.172 -0.1016 -0.1384  0.2467
  584loPI   PO4 9332  14.985   5.386   9.771 -0.0050 -0.1963 -0.0899
  584loPI   GL1 9333  14.738   5.445   9.334  0.1559  0.0883 -0.0125
  584loPI   GL2 9334  14.601   5.560   9.175 -0.0164  0.0176 -0.0316
  584loPI   C1A 9335  15.007   5.264   8.916 -0.4428 -0.4119  0.0284
  584loPI   C2A 9336  15.222   5.232   8.472 -0.2742 -0.0515  0.0229
  584loPI   C3A 9337  15.251   5.203   8.068  0.2213 -0.2387  0.1085
  584loPI   C4A 9338  15.258   5.130   7.640  0.0115  0.1056  0.0963
  584loPI   C5A 9339  14.904   5.033   7.412 -0.0197 -0.2176 -0.1033
  584loPI   C6A 9340  14.767   4.850   7.049 -0.1498 -0.0821  0.1342
  584loPI   C1B 9341  14.540   5.448   8.766 -0.1094  0.3104 -0.3422
  584loPI   C2B 9342  14.762   5.344   8.303 -0.0770 -0.2951  0.0302
  584loPI   C3B 9343  14.935   5.470   7.758  0.0842  0.1239 -0.2748
  584loPI   C4B 9344  15.091   5.621   7.283 -0.0924  0.1725  0.2770
  585loPI    C1 9345  16.717   4.333  10.497 -0.0253  0.0241 -0.0083
  585loPI    C2 9346  16.927   4.478  10.805  0.0405  0.1962 -0.1321
  585loPI    C3 9347  16.605   4.674  10.673  0.0576  0.1637 -0.2226
  585loPI   PO4 9348  16.863   4.250  10.275  0.0541  0.0906 -0.1205
  585loPI   GL1 9349  17.174   4.201   9.988 -0.1787 -0.0005 -0.2666
  585loPI   GL2 9350  17.140   4.450   9.662 -0.3649  0.2185 -0.2367
  585loPI   C1A 9351  17.181   3.912   9.640  0.0757 -0.0720  0.0894
  585loPI   C2A 9352  17.297   3.829   9.199  0.3034 -0.1423 -0.1035
  585loPI   C3A 9353  17.258   3.732   8.757 -0.1725  0.0756  0.1059
  585loPI   C4A 9354  17.296   3.674   8.375  0.2911 -0.0332 -0.4002
  585loPI   C5A 9355  17.432   3.674   7.867 -0.0654  0.0704  0.4096
  585loPI   C6A 9356  17.520   3.672   7.379 -0.1904  0.0418 -0.3225
  585loPI   C1B 9357  17.288   4.290   9.298 -0.1699 -0.0023  0.0420
  585loPI   C2B 9358  17.357   4.326   8.850  0.1280 -0.1426  0.0711
  585loPI   C3B 9359  17.317   4.330   8.448  0.0213 -0.0556  0.0402
  585loPI   C4B 9360  17.439   4.197   8.049 -0.0440  0.1158 -0.0215
  586loPI    C1 9361   9.608   5.045  10.052  0.0254  0.0807 -0.0475
  586loPI    C2 9362   9.629   5.129  10.442  0.0005  0.1118 -0.0529
  586loPI    C3 9363   9.274   5.055  10.272 -0.0033  0.2289 -0.0968
  586loPI   PO4 9364   9.857   4.931   9.933  0.2762  0.3158 -0.0668
  586loPI   GL1 9365  10.123   4.766   9.600  0.0246  0.2802  0.2774
  586loPI   GL2 9366  10.324   4.559   9.519  0.0812  0.1934 -0.0681
  586loPI   C1A 9367   9.835   4.871   9.243 -0.1187 -0.1882 -0.2225
  586loPI   C2A 9368   9.828   4.773   8.774 -0.0558 -0.1246 -0.2776
  586loPI   C3A 9369   9.830   4.787   8.388  0.1341  0.2261 -0.0958
  586loPI   C4A 9370   9.842   4.590   8.021 -0.0359 -0.3106  0.1064
  586loPI   C5A 9371   9.718   4.382   7.630 -0.0722  0.0350 -0.1108
  586loPI   C6A 9372   9.385   4.093   7.477 -0.0196  0.0873  0.0897
  586loPI   C1B 9373  10.279   4.515   9.137 -0.1793 -0.4321  0.2566
  586loPI   C2B 9374  10.225   4.446   8.771 -0.1200 -0.2560 -0.0858
  586loPI   C3B 9375  10.234   4.338   8.279 -0.1456 -0.2419  0.1453
  586loPI   C4B 9376  10.182   4.280   7.808 -0.2743  0.0628 -0.2361
  587loPI    C1 9377  11.876   7.667  10.160 -0.0030  0.0011 -0.1367
  587loPI    C2 9378  12.084   7.969  10.321 -0.2236  0.0406  0.0808
  587loPI    C3 9379  11.751   7.838  10.500 -0.1752 -0.2790 -0.0560
  587loPI   PO4 9380  11.812   7.678   9.917  0.2757  0.1837  0.3408
  587loPI   GL1 9381  11.718   7.454   9.531  0.1061 -0.0609  0.2847
  587loPI   GL2 9382  11.845   7.093   9.494  0.1224 -0.2775 -0.1922
  587loPI   C1A 9383  11.622   7.652   9.161 -0.2668  0.1023 -0.0329
  587loPI   C2A 9384  11.521   7.656   8.727  0.1368 -0.0453  0.2600
  587loPI   C3A 9385  11.337   7.594   8.263 -0.0920 -0.2252  0.0911
  587loPI   C4A 9386  11.418   7.455   7.856  0.3031 -0.1081  0.2029
  587loPI   C5A 9387  11.473   7.285   7.420  0.2238 -0.0615 -0.2420
  587loPI   C6A 9388  11.564   7.336   6.982  0.1541  0.1276 -0.0717
  587loPI   C1B 9389  11.686   7.019   9.090 -0.0326  0.1435 -0.0312
  587loPI   C2B 9390  11.629   7.046   8.724  0.1755  0.3443 -0.0344
  587loPI   C3B 9391  11.626   6.973   8.258 -0.0958  0.1525  0.1209
  587loPI   C4B 9392  11.770   7.000   7.815  0.0800  0.0945 -0.1103
  588loPI    C1 9393   1.432  12.517  11.017  0.0823 -0.0900  0.0980
  588loPI    C2 9394   1.119  12.742  11.126 -0.0958 -0.2147 -0.1458
  588loPI    C3 9395   1.484  12.904  11.104 -0.1531 -0.0513  0.0738
  588loPI   PO4 9396   1.532  12.352  10.787  0.3772 -0.1822 -0.1021
  588loPI   GL1 9397   1.409  12.171  10.427  0.1362  0.0421  0.3318
  588loPI   GL2 9398   1.291  11.936  10.230  0.0669  0.0065 -0.0495
  588loPI   C1A 9399   1.423  12.507  10.075  0.0968  0.0505 -0.0389
  588loPI   C2A 9400   1.532  12.614   9.702  0.1728 -0.0455  0.1747
  588loPI   C3A 9401   1.472  12.513   9.320 -0.2635  0.1071 -0.0049
  588loPI   C4A 9402   1.546  12.534   8.876  0.0950  0.1734  0.3480
  588loPI   C5A 9403   1.417  12.650   8.470 -0.1851  0.3682 -0.1402
  588loPI   C6A 9404   1.386  13.084   8.312  0.1149  0.0872  0.0138
  588loPI   C1B 9405   1.374  12.013   9.774  0.0685  0.1405 -0.0449
  588loPI   C2B 9406   1.416  12.048   9.281  0.4988 -0.3000 -0.2318
  588loPI   C3B 9407   1.383  12.060   8.771 -0.2018 -0.1684  0.1350
  588loPI   C4B 9408   1.322  12.202   8.304 -0.0010  0.0362  0.2646
  589loPI    C1 9409   9.882   1.173  11.162 -0.0289  0.0465 -0.1377
  589loPI    C2 9410   9.597   0.929  11.302  0.0673 -0.0761 -0.1538
  589loPI    C3 9411   9.744   1.220  11.535 -0.2197  0.1229 -0.2168
  589loPI   PO4 9412   9.783   1.259  10.977  0.0681 -0.5872  0.0422
  589loPI   GL1 9413   9.800   1.145  10.482 -0.2250 -0.0505  0.1007
  589loPI   GL2 9414   9.727   0.944  10.316 -0.2000  0.0551  0.1695
  589loPI   C1A 9415   9.906   1.332  10.127  0.2286  0.2206  0.2523
  589loPI   C2A 9416   9.940   1.406   9.673  0.0466 -0.6307  0.2777
  589loPI   C3A 9417   9.884   1.369   9.270  0.1081  0.2171 -0.0340
  589loPI   C4A 9418   9.872   1.292   8.806 -0.1542  0.3343  0.1012
  589loPI   C5A 9419   9.907   1.173   8.380  0.1504  0.0524  0.1585
  589loPI   C6A 9420  10.320   0.959   8.107 -0.1726 -0.1577 -0.1818
  589loPI   C1B 9421   9.685   0.862  10.018 -0.3818 -0.3362  0.3121
  589loPI   C2B 9422   9.772   0.849   9.557 -0.0043 -0.1195 -0.2261
  589loPI   C3B 9423   9.739   0.907   9.133 -0.1180 -0.0218  0.2966
  589loPI   C4B 9424   9.827   0.760   8.759 -0.1002 -0.2246  0.3349
  590loPI    C1 9425  15.775  13.635  10.722  0.0731 -0.0544  0.0408
  590loPI    C2 9426  15.896  13.256  10.680 -0.1042 -0.1209  0.1194
  590loPI    C3 9427  15.841  13.410  11.045  0.3305  0.0997  0.0982
  590loPI   PO4 9428  15.589  13.685  10.558 -0.1261 -0.0011 -0.4067
  590loPI   GL1 9429  15.386  13.772  10.229  0.1862 -0.0707 -0.1645
  590loPI   GL2 9430  15.661  13.800  10.007 -0.0667 -0.0377  0.0861
  590loPI   C1A 9431  15.162  13.867   9.859 -0.0870 -0.0944  0.3346
  590loPI   C2A 9432  14.943  13.901   9.510 -0.2686  0.0246  0.0009
  590loPI   C3A 9433  14.991  13.870   9.146  0.0881  0.2269  0.2460
  590loPI   C4A 9434  15.038  13.940   8.718 -0.0220  0.2423  0.0513
  590loPI   C5A 9435  14.881  14.046   8.207 -0.2314 -0.0194 -0.0169
  590loPI   C6A 9436  14.932  14.478   8.010  0.0109  0.3049 -0.0889
  590loPI   C1B 9437  15.739  13.908   9.643  0.0858 -0.0280  0.0521
  590loPI   C2B 9438  15.947  13.877   9.277  0.0132  0.2360  0.0072
  590loPI   C3B 9439  15.946  13.896   8.834  0.3396 -0.1435  0.1936
  590loPI   C4B 9440  15.852  13.769   8.381  0.1165 -0.0555  0.0250
  591loPI    C1 9441   1.719   0.174  11.568 -0.2981 -0.0838 -0.0272
  591loPI    C2 9442   1.608   0.485  11.794 -0.1126 -0.0398  0.0051
  591loPI    C3 9443   1.878   0.224  11.931 -0.2959 -0.2387 -0.0065
  591loPI   PO4 9444   1.803   0.161  11.335  0.2559  0.0609 -0.1771
  591loPI   GL1 9445   1.715   0.280  10.809  0.2247  0.3122 -0.0108
  591loPI   GL2 9446   1.480   0.018  10.672 -0.2559  0.2433  0.2979
  591loPI   C1A 9447   1.554   0.455  10.425  0.3026 -0.1016  0.0738
  591loPI   C2A 9448   1.473   0.418   9.982 -0.0299 -0.1937  0.0290
  591loPI   C3A 9449   1.630   0.441   9.559 -0.3424  0.0051 -0.0909
  591loPI   C4A 9450   1.487   0.326   9.151  0.1562 -0.1885  0.3135
  591loPI   C5A 9451   1.568   0.293   8.693 -0.0247 -0.2389  0.1209
  591loPI   C6A 9452   1.865   0.336   8.399 -0.0713 -0.0431 -0.0145
  591loPI   C1B 9453   1.573  -0.105  10.277 -0.3002  0.1049 -0.0261
  591loPI   C2B 9454   1.509  -0.073   9.815  0.2008  0.0135  0.1003
  591loPI   C3B 9455   1.466  -0.148   9.351 -0.2763  0.2535 -0.0135
  591loPI   C4B 9456   1.521  -0.221   8.871  0.0499  0.0519  0.0026
  592loPI    C1 9457  17.703  10.334  10.239  0.0126 -0.1338  0.1512
  592loPI    C2 9458  17.514  10.649  10.398 -0.0288 -0.0889  0.0138
  592loPI    C3 9459  17.900  10.678  10.294  0.0256 -0.1484  0.1967
  592loPI   PO4 9460  17.568  10.210  10.010 -0.2454 -0.0056 -0.0691
  592loPI   GL1 9461  17.663  10.219   9.582 -0.0290 -0.0825  0.2152
  592loPI   GL2 9462  17.404  10.369   9.451 -0.1506  0.0728  0.0208
  592loPI   C1A 9463  17.698  10.045   9.064 -0.5106 -0.0812  0.2686
  592loPI   C2A 9464  17.833  10.122   8.731 -0.0834 -0.2960 -0.0961
  592loPI   C3A 9465  17.788  10.141   8.278  0.0154 -0.0302  0.1462
  592loPI   C4A 9466  17.567  10.066   7.794 -0.0727 -0.0146 -0.0889
  592loPI   C5A 9467  17.102   9.846   7.805 -0.1142 -0.2080  0.0580
  592loPI   C6A 9468  16.789   9.902   8.024 -0.0501 -0.0718  0.2394
  592loPI   C1B 9469  17.437  10.450   9.032  0.1129 -0.1270  0.3390
  592loPI   C2B 9470  17.421  10.514   8.573 -0.1626  0.0419 -0.1594
  592loPI   C3B 9471  17.409  10.532   8.118  0.0694  0.1235  0.1448
  592loPI   C4B 9472  17.522  10.593   7.692  0.1831 -0.1405 -0.2525
  593loPI    C1 9473   6.199  16.905  11.148 -0.1557  0.0735  0.0219
  593loPI    C2 9474   5.989  17.196  11.323 -0.2271 -0.0513  0.1457
  593loPI    C3 9475   5.914  16.813  11.412  0.0390 -0.0984  0.1765
  593loPI   PO4 9476   6.201  16.943  10.922  0.1590  0.1469  0.3091
  593loPI   GL1 9477   6.394  16.930  10.460  0.0435 -0.2603  0.0540
  593loPI   GL2 9478   6.127  16.785  10.432 -0.1924  0.1109  0.1384
  593loPI   C1A 9479   6.273  16.821   9.943  0.0149 -0.0021 -0.0816
  593loPI   C2A 9480   6.250  16.831   9.572 -0.1739  0.0374 -0.1090
  593loPI   C3A 9481   6.268  16.740   9.151 -0.1651 -0.1478 -0.4803
  593loPI   C4A 9482   6.148  16.762   8.674  0.2227  0.0043  0.4372
  593loPI   C5A 9483   5.899  16.910   8.269 -0.0977 -0.1029  0.0077
  593loPI   C6A 9484   5.739  17.053   7.963  0.1093 -0.0921 -0.1549
  593loPI   C1B 9485   5.810  16.665  10.175 -0.0283 -0.2410 -0.3975
  593loPI   C2B 9486   5.786  16.654   9.811  0.1931 -0.1684 -0.1731
  593loPI   C3B 9487   5.770  16.542   9.393 -0.2619 -0.0734  0.0784
  593loPI   C4B 9488   5.773  16.639   9.032 -0.2791  0.2422  0.1275
  594loPI    C1 9489  18.327   9.731  10.465 -0.1120 -0.2581  0.0739
  594loPI    C2 9490  18.618   9.526  10.647  0.0356 -0.1612 -0.0495
  594loPI    C3 9491  18.236   9.418  10.696  0.0973 -0.3401  0.0479
  594loPI   PO4 9492  18.366   9.797  10.229  0.4070 -0.0860 -0.0262
  594loPI   GL1 9493  18.491   9.897   9.940 -0.3601 -0.4058 -0.1566
  594loPI   GL2 9494  18.808  10.127   9.833  0.0928 -0.0532 -0.0943
  594loPI   C1A 9495  18.504   9.705   9.449 -0.1276  0.1393 -0.0279
  594loPI   C2A 9496  18.612   9.665   9.009  0.2240  0.0256 -0.0045
  594loPI   C3A 9497  18.533   9.526   8.553  0.0676 -0.0421 -0.2477
  594loPI   C4A 9498  18.695   9.616   8.101  0.3558  0.0832  0.1172
  594loPI   C5A 9499  18.567   9.578   7.691  0.1837 -0.2353 -0.2358
  594loPI   C6A 9500  18.409   9.656   7.305 -0.2721 -0.2023 -0.1409
  594loPI   C1B 9501  18.741  10.112   9.342  0.0772  0.1950  0.0003
  594loPI   C2B 9502  18.521  10.116   8.933  0.0831 -0.3087  0.0122
  594loPI   C3B 9503  18.666  10.126   8.487 -0.1462 -0.0656  0.0422
  594loPI   C4B 9504  18.773  10.111   8.058 -0.1051 -0.0664 -0.0880
  595loPI    C1 9505   3.922  10.509  10.735  0.0791  0.1417 -0.0961
  595loPI    C2 9506   3.918  10.813  10.996  0.0019  0.0653 -0.0077
  595loPI    C3 9507   4.065  10.458  11.105 -0.2083 -0.0224 -0.0050
  595loPI   PO4 9508   3.652  10.538  10.624  0.1027  0.0310 -0.0372
  595loPI   GL1 9509   3.454  10.395  10.318 -0.0439  0.1371  0.0813
  595loPI   GL2 9510   3.215  10.592  10.329 -0.2092 -0.0206  0.1561
  595loPI   C1A 9511   3.523  10.495   9.946 -0.2029  0.1259  0.1603
  595loPI   C2A 9512   3.518  10.530   9.467  0.0250  0.1713  0.4415
  595loPI   C3A 9513   3.499  10.487   9.034  0.1458 -0.2522  0.2075
  595loPI   C4A 9514   3.502  10.429   8.609 -0.2523  0.0255  0.1134
  595loPI   C5A 9515   3.642  10.517   8.144  0.1205  0.0492 -0.1729
  595loPI   C6A 9516   3.630  10.561   7.686  0.1714 -0.1282 -0.0194
  595loPI   C1B 9517   3.136  10.759  10.003 -0.0858  0.0104  0.0029
  595loPI   C2B 9518   3.017  10.816   9.667  0.3091 -0.1022 -0.0248
  595loPI   C3B 9519   3.109  10.756   9.266  0.0609 -0.2826  0.0053
  595loPI   C4B 9520   3.143  10.720   8.762  0.1460  0.1062  0.5333
  596loPI    C1 9521   1.685   1.048  11.087 -0.2363  0.1744  0.0675
  596loPI    C2 9522   1.470   0.800  10.858  0.2318 -0.1439 -0.0423
  596loPI    C3 9523   1.479   0.749  11.255  0.1395 -0.1555 -0.0416
  596loPI   PO4 9524   1.922   1.089  10.935  0.2996  0.0117  0.2044
  596loPI   GL1 9525   1.939   1.022  10.632  0.0209 -0.0242  0.2738
  596loPI   GL2 9526   1.950   0.704  10.606 -0.2529 -0.2193  0.0820
  596loPI   C1A 9527   2.084   1.184  10.294  0.1449 -0.1202 -0.1264
  596loPI   C2A 9528   2.092   1.133   9.847 -0.1373  0.1716  0.0014
  596loPI   C3A 9529   2.074   1.131   9.479 -0.0462 -0.0015 -0.0980
  596loPI   C4A 9530   2.163   1.149   9.066  0.1883 -0.0802  0.0055
  596loPI   C5A 9531   2.132   1.079   8.679 -0.1408  0.1983  0.0634
  596loPI   C6A 9532   2.186   0.774   8.410 -0.1352  0.3618  0.1040
  596loPI   C1B 9533   1.970   0.622  10.173 -0.4155  0.0544 -0.2996
  596loPI   C2B 9534   2.030   0.679   9.720  0.1418 -0.0353  0.0085
  596loPI   C3B 9535   2.010   0.696   9.251  0.0016  0.0935 -0.0775
  596loPI   C4B 9536   2.062   0.547   8.847  0.1728  0.0009 -0.2238
  597loPI    C1 9537   1.239   6.115  11.054 -0.1267 -0.1628  0.1338
  597loPI    C2 9538   1.300   6.433  11.288  0.1411 -0.0968 -0.0209
  597loPI    C3 9539   1.216   6.078  11.451 -0.0240  0.0223  0.1582
  597loPI   PO4 9540   1.141   6.291  10.786  0.2375 -0.0441 -0.0404
  597loPI   GL1 9541   1.039   6.263  10.312  0.0179  0.2614 -0.3527
  597loPI   GL2 9542   1.267   6.319  10.202  0.0933 -0.0562 -0.1246
  597loPI   C1A 9543   0.973   6.069   9.921  0.0198 -0.1630 -0.0142
  597loPI   C2A 9544   1.032   6.162   9.497 -0.1029 -0.1647  0.0757
  597loPI   C3A 9545   1.044   6.060   9.050 -0.1682 -0.2829 -0.3161
  597loPI   C4A 9546   1.166   5.979   8.614  0.0123 -0.0177  0.3097
  597loPI   C5A 9547   1.165   6.108   8.200 -0.3149 -0.1468  0.1696
  597loPI   C6A 9548   1.240   5.773   7.844  0.0957 -0.0654  0.2538
  597loPI   C1B 9549   1.469   6.238   9.814 -0.2972  0.0171  0.0578
  597loPI   C2B 9550   1.547   6.299   9.444 -0.0668  0.1484 -0.0161
  597loPI   C3B 9551   1.511   6.231   9.027 -0.0431  0.0802  0.0676
  597loPI   C4B 9552   1.609   6.164   8.554 -0.0120 -0.2845 -0.0459
  598loPI    C1 9553   3.783   7.217  10.392 -0.2284  0.0345 -0.0944
  598loPI    C2 9554   3.652   7.411  10.716 -0.2697  0.0381 -0.1132
  598loPI    C3 9555   3.789   7.037  10.750 -0.1525  0.0843 -0.0704
  598loPI   PO4 9556   3.928   7.328  10.283 -0.0251  0.0116  0.2223
  598loPI   GL1 9557   3.983   7.203   9.918  0.0936  0.4410 -0.1118
  598loPI   GL2 9558   3.674   7.349   9.888 -0.0792 -0.3171  0.1447
  598loPI   C1A 9559   3.987   7.150   9.505 -0.0501 -0.1967 -0.0794
  598loPI   C2A 9560   3.884   7.269   9.102  0.0797 -0.1590  0.0852
  598loPI   C3A 9561   3.955   7.269   8.709  0.0530  0.3093 -0.3247
  598loPI   C4A 9562   4.038   7.160   8.292 -0.0375 -0.0974 -0.0106
  598loPI   C5A 9563   4.051   7.066   7.865 -0.2195 -0.1727 -0.2050
  598loPI   C6A 9564   4.395   7.140   7.469 -0.1076  0.2692  0.1269
  598loPI   C1B 9565   3.483   7.667   9.603 -0.1511 -0.3804 -0.0723
  598loPI   C2B 9566   3.487   7.626   9.151 -0.1651  0.2769 -0.1822
  598loPI   C3B 9567   3.471   7.476   8.673  0.0071  0.0846 -0.1960
  598loPI   C4B 9568   3.554   7.552   8.303  0.2543  0.0783 -0.1790
  599loPI    C1 9569   1.931   2.849  11.275 -0.1927 -0.1580  0.0649
  599loPI    C2 9570   2.166   2.623  11.506 -0.1085 -0.0519  0.0838
  599loPI    C3 9571   2.054   2.986  11.630  0.1925  0.1337 -0.1745
  599loPI   PO4 9572   2.082   2.809  11.013  0.1130  0.0234 -0.3620
  599loPI   GL1 9573   2.062   2.834  10.584  0.4235  0.1744 -0.3605
  599loPI   GL2 9574   2.214   2.990  10.410 -0.2315 -0.1060 -0.1430
  599loPI   C1A 9575   1.867   2.545  10.231 -0.1300  0.0482 -0.0160
  599loPI   C2A 9576   1.821   2.506   9.782 -0.0058 -0.1372 -0.0357
  599loPI   C3A 9577   1.886   2.465   9.328  0.0878  0.1463  0.3148
  599loPI   C4A 9578   1.884   2.447   8.862 -0.1551 -0.2043  0.2271
  599loPI   C5A 9579   1.974   2.544   8.389 -0.2250 -0.1972 -0.0051
  599loPI   C6A 9580   2.253   2.479   8.024 -0.2362 -0.1677  0.2663
  599loPI   C1B 9581   2.278   2.781   9.999 -0.0911 -0.3119 -0.1736
  599loPI   C2B 9582   2.279   2.659   9.565 -0.0194  0.0222 -0.4485
  599loPI   C3B 9583   2.305   2.696   9.110  0.3596 -0.2726  0.1056
  599loPI   C4B 9584   2.367   2.664   8.640 -0.0789  0.0624  0.1881
  600loPI    C1 9585  18.346   5.304  10.573 -0.3278 -0.1577 -0.1466
  600loPI    C2 9586  18.130   5.034  10.773 -0.3826  0.0631  0.0982
  600loPI    C3 9587  18.165   5.406  10.915 -0.0360  0.0957 -0.0628
  600loPI   PO4 9588  18.346   5.242  10.400 -0.2076  0.0907  0.4361
  600loPI   GL1 9589  18.578   5.358   9.918 -0.1865  0.0412 -0.0747
  600loPI   GL2 9590  18.208   5.243   9.878  0.0242  0.4342  0.0829
  600loPI   C1A 9591  18.818   5.422   9.550  0.1580  0.1361 -0.2321
  600loPI   C2A 9592  18.996   5.355   9.187 -0.0761  0.1012 -0.0121
  600loPI   C3A 9593  18.907   5.394   8.792 -0.1186 -0.0488  0.2726
  600loPI   C4A 9594  18.927   5.313   8.361 -0.1198  0.1343  0.0475
  600loPI   C5A 9595  18.910   5.389   7.986  0.2860  0.2175 -0.0307
  600loPI   C6A 9596  18.862   5.420   7.540  0.1902  0.2648  0.2691
  600loPI   C1B 9597  18.308   5.240   9.496  0.1500 -0.0082 -0.2727
  600loPI   C2B 9598  18.467   5.209   9.153 -0.1949  0.0298 -0.0237
  600loPI   C3B 9599  18.437   5.245   8.759 -0.2245  0.3999 -0.0402
  600loPI   C4B 9600  18.475   5.061   8.321 -0.1248 -0.2248  0.0215
  601loPI    C1 9601   5.848   1.867  11.327  0.0495  0.0716 -0.0239
  601loPI    C2 9602   5.458   1.930  11.268  0.0635  0.2139  0.0311
  601loPI    C3 9603   5.638   2.081  11.591  0.1742  0.1884 -0.0181
  601loPI   PO4 9604   5.937   1.884  11.051  0.0668  0.0491 -0.1738
  601loPI   GL1 9605   6.030   1.707  10.647 -0.1444 -0.0505  0.2626
  601loPI   GL2 9606   6.175   1.460  10.545  0.0506  0.1491 -0.0793
  601loPI   C1A 9607   5.829   1.796  10.164 -0.3063 -0.1557 -0.0916
  601loPI   C2A 9608   5.778   1.768   9.756 -0.0249 -0.1413  0.2491
  601loPI   C3A 9609   5.771   1.684   9.263 -0.3331  0.1374 -0.1541
  601loPI   C4A 9610   5.845   1.650   8.763 -0.0502 -0.0693 -0.2131
  601loPI   C5A 9611   5.704   1.490   8.437 -0.0593  0.1102 -0.0328
  601loPI   C6A 9612   5.830   1.264   8.052 -0.1420  0.0795  0.1411
  601loPI   C1B 9613   6.215   1.502  10.150 -0.0037 -0.0773 -0.3000
  601loPI   C2B 9614   6.167   1.429   9.692  0.0158 -0.0823 -0.2441
  601loPI   C3B 9615   6.175   1.393   9.301  0.1713 -0.1677  0.3485
  601loPI   C4B 9616   6.242   1.360   8.888 -0.3291  0.2419  0.2126
  602loPI    C1 9617  17.150   4.648  10.342  0.0764 -0.0506  0.1479
  602loPI    C2 9618  17.445   4.900  10.441  0.0413  0.0100  0.0991
  602loPI    C3 9619  17.098   4.908  10.641 -0.0391  0.1498 -0.0439
  602loPI   PO4 9620  17.155   4.665  10.121  0.1543 -0.0868 -0.2355
  602loPI   GL1 9621  17.286   4.987   9.822  0.0812 -0.0940 -0.2348
  602loPI   GL2 9622  17.584   4.957   9.880  0.5453  0.0264  0.0582
  602loPI   C1A 9623  17.431   4.776   9.340 -0.3059  0.2469  0.2016
  602loPI   C2A 9624  17.556   4.807   8.920  0.1023  0.1402 -0.1012
  602loPI   C3A 9625  17.505   4.796   8.521  0.2016  0.1024 -0.1102
  602loPI   C4A 9626  17.494   4.666   8.126  0.0572  0.0584 -0.1065
  602loPI   C5A 9627  17.756   4.588   7.760 -0.0002  0.3592  0.1065
  602loPI   C6A 9628  17.794   4.775   7.419  0.1504  0.2877 -0.1449
  602loPI   C1B 9629  17.813   5.096   9.579  0.3251  0.2998  0.0284
  602loPI   C2B 9630  17.936   5.129   9.076 -0.0288  0.0583  0.1140
  602loPI   C3B 9631  18.015   4.987   8.693  0.1887 -0.2376  0.2879
  602loPI   C4B 9632  17.964   4.874   8.281  0.0846  0.2624  0.0643
  603loPI    C1 9633  14.013  12.276  10.678  0.1489  0.3308 -0.1644
  603loPI    C2 9634  13.920  12.293  11.067 -0.1231  0.1529 -0.2185
  603loPI    C3 9635  14.207  12.044  10.940  0.0296  0.2781 -0.1217
  603loPI   PO4 9636  13.808  12.456  10.571  0.1138  0.0404  0.1719
  603loPI   GL1 9637  13.528  12.525  10.169 -0.4097  0.0264  0.3445
  603loPI   GL2 9638  13.792  12.595  10.073 -0.2875  0.1239 -0.1867
  603loPI   C1A 9639  13.505  12.734   9.689  0.1323 -0.3448 -0.0582
  603loPI   C2A 9640  13.531  12.902   9.340  0.0164 -0.0643  0.4889
  603loPI   C3A 9641  13.541  12.904   8.867  0.1232  0.0612  0.0728
  603loPI   C4A 9642  13.468  12.823   8.459  0.4660  0.1081 -0.0980
  603loPI   C5A 9643  13.442  12.519   8.147  0.1515 -0.1905 -0.3628
  603loPI   C6A 9644  13.467  12.138   7.950 -0.0014  0.0504  0.1966
  603loPI   C1B 9645  13.904  12.474   9.795 -0.4278  0.0235  0.1310
  603loPI   C2B 9646  13.860  12.493   9.340  0.0943 -0.0195 -0.0672
  603loPI   C3B 9647  13.913  12.517   8.897 -0.1563  0.1613 -0.3468
  603loPI   C4B 9648  13.813  12.473   8.469 -0.1044 -0.1477  0.0650
  604loPI    C1 9649   4.380  10.140  10.719 -0.1234 -0.2999  0.1280
  604loPI    C2 9650   4.493   9.780  10.853  0.4389 -0.0598  0.3264
  604loPI    C3 9651   4.428  10.079  11.111  0.1600  0.0351  0.1502
  604loPI   PO4 9652   4.229  10.129  10.590  0.0174 -0.1006  0.0189
  604loPI   GL1 9653   4.219   9.940  10.213  0.1301 -0.0951 -0.0586
  604loPI   GL2 9654   4.331   9.670  10.229 -0.0018 -0.1584 -0.0513
  604loPI   C1A 9655   3.905  10.167  10.026  0.2421 -0.4516  0.0155
  604loPI   C2A 9656   3.878  10.115   9.663  0.0924 -0.0911  0.0118
  604loPI   C3A 9657   3.898  10.175   9.255  0.1197 -0.4562  0.0152
  604loPI   C4A 9658   4.012  10.097   8.912  0.2173  0.1408 -0.0891
  604loPI   C5A 9659   3.984  10.106   8.506  0.0362 -0.0359 -0.0364
  604loPI   C6A 9660   3.971  10.167   8.024  0.2080 -0.3471 -0.1837
  604loPI   C1B 9661   4.348   9.747   9.747 -0.1536  0.2580  0.1416
  604loPI   C2B 9662   4.296   9.794   9.353 -0.1930  0.1851  0.1013
  604loPI   C3B 9663   4.417   9.790   8.997 -0.1942  0.1416 -0.0604
  604loPI   C4B 9664   4.355   9.756   8.554 -0.1015 -0.2391  0.2562
  605loPI    C1 9665   6.619  17.811  11.187 -0.0753  0.0922 -0.0953
  605loPI    C2 9666   6.282  17.665  11.344 -0.0654 -0.1264 -0.2723
  605loPI    C3 9667   6.480  17.957  11.533 -0.3002 -0.0635 -0.1178
  605loPI   PO4 9668   6.643  17.762  10.954  0.2516 -0.3637  0.0341
  605loPI   GL1 9669   6.931  18.006  10.657 -0.2555 -0.0570 -0.1848
  605loPI   GL2 9670   6.981  17.812  10.513  0.2542  0.2190 -0.0032
  605loPI   C1A 9671   6.904  18.210  10.279 -0.0075 -0.1908 -0.0570
  605loPI   C2A 9672   6.951  18.100   9.853 -0.1435 -0.2516  0.0444
  605loPI   C3A 9673   6.907  18.218   9.417 -0.1463  0.0732  0.4438
  605loPI   C4A 9674   7.039  18.125   8.990 -0.0248 -0.0026 -0.1495
  605loPI   C5A 9675   6.919  17.910   8.567  0.1025  0.0424  0.2317
  605loPI   C6A 9676   6.878  17.746   8.070  0.2616 -0.1262 -0.0893
  605loPI   C1B 9677   6.767  17.614  10.151  0.0556  0.2113  0.3567
  605loPI   C2B 9678   6.742  17.469   9.821 -0.3838  0.0307 -0.0545
  605loPI   C3B 9679   6.800  17.518   9.411  0.2689  0.2506  0.0660
  605loPI   C4B 9680   6.909  17.602   9.030  0.1172  0.1655 -0.1143
  606loPI    C1 9681  12.335  11.828  10.571  0.0191 -0.0531 -0.1592
  606loPI    C2 9682  12.037  11.565  10.617 -0.1989  0.2104 -0.0331
  606loPI    C3 9683  12.289  11.636  10.919 -0.0954  0.0944 -0.0915
  606loPI   PO4 9684  12.243  11.934  10.339  0.4142  0.0353 -0.0606
  606loPI   GL1 9685  12.250  11.935   9.947 -0.1760 -0.5108  0.3427
  606loPI   GL2 9686  12.472  12.158   9.938 -0.2259  0.1839  0.2327
  606loPI   C1A 9687  12.537  11.706   9.564  0.0655 -0.1182  0.0501
  606loPI   C2A 9688  12.515  11.688   9.122 -0.2851 -0.0317 -0.0273
  606loPI   C3A 9689  12.496  11.801   8.731  0.1688 -0.0502 -0.1455
  606loPI   C4A 9690  12.225  11.818   8.318  0.0920 -0.5005  0.1006
  606loPI   C5A 9691  12.187  11.608   8.038  0.1158 -0.2855 -0.1412
  606loPI   C6A 9692  12.457  11.648   7.783  0.0518 -0.1698 -0.2563
  606loPI   C1B 9693  12.466  12.207   9.509  0.2829  0.2750  0.2097
  606loPI   C2B 9694  12.400  12.157   9.107  0.3327 -0.0619 -0.0015
  606loPI   C3B 9695  12.189  12.217   8.719  0.3416 -0.2579  0.0964
  606loPI   C4B 9696  12.019  12.318   8.314  0.3122  0.1814 -0.1905
  607loPI    C1 9697  16.411  17.975  10.820 -0.0699  0.1708  0.0683
  607loPI    C2 9698  16.147  18.044  11.112  0.0723 -0.2614  0.3090
  607loPI    C3 9699  16.539  18.081  11.184  0.0961  0.0166  0.0567
  607loPI   PO4 9700  16.309  17.955  10.640 -0.1112 -0.0423 -0.3459
  607loPI   GL1 9701  15.933  17.937  10.417 -0.2998 -0.1685  0.4455
  607loPI   GL2 9702  16.108  18.280  10.235 -0.1575 -0.0810 -0.5723
  607loPI   C1A 9703  15.952  17.794   9.972 -0.1855 -0.1195  0.2614
  607loPI   C2A 9704  16.074  17.840   9.558 -0.0372 -0.0187 -0.2264
  607loPI   C3A 9705  16.002  17.747   9.169  0.0697  0.1076 -0.1336
  607loPI   C4A 9706  16.052  17.795   8.735  0.0128  0.0783  0.0083
  607loPI   C5A 9707  15.979  17.828   8.374  0.1517  0.2468 -0.0641
  607loPI   C6A 9708  16.078  17.755   7.992  0.2679  0.1214 -0.1152
  607loPI   C1B 9709  16.107  18.266   9.827 -0.0065 -0.1968 -0.2228
  607loPI   C2B 9710  16.154  18.338   9.362 -0.0159 -0.3880  0.0862
  607loPI   C3B 9711  16.075  18.332   8.990 -0.0175  0.1833  0.3158
  607loPI   C4B 9712  16.134  18.239   8.603  0.2511 -0.0341  0.3366
  608loPI    C1 9713  11.579   2.988  10.385 -0.1975 -0.1585 -0.3221
  608loPI    C2 9714  11.565   3.367  10.512  0.0507 -0.1768 -0.2362
  608loPI    C3 9715  11.289   3.105  10.634 -0.2382  0.0213 -0.4517
  608loPI   PO4 9716  11.553   2.957  10.166  0.0344 -0.0974  0.0296
  608loPI   GL1 9717  11.330   3.033   9.784 -0.0254 -0.3389  0.3146
  608loPI   GL2 9718  11.578   3.353   9.533  0.0557 -0.0657  0.2452
  608loPI   C1A 9719  11.563   2.933   9.330  0.0560  0.0561 -0.0409
  608loPI   C2A 9720  11.564   2.880   8.941  0.3274  0.1094 -0.1815
  608loPI   C3A 9721  11.406   2.945   8.509 -0.1220 -0.0490  0.1296
  608loPI   C4A 9722  11.335   2.818   8.030 -0.0561 -0.1043 -0.1479
  608loPI   C5A 9723  11.031   2.662   7.676  0.0410  0.0044  0.1799
  608loPI   C6A 9724  10.653   2.508   7.548 -0.0003 -0.2630 -0.0350
  608loPI   C1B 9725  11.642   3.343   9.128 -0.1000 -0.0896 -0.2330
  608loPI   C2B 9726  11.546   3.363   8.690 -0.0660 -0.1248  0.0324
  608loPI   C3B 9727  11.448   3.492   8.313  0.1429  0.2084  0.3467
  608loPI   C4B 9728  11.479   3.542   7.832 -0.1951 -0.0057 -0.2352
  609POPI    C1 9729   1.917  13.628  11.039 -0.0918  0.4079 -0.0271
  609POPI    C2 9730   2.198  13.765  11.288  0.1657 -0.0284 -0.0673
  609POPI    C3 9731   2.006  13.425  11.372 -0.1877  0.1443 -0.1595
  609POPI   PO4 9732   2.014  13.609  10.849 -0.1799  0.0379  0.0762
  609POPI   GL1 9733   2.179  13.646  10.430 -0.0277  0.1738 -0.1763
  609POPI   GL2 9734   1.968  13.345  10.435 -0.0464 -0.2836 -0.1140
  609POPI   C1A 9735   2.245  13.731   9.968 -0.0091  0.1588 -0.0842
  609POPI   D2A 9736   2.283  13.841   9.525  0.1042  0.0374  0.0159
  609POPI   C3A 9737   2.261  13.715   9.075  0.1622 -0.3123 -0.0701
  609POPI   C4A 9738   2.230  13.723   8.657  0.1645 -0.0049 -0.2279
  609POPI   C1B 9739   2.073  13.284  10.017 -0.0842  0.1184  0.1441
  609POPI   C2B 9740   2.192  13.325   9.649 -0.1636  0.1074  0.1094
  609POPI   C3B 9741   2.082  13.244   9.202 -0.2229  0.0148 -0.1900
  609POPI   C4B 9742   2.169  13.216   8.792 -0.1795 -0.0123 -0.0254
  610POPI    C1 9743   5.418   5.102  10.747  0.0104 -0.0914  0.0429
  610POPI    C2 9744   5.100   4.874  10.831 -0.0624 -0.0837 -0.2055
  610POPI    C3 9745   5.129   5.242  10.986 -0.1359 -0.1137 -0.1198
  610POPI   PO4 9746   5.362   5.167  10.477  0.1675 -0.0164  0.0208
  610POPI   GL1 9747   5.299   5.064  10.110  0.4671  0.1429  0.3343
  610POPI   GL2 9748   5.487   4.905   9.942 -0.3510 -0.0693  0.2882
  610POPI   C1A 9749   4.950   5.217   9.773  0.0020  0.0489 -0.2594
  610POPI   D2A 9750   4.882   5.180   9.315 -0.4309 -0.2439 -0.3479
  610POPI   C3A 9751   4.937   5.140   8.839 -0.0211  0.2878 -0.1040
  610POPI   C4A 9752   4.989   5.083   8.451 -0.0049 -0.0129 -0.2696
  610POPI   C1B 9753   5.276   4.926   9.564  0.0558  0.0476  0.3575
  610POPI   C2B 9754   5.290   4.912   9.221 -0.0643  0.0007  0.0575
  610POPI   C3B 9755   5.358   4.852   8.792  0.3593 -0.1524  0.2021
  610POPI   C4B 9756   5.471   4.770   8.376  0.1799  0.3075  0.3017
  611POPI    C1 9757   4.046  14.570  11.340  0.0362  0.0411  0.0404
  611POPI    C2 9758   4.410  14.732  11.310  0.1324 -0.2147 -0.2280
  611POPI    C3 9759   4.315  14.514  11.631  0.2108 -0.1382 -0.1520
  611POPI   PO4 9760   3.911  14.730  11.114  0.2839 -0.0331  0.2233
  611POPI   GL1 9761   3.924  14.629  10.669  0.3238  0.2907 -0.0274
  611POPI   GL2 9762   3.974  14.951  10.642 -0.2414 -0.0451 -0.1288
  611POPI   C1A 9763   4.173  14.554  10.365  0.0231  0.5269 -0.0383
  611POPI   D2A 9764   4.262  14.543   9.925 -0.1494 -0.0523  0.0542
  611POPI   C3A 9765   4.186  14.500   9.426  0.0520 -0.0282 -0.1153
  611POPI   C4A 9766   4.144  14.433   9.000  0.1686 -0.0342  0.0203
  611POPI   C1B 9767   3.734  14.890  10.272 -0.3330  0.3438  0.1396
  611POPI   C2B 9768   3.755  14.974   9.846 -0.1152 -0.1222 -0.2837
  611POPI   C3B 9769   3.800  14.957   9.477 -0.1000 -0.2263  0.0428
  611POPI   C4B 9770   3.808  14.774   9.050  0.2446  0.2075  0.0478
  612POPI    C1 9771   6.744  16.310  11.143 -0.0308 -0.1597  0.1559
  612POPI    C2 9772   7.078  16.527  11.174  0.0218 -0.2679  0.3618
  612POPI    C3 9773   7.089  16.132  11.237 -0.1310 -0.2839  0.2936
  612POPI   PO4 9774   6.713  16.311  10.886  0.1464  0.2305  0.1437
  612POPI   GL1 9775   6.609  16.151  10.437  0.1948  0.1921  0.1647
  612POPI   GL2 9776   6.297  16.265  10.529 -0.4844 -0.3285 -0.4132
  612POPI   C1A 9777   6.507  15.945  10.001  0.0155  0.2146  0.0606
  612POPI   D2A 9778   6.458  15.990   9.603 -0.1995  0.1658 -0.1190
  612POPI   C3A 9779   6.507  15.918   9.209  0.0974 -0.2350  0.3618
  612POPI   C4A 9780   6.564  16.047   8.746  0.0397 -0.2106  0.0512
  612POPI   C1B 9781   6.188  16.373  10.176 -0.0997 -0.0274 -0.4132
  612POPI   C2B 9782   6.111  16.327   9.738 -0.2966  0.2640  0.3279
  612POPI   C3B 9783   6.153  16.245   9.289  0.4252  0.2783 -0.2166
  612POPI   C4B 9784   6.139  16.284   8.891 -0.0523  0.3349  0.1137
  613POPI    C1 9785  15.001   6.215   9.909  0.0136  0.0541 -0.1174
  613POPI    C2 9786  14.746   6.424  10.135  0.0181  0.0725 -0.1293
  613POPI    C3 9787  15.107   6.329  10.278  0.0319  0.1090 -0.1395
  613POPI   PO4 9788  15.070   6.351   9.729 -0.0969 -0.1435 -0.2480
  613POPI   GL1 9789  14.920   6.542   9.449  0.2541 -0.0434  0.0901
  613POPI   GL2 9790  14.659   6.700   9.344 -0.0089 -0.2258  0.1085
  613POPI   C1A 9791  15.054   6.488   9.076 -0.0446 -0.0217  0.1402
  613POPI   D2A 9792  15.242   6.168   8.747  0.2079  0.0269 -0.1860
  613POPI   C3A 9793  14.960   6.204   8.420  0.3460 -0.2259  0.1551
  613POPI   C4A 9794  14.816   6.063   8.034  0.1234 -0.0077 -0.0110
  613POPI   C1B 9795  14.424   6.828   8.989  0.1868  0.1940  0.1240
  613POPI   C2B 9796  14.316   6.859   8.562  0.0369  0.0245 -0.0203
  613POPI   C3B 9797  14.245   6.851   8.167  0.0479 -0.3634  0.2651
  613POPI   C4B 9798  14.079   6.948   7.731  0.3582 -0.0756  0.0693
  614POPI    C1 9799  13.954   3.673  10.193 -0.0265 -0.1016  0.0177
  614POPI    C2 9800  14.301   3.529  10.330 -0.1778 -0.3535  0.1449
  614POPI    C3 9801  14.055   3.725  10.577  0.0793  0.2433 -0.0539
  614POPI   PO4 9802  13.895   3.546   9.993 -0.0170  0.0124  0.1081
  614POPI   GL1 9803  13.987   3.672   9.581 -0.5280 -0.0907 -0.0436
  614POPI   GL2 9804  14.259   3.586   9.445 -0.2425  0.0767 -0.1779
  614POPI   C1A 9805  13.877   3.594   9.095 -0.6153  0.0476  0.2013
  614POPI   D2A 9806  13.752   3.503   8.713  0.0224  0.1918 -0.0466
  614POPI   C3A 9807  13.802   3.389   8.363 -0.0292 -0.0718  0.1425
  614POPI   C4A 9808  13.785   3.205   7.923  0.0501  0.0717  0.0167
  614POPI   C1B 9809  14.339   3.683   9.036  0.1483 -0.1648 -0.2470
  614POPI   C2B 9810  14.209   3.670   8.612  0.0557 -0.2676 -0.0362
  614POPI   C3B 9811  14.243   3.616   8.180  0.0047  0.0708  0.0286
  614POPI   C4B 9812  14.171   3.765   7.717  0.1012 -0.0346 -0.1050
  615POPI    C1 9813  12.584   9.911  10.303  0.2417  0.0364  0.1346
  615POPI    C2 9814  12.228   9.730  10.325  0.2503  0.0054  0.0279
  615POPI    C3 9815  12.272  10.104  10.462  0.2009 -0.0258  0.1300
  615POPI   PO4 9816  12.625   9.846  10.017 -0.0764  0.2183 -0.1770
  615POPI   GL1 9817  12.590  10.142   9.672 -0.0460 -0.2317  0.1633
  615POPI   GL2 9818  12.846  10.293   9.756 -0.0804 -0.2069 -0.0692
  615POPI   C1A 9819  12.721  10.246   9.190 -0.0165  0.1706  0.0553
  615POPI   D2A 9820  13.003  10.352   8.828  0.1065 -0.0445 -0.1963
  615POPI   C3A 9821  12.939  10.313   8.365  0.3114 -0.0685  0.0896
  615POPI   C4A 9822  12.879  10.547   8.005 -0.0162 -0.2308  0.1538
  615POPI   C1B 9823  12.933  10.610   9.449 -0.1529 -0.1211  0.0224
  615POPI   C2B 9824  12.871  10.740   9.132  0.2863  0.1637 -0.0728
  615POPI   C3B 9825  12.757  10.788   8.716 -0.1067  0.0692 -0.0363
  615POPI   C4B 9826  12.764  10.984   8.251  0.0539 -0.0521 -0.0406
  616POPI    C1 9827   8.784   3.936  10.225 -0.0797  0.2376  0.0193
  616POPI    C2 9828   8.839   4.054  10.604 -0.1415  0.0171  0.0986
  616POPI    C3 9829   9.060   4.213  10.310  0.1133 -0.0245  0.2645
  616POPI   PO4 9830   8.512   3.848  10.236 -0.1338  0.1425 -0.1077
  616POPI   GL1 9831   8.261   3.436  10.041  0.1112 -0.0690  0.1683
  616POPI   GL2 9832   8.004   3.319  10.316 -0.0112 -0.1251  0.0737
  616POPI   C1A 9833   8.374   3.174   9.601 -0.2994 -0.1036  0.0777
  616POPI   D2A 9834   8.281   3.113   9.115 -0.0801  0.0493 -0.4938
  616POPI   C3A 9835   8.275   3.227   8.669 -0.2469  0.1370 -0.0140
  616POPI   C4A 9836   8.140   3.075   8.225  0.0835  0.1797 -0.1543
  616POPI   C1B 9837   7.956   3.094   9.905  0.1660 -0.1243 -0.2583
  616POPI   C2B 9838   7.825   2.978   9.538 -0.0005  0.1084  0.2210
  616POPI   C3B 9839   7.801   2.952   9.104 -0.4859  0.1287  0.1469
  616POPI   C4B 9840   7.874   2.897   8.620 -0.3323  0.0457  0.0527
  617POPI    C1 9841  16.080   5.328   9.815  0.1212  0.1793 -0.0210
  617POPI    C2 9842  15.897   5.512  10.119  0.1285 -0.0286  0.1113
  617POPI    C3 9843  16.234   5.665   9.967  0.0438  0.1575  0.1069
  617POPI   PO4 9844  15.909   5.236   9.711  0.2101  0.2137  0.0375
  617POPI   GL1 9845  15.781   5.261   9.385  0.3825 -0.3100 -0.0061
  617POPI   GL2 9846  15.944   5.128   9.191  0.0728  0.1385  0.1893
  617POPI   C1A 9847  15.603   5.429   8.983  0.0210 -0.3119  0.0622
  617POPI   D2A 9848  15.642   5.454   8.562 -0.0852 -0.0346 -0.2461
  617POPI   C3A 9849  15.793   5.406   8.202  0.1281  0.1926  0.1437
  617POPI   C4A 9850  15.724   5.428   7.776 -0.1706 -0.1759  0.1892
  617POPI   C1B 9851  16.050   5.200   8.901 -0.0874 -0.1429  0.2993
  617POPI   C2B 9852  16.125   5.191   8.537 -0.3116 -0.1415 -0.5027
  617POPI   C3B 9853  16.181   5.126   8.133  0.4524 -0.1682  0.0185
  617POPI   C4B 9854  16.090   5.089   7.754 -0.0980  0.1336 -0.1123
  618POPI    C1 9855  12.536   3.374  10.253  0.1610  0.0776 -0.2474
  618POPI    C2 9856  12.813   3.483  10.520 -0.1901  0.1649  0.0916
  618POPI    C3 9857  12.539   3.747  10.397 -0.1758  0.0574 -0.1776
  618POPI   PO4 9858  12.568   3.290  10.037  0.0033 -0.2292  0.0657
  618POPI   GL1 9859  12.552   3.141   9.724 -0.4033 -0.1122  0.0096
  618POPI   GL2 9860  12.365   3.475   9.615 -0.2411  0.0395  0.1569
  618POPI   C1A 9861  12.503   2.909   9.431 -0.0319 -0.2180 -0.1714
  618POPI   D2A 9862  12.466   2.748   9.050 -0.0156 -0.0972 -0.1577
  618POPI   C3A 9863  12.347   2.733   8.656 -0.0329  0.0839 -0.1098
  618POPI   C4A 9864  12.334   2.769   8.240  0.2035 -0.1120 -0.0607
  618POPI   C1B 9865  12.465   3.265   9.129 -0.0461 -0.1551  0.0823
  618POPI   C2B 9866  12.454   3.285   8.573  0.1226 -0.1266 -0.1273
  618POPI   C3B 9867  12.344   3.242   8.195  0.3027  0.3755  0.1264
  618POPI   C4B 9868  12.161   3.367   7.866 -0.0765  0.0052 -0.4281
  619POPI    C1 9869   1.867  17.644  11.487 -0.0457 -0.1916  0.0411
  619POPI    C2 9870   1.645  17.314  11.535  0.0103 -0.2190  0.1122
  619POPI    C3 9871   1.615  17.616  11.796  0.0680 -0.2295  0.1309
  619POPI   PO4 9872   1.798  17.681  11.168 -0.1583  0.0972 -0.0968
  619POPI   GL1 9873   1.803  17.699  10.699  0.3345 -0.1055 -0.0430
  619POPI   GL2 9874   1.868  17.926  10.426 -0.4599  0.0946  0.2580
  619POPI   C1A 9875   1.704  17.497  10.233 -0.1526  0.1238 -0.1292
  619POPI   D2A 9876   1.866  17.510   9.801  0.0532  0.4490 -0.3089
  619POPI   C3A 9877   1.841  17.464   9.361  0.0036  0.3504 -0.4304
  619POPI   C4A 9878   1.864  17.427   8.883 -0.0822 -0.0493  0.1876
  619POPI   C1B 9879   1.875  17.977   9.986 -0.3094  0.0288 -0.0750
  619POPI   C2B 9880   1.895  18.065   9.548 -0.2360  0.0798  0.2189
  619POPI   C3B 9881   1.914  17.994   9.254  0.1827 -0.0394  0.0968
  619POPI   C4B 9882   1.925  17.894   8.997 -0.3237  0.0157  0.1624
  620POPI    C1 9883  14.770   4.148   9.910  0.1543  0.1078 -0.0273
  620POPI    C2 9884  14.839   4.523  10.031 -0.0394  0.1303  0.0157
  620POPI    C3 9885  14.873   4.221  10.290 -0.1266  0.1442  0.0438
  620POPI   PO4 9886  14.899   4.153   9.683  0.1743  0.1907  0.1898
  620POPI   GL1 9887  15.196   4.043   9.413  0.0963 -0.0109  0.1433
  620POPI   GL2 9888  15.292   3.718   9.558  0.3832 -0.1725  0.1538
  620POPI   C1A 9889  15.285   3.956   8.989  0.0764  0.1925  0.0231
  620POPI   D2A 9890  15.303   3.921   8.534 -0.4408 -0.1088 -0.0781
  620POPI   C3A 9891  15.030   3.842   8.233  0.0532  0.1703  0.0971
  620POPI   C4A 9892  15.035   4.111   7.859 -0.2746 -0.0541 -0.3529
  620POPI   C1B 9893  15.305   3.487   9.229  0.0416 -0.1649  0.1080
  620POPI   C2B 9894  15.269   3.320   8.840  0.2613  0.0503  0.2193
  620POPI   C3B 9895  15.325   3.434   8.400 -0.1533 -0.2259  0.4739
  620POPI   C4B 9896  15.547   3.706   8.048 -0.2188 -0.1235 -0.1405
  621POPI    C1 9897   5.981  12.011  11.251 -0.0793  0.0643 -0.1328
  621POPI    C2 9898   5.637  11.929  11.440  0.0169 -0.0185  0.0086
  621POPI    C3 9899   5.965  12.019  11.651  0.0502  0.1925 -0.1294
  621POPI   PO4 9900   5.858  11.920  11.009  0.1178 -0.0185  0.0492
  621POPI   GL1 9901   5.880  12.147  10.567  0.1585  0.0676 -0.0076
  621POPI   GL2 9902   5.814  12.508  10.402  0.1676  0.0427  0.1325
  621POPI   C1A 9903   5.871  12.105  10.158  0.1048  0.1051  0.0392
  621POPI   D2A 9904   5.518  12.257   9.871  0.1434 -0.0390  0.1635
  621POPI   C3A 9905   5.570  12.151   9.438  0.0325 -0.4640 -0.0445
  621POPI   C4A 9906   5.637  12.297   8.988 -0.1680 -0.0678 -0.0079
  621POPI   C1B 9907   5.607  12.715  10.047 -0.1990 -0.0849  0.0872
  621POPI   C2B 9908   5.614  12.671   9.628  0.0763 -0.2942  0.1008
  621POPI   C3B 9909   5.701  12.670   9.281 -0.0631 -0.1499  0.3025
  621POPI   C4B 9910   5.717  12.754   8.750 -0.3247 -0.0069  0.2948
  622POPI    C1 9911   1.320   2.218  11.259 -0.1570  0.1069  0.0382
  622POPI    C2 9912   1.638   2.445  11.344 -0.0633  0.0103 -0.0516
  622POPI    C3 9913   1.423   2.283  11.640  0.0216  0.0057  0.0080
  622POPI   PO4 9914   1.226   2.224  11.058 -0.2250 -0.2286  0.0746
  622POPI   GL1 9915   1.301   2.098  10.608  0.1483  0.0988 -0.1256
  622POPI   GL2 9916   1.456   1.808  10.569  0.1110 -0.2214  0.0301
  622POPI   C1A 9917   1.491   2.118  10.197  0.1079 -0.0807  0.1253
  622POPI   D2A 9918   1.781   2.017   9.916 -0.4290  0.1438  0.0415
  622POPI   C3A 9919   1.795   2.038   9.513 -0.1628  0.1294 -0.2150
  622POPI   C4A 9920   1.717   1.999   9.061 -0.1554 -0.0616  0.2347
  622POPI   C1B 9921   1.682   1.596  10.319 -0.0849  0.4512 -0.1875
  622POPI   C2B 9922   1.725   1.496   9.858 -0.0345 -0.1884 -0.2480
  622POPI   C3B 9923   1.691   1.431   9.376  0.1114  0.3238  0.1814
  622POPI   C4B 9924   1.706   1.466   8.984  0.0217  0.2104 -0.0492
  623POPI    C1 9925  18.071  13.486  10.684 -0.1215 -0.0605  0.1615
  623POPI    C2 9926  17.714  13.432  10.857 -0.1913 -0.0729  0.0154
  623POPI    C3 9927  17.846  13.170  10.586 -0.1811  0.0645 -0.1133
  623POPI   PO4 9928  18.046  13.722  10.584 -0.0335 -0.6558 -0.0735
  623POPI   GL1 9929  18.070  13.970  10.189  0.3232  0.0561 -0.0162
  623POPI   GL2 9930  18.185  14.239  10.207  0.0702 -0.1954 -0.0556
  623POPI   C1A 9931  18.201  13.723   9.774 -0.0371  0.1177  0.0225
  623POPI   D2A 9932  18.290  13.669   9.305  0.0293  0.0279  0.0964
  623POPI   C3A 9933  18.276  13.857   8.962  0.0987 -0.2259  0.1987
  623POPI   C4A 9934  18.212  13.876   8.505  0.1542  0.1262 -0.1071
  623POPI   C1B 9935  18.319  14.215   9.742 -0.0964 -0.0344  0.0126
  623POPI   C2B 9936  18.438  14.261   9.349 -0.1319 -0.4871  0.0390
  623POPI   C3B 9937  18.387  14.353   8.901 -0.1764 -0.0812  0.1138
  623POPI   C4B 9938  18.417  14.391   8.485  0.4256  0.3579 -0.0062
  624POPI    C1 9939  10.651   8.243  10.118  0.2709 -0.0570  0.0103
  624POPI    C2 9940  10.641   8.627  10.231  0.3606 -0.0699  0.0635
  624POPI    C3 9941  10.705   8.341  10.503 -0.1927 -0.1624  0.1082
  624POPI   PO4 9942  10.507   8.185   9.866 -0.0471  0.0058  0.0139
  624POPI   GL1 9943  10.231   8.251   9.463  0.0040 -0.1250 -0.0377
  624POPI   GL2 9944  10.424   8.001   9.322 -0.0789 -0.0103  0.0297
  624POPI   C1A 9945  10.081   8.296   9.063  0.0914 -0.0137 -0.1477
  624POPI   D2A 9946  10.222   8.398   8.664 -0.0133 -0.3378  0.0607
  624POPI   C3A 9947   9.974   8.381   8.278  0.0566  0.1333 -0.0613
  624POPI   C4A 9948   9.654   8.232   7.895 -0.4455  0.1525  0.1804
  624POPI   C1B 9949  10.432   8.002   8.837  0.3469  0.0903 -0.2600
  624POPI   C2B 9950  10.384   8.067   8.366 -0.0473 -0.0534  0.2611
  624POPI   C3B 9951  10.416   8.155   7.941  0.3129  0.1235  0.0415
  624POPI   C4B 9952  10.138   7.894   7.673 -0.6475 -0.0525  0.1320
  625DPPI    C1 9953  16.994   2.441  10.297  0.2582  0.2101 -0.1189
  625DPPI    C2 9954  17.194   2.265  10.596 -0.2757 -0.2042  0.0108
  625DPPI    C3 9955  16.979   2.595  10.666 -0.0262 -0.0306 -0.0262
  625DPPI   PO4 9956  17.116   2.429  10.136 -0.0247 -0.2379 -0.2195
  625DPPI   GL1 9957  17.177   2.513   9.798  0.4217  0.2507  0.0859
  625DPPI   GL2 9958  16.988   2.711   9.764  0.4646  0.1404 -0.1319
  625DPPI   C1A 9959  17.369   2.516   9.442 -0.1908  0.4609 -0.0299
  625DPPI   C2A 9960  17.575   2.434   9.046 -0.0362  0.3693 -0.1135
  625DPPI   C3A 9961  17.609   2.402   8.648 -0.0841  0.1447 -0.1322
  625DPPI   C4A 9962  17.630   2.345   8.258  0.1665  0.1377  0.2516
  625DPPI   C1B 9963  17.036   2.858   9.400 -0.3092  0.1721 -0.1683
  625DPPI   C2B 9964  17.156   2.709   8.961 -0.0417  0.0766 -0.4005
  625DPPI   C3B 9965  17.175   2.671   8.538 -0.2565  0.0878  0.1750
  625DPPI   C4B 9966  17.254   2.665   8.103 -0.1381 -0.3326 -0.0381
  626DPPI    C1 9967   5.486   6.892  10.326  0.1798 -0.0388  0.2638
  626DPPI    C2 9968   5.287   7.234  10.387 -0.0047 -0.1137  0.0936
  626DPPI    C3 9969   5.268   6.941  10.658  0.0266 -0.0492  0.1660
  626DPPI   PO4 9970   5.741   7.030  10.267  0.1383  0.0035  0.2185
  626DPPI   GL1 9971   5.722   7.208   9.932 -0.0987  0.1285 -0.1818
  626DPPI   GL2 9972   5.426   7.346   9.912 -0.1212 -0.0374  0.0508
  626DPPI   C1A 9973   5.770   7.087   9.501  0.3300  0.2091  0.0386
  626DPPI   C2A 9974   5.682   6.988   9.124 -0.0191 -0.1208 -0.2618
  626DPPI   C3A 9975   5.703   7.059   8.677  0.3280 -0.0993 -0.0041
  626DPPI   C4A 9976   5.646   7.003   8.173 -0.0184 -0.2597 -0.3139
  626DPPI   C1B 9977   5.287   7.322   9.538  0.0996 -0.0639 -0.1994
  626DPPI   C2B 9978   5.330   7.496   9.184  0.3649 -0.0639 -0.2059
  626DPPI   C3B 9979   5.355   7.368   8.751  0.1580  0.1179  0.2531
  626DPPI   C4B 9980   5.252   7.315   8.260  0.1781  0.0519  0.0044
  627DPPI    C1 9981  13.960  15.691  11.040 -0.0598  0.0478 -0.2384
  627DPPI    C2 9982  13.743  15.361  11.103  0.0731 -0.0024 -0.0353
  627DPPI    C3 9983  14.132  15.366  11.196  0.0977  0.1754 -0.1430
  627DPPI   PO4 9984  13.727  15.855  10.863 -0.0096 -0.1012 -0.0235
  627DPPI   GL1 9985  13.739  15.933  10.439 -0.2933 -0.0422 -0.1997
  627DPPI   GL2 9986  13.507  15.820  10.215 -0.3407  0.1272 -0.1068
  627DPPI   C1A 9987  13.936  16.091  10.068  0.2702  0.0944  0.0786
  627DPPI   C2A 9988  13.889  16.020   9.664  0.1267 -0.0520  0.2480
  627DPPI   C3A 9989  13.963  16.069   9.356  0.0158 -0.2240  0.0658
  627DPPI   C4A 9990  14.054  16.053   8.891  0.0862 -0.0848  0.0980
  627DPPI   C1B 9991  13.477  15.797   9.789  0.1556  0.1560 -0.2033
  627DPPI   C2B 9992  13.501  15.865   9.397  0.1907 -0.0444 -0.1938
  627DPPI   C3B 9993  13.465  15.751   8.896  0.1090 -0.0437 -0.1802
  627DPPI   C4B 9994  13.315  15.649   8.484  0.3251  0.1585  0.0590
  628DPPI    C1 9995  14.312  10.801  10.342 -0.0415  0.0979 -0.0351
  628DPPI    C2 9996  14.038  10.983  10.568 -0.1150 -0.0695  0.0123
  628DPPI    C3 9997  14.156  10.612  10.658  0.1299  0.0023 -0.0064
  628DPPI   PO4 9998  14.262  10.860  10.101 -0.2971 -0.0567  0.0750
  628DPPI   GL1 9999  14.503  10.903   9.701 -0.1140  0.0418  0.0982
  628DPPI   GL210000  14.317  11.238   9.736 -0.0662  0.0348 -0.1933
  628DPPI   C1A10001  14.607  10.951   9.232  0.0303  0.0964 -0.3028
  628DPPI   C2A10002  14.561  10.924   8.803 -0.2288  0.1094 -0.0319
  628DPPI   C3A10003  14.552  10.687   8.417  0.1898 -0.0958 -0.2890
  628DPPI   C4A10004  14.607  10.758   7.962  0.2250  0.0281  0.0872
  628DPPI   C1B10005  14.757  11.356   9.428 -0.2300 -0.1215 -0.0350
  628DPPI   C2B10006  14.751  11.409   8.990  0.0462  0.1007  0.0517
  628DPPI   C3B10007  14.724  11.354   8.565  0.1650  0.0623 -0.3735
  628DPPI   C4B10008  14.750  11.435   8.069 -0.1447  0.2676  0.2700
  629DPPI    C110009  15.528   2.897  10.381  0.0101 -0.4484  0.0403
  629DPPI    C210010  15.205   2.834  10.154  0.0078 -0.0678 -0.0685
  629DPPI    C310011  15.165   2.888  10.548 -0.0864  0.1840 -0.1107
  629DPPI   PO410012  15.727   2.765  10.215 -0.3182  0.0859 -0.0459
  629DPPI   GL110013  15.964   2.713   9.778 -0.0563  0.3288 -0.0020
  629DPPI   GL210014  16.128   2.972   9.649 -0.3277 -0.0163 -0.3978
  629DPPI   C1A10015  16.074   2.481   9.418 -0.1767  0.1422  0.0086
  629DPPI   C2A10016  16.099   2.186   9.179 -0.1069  0.0530 -0.0050
  629DPPI   C3A10017  16.198   2.176   8.737  0.2284  0.0438 -0.1254
  629DPPI   C4A10018  16.409   2.232   8.393 -0.2121 -0.1443  0.0187
  629DPPI   C1B10019  16.184   2.906   9.206  0.0974 -0.0993 -0.3125
  629DPPI   C2B10020  16.189   2.775   8.847 -0.0833  0.1929  0.3197
  629DPPI   C3B10021  16.315   2.761   8.511  0.0285  0.0651  0.1846
  629DPPI   C4B10022  16.377   2.833   8.140 -0.1152  0.3305 -0.1222
  630DPPI    C110023   8.452   4.869  10.208  0.1515 -0.2014  0.1117
  630DPPI    C210024   8.453   4.806  10.603 -0.1444 -0.0694  0.1354
  630DPPI    C310025   8.494   5.177  10.460  0.1013 -0.1331  0.0367
  630DPPI   PO410026   8.259   4.701  10.057  0.1255  0.3577 -0.3168
  630DPPI   GL110027   8.222   4.710   9.695  0.0797  0.0476  0.1776
  630DPPI   GL210028   8.525   4.912   9.657 -0.1134  0.1374 -0.0822
  630DPPI   C1A10029   8.118   4.589   9.232  0.2543  0.0599 -0.0310
  630DPPI   C2A10030   8.011   4.564   8.895 -0.0708  0.0406  0.0488
  630DPPI   C3A10031   7.938   4.596   8.361 -0.1020  0.3411 -0.1267
  630DPPI   C4A10032   8.163   4.793   7.929  0.0830 -0.0992 -0.0875
  630DPPI   C1B10033   8.768   4.797   9.451  0.1012 -0.2325  0.0075
  630DPPI   C2B10034   8.591   4.862   9.128 -0.0332  0.2138 -0.3082
  630DPPI   C3B10035   8.471   4.794   8.702 -0.0652 -0.3591 -0.1317
  630DPPI   C4B10036   8.502   4.709   8.304 -0.0914  0.3051 -0.2654
  631DPPI    C110037  11.362   2.625  10.677 -0.1034 -0.0959 -0.1842
  631DPPI    C210038  11.412   2.420  11.017  0.2381 -0.0612 -0.2097
  631DPPI    C310039  11.489   2.812  11.007  0.1296 -0.0416 -0.3029
  631DPPI   PO410040  11.478   2.458  10.463 -0.0955 -0.1765  0.1058
  631DPPI   GL110041  11.488   2.450  10.087 -0.2351 -0.0118  0.4391
  631DPPI   GL210042  11.160   2.325   9.974  0.0984 -0.2175  0.1249
  631DPPI   C1A10043  11.483   2.537   9.608  0.3030  0.2364 -0.0280
  631DPPI   C2A10044  11.531   2.415   9.210 -0.2474 -0.2122 -0.2064
  631DPPI   C3A10045  11.383   2.454   8.741  0.2658 -0.2067 -0.2259
  631DPPI   C4A10046  11.395   2.387   8.279 -0.1616  0.1365 -0.1307
  631DPPI   C1B10047  10.937   2.286   9.704  0.0897 -0.0392  0.1218
  631DPPI   C2B10048  11.018   2.268   9.354 -0.0005  0.2207  0.0269
  631DPPI   C3B10049  10.883   2.181   8.884 -0.0152 -0.0496  0.1578
  631DPPI   C4B10050  10.808   2.142   8.445  0.1836  0.2647 -0.1237
  632DPPI    C110051  10.979  13.485  10.741 -0.1957 -0.1036 -0.1125
  632DPPI    C210052  10.779  13.434  11.084 -0.0208 -0.1043 -0.0095
  632DPPI    C310053  10.939  13.119  10.896  0.0341 -0.0827  0.0006
  632DPPI   PO410054  11.242  13.761  10.755  0.4258  0.0879 -0.0136
  632DPPI   GL110055  11.341  14.061  10.451  0.0851  0.1316  0.0459
  632DPPI   GL210056  10.970  14.053  10.398  0.1626  0.2304 -0.1516
  632DPPI   C1A10057  11.412  13.925  10.077  0.2114 -0.2340 -0.1394
  632DPPI   C2A10058  11.278  14.022   9.655  0.3002 -0.1221  0.1283
  632DPPI   C3A10059  11.292  14.108   9.235 -0.0265  0.0633 -0.3717
  632DPPI   C4A10060  11.283  14.197   8.880  0.2281 -0.0537 -0.0579
  632DPPI   C1B10061  10.941  14.012   9.978 -0.2330 -0.2238  0.1799
  632DPPI   C2B10062  10.880  14.274   9.511 -0.3973 -0.2461 -0.1220
  632DPPI   C3B10063  10.895  14.419   9.149 -0.0287 -0.3971 -0.2340
  632DPPI   C4B10064  10.901  14.478   8.706  0.2811  0.1765 -0.2378
  633DPPI    C110065   0.667  12.960  11.218  0.1204  0.0156  0.2635
  633DPPI    C210066   0.353  13.169  11.352  0.0076  0.0862 -0.0985
  633DPPI    C310067   0.470  12.837  11.544 -0.2414  0.0999  0.0815
  633DPPI   PO410068   0.543  12.965  10.927 -0.1596  0.2342  0.0537
  633DPPI   GL110069   0.370  12.817  10.558 -0.4640 -0.2620  0.1372
  633DPPI   GL210070   0.349  13.134  10.357  0.0739  0.2172 -0.0839
  633DPPI   C1A10071   0.753  12.779  10.387  0.0410  0.0054  0.2154
  633DPPI   C2A10072   1.080  12.877  10.174 -0.1224  0.0527 -0.2554
  633DPPI   C3A10073   1.097  12.845   9.768  0.0903  0.2539  0.0652
  633DPPI   C4A10074   1.067  12.803   9.291 -0.1586  0.1221 -0.0550
  633DPPI   C1B10075   0.551  13.080   9.968  0.3312 -0.1668  0.0581
  633DPPI   C2B10076   0.644  13.119   9.504  0.2079 -0.0811  0.2022
  633DPPI   C3B10077   0.733  13.174   8.983  0.1420 -0.1137  0.1199
  633DPPI   C4B10078   1.066  12.910   8.781 -0.0220  0.3699  0.1850
  634DPPI    C110079  17.266   0.658  11.161 -0.0177 -0.0355  0.1305
  634DPPI    C210080  17.432   0.962  11.361  0.0328 -0.1213  0.2200
  634DPPI    C310081  17.469   0.588  11.499 -0.0609 -0.1640  0.1305
  634DPPI   PO410082  17.113   0.699  10.904  0.0476 -0.0441 -0.1350
  634DPPI   GL110083  17.075   0.801  10.408  0.0848  0.2130 -0.2404
  634DPPI   GL210084  17.256   0.546  10.388  0.1037 -0.0153  0.1860
  634DPPI   C1A10085  17.141   0.874   9.964 -0.3017  0.1484  0.0728
  634DPPI   C2A10086  17.275   0.777   9.534 -0.1623 -0.0156  0.0440
  634DPPI   C3A10087  17.217   0.789   9.121 -0.0697  0.1304  0.2641
  634DPPI   C4A10088  17.306   0.791   8.644  0.0836  0.1309  0.2530
  634DPPI   C1B10089  17.034   0.294  10.070  0.2579 -0.3612 -0.2875
  634DPPI   C2B10090  17.112   0.255   9.671  0.2917 -0.0920  0.1631
  634DPPI   C3B10091  17.192   0.332   9.266 -0.1369 -0.0243  0.2155
  634DPPI   C4B10092  17.254   0.287   8.856  0.0075 -0.1966 -0.1087
  635PYPI    C110093  12.620   8.931   9.998 -0.0360  0.2606  0.1477
  635PYPI    C210094  12.795   9.087  10.321 -0.0720  0.0429  0.2743
  635PYPI    C310095  12.643   8.717  10.335  0.0532 -0.0230 -0.0342
  635PYPI   PO410096  12.446   9.169   9.882 -0.2841 -0.4294  0.0194
  635PYPI   GL110097  12.460   9.603   9.567 -0.0006  0.1790  0.3882
  635PYPI   GL210098  12.630   9.347   9.445  0.2017 -0.0645 -0.1233
  635PYPI   C1A10099  12.514   9.585   9.015  0.1728 -0.0340  0.3650
  635PYPI   C2A10100  12.495   9.791   8.581  0.3490  0.1828  0.2879
  635PYPI   D3A10101  12.536   9.835   8.136  0.0801  0.0501  0.0385
  635PYPI   C4A10102  12.063   9.936   8.031  0.3429 -0.0165  0.2366
  635PYPI   C1B10103  12.852   9.242   9.056 -0.3646 -0.1739 -0.1279
  635PYPI   C2B10104  12.804   9.286   8.667  0.3075 -0.1511 -0.1836
  635PYPI   C3B10105  12.691   9.247   8.291  0.0104 -0.0127 -0.0013
  635PYPI   C4B10106  12.628   9.434   7.911  0.1921  0.1097  0.0529
  636PYPI    C110107  13.539   8.246   9.945 -0.2497  0.1077  0.0424
  636PYPI    C210108  13.564   8.264  10.343 -0.1757  0.3517  0.0282
  636PYPI    C310109  13.895   8.210  10.124 -0.2345  0.0688  0.0048
  636PYPI   PO410110  13.372   8.408   9.860 -0.0509  0.0800  0.0264
  636PYPI   GL110111  13.438   8.751   9.620  0.2217  0.0790 -0.0690
  636PYPI   GL210112  13.583   8.964   9.524 -0.1973 -0.0351  0.3230
  636PYPI   C1A10113  13.674   8.506   9.259 -0.0952  0.0464 -0.0735
  636PYPI   C2A10114  13.735   8.627   8.883 -0.0674  0.2139  0.5506
  636PYPI   D3A10115  13.762   8.750   8.438 -0.1731  0.1882 -0.0657
  636PYPI   C4A10116  13.742   8.692   8.071 -0.1563  0.0677 -0.0004
  636PYPI   C1B10117  13.355   8.903   9.092 -0.2050 -0.3109 -0.3232
  636PYPI   C2B10118  13.268   8.852   8.678  0.1351 -0.0948 -0.1886
  636PYPI   C3B10119  12.860   8.826   8.485 -0.1542 -0.2406 -0.0330
  636PYPI   C4B10120  12.703   8.772   7.996  0.0118 -0.1930  0.0011
  637PYPI    C110121  15.459   2.016  10.519  0.1041  0.1587 -0.2157
  637PYPI    C210122  15.593   2.391  10.482  0.0932  0.1924  0.0618
  637PYPI    C310123  15.523   2.239  10.845  0.2473 -0.1322 -0.0400
  637PYPI   PO410124  15.499   1.915  10.294  0.1533 -0.0583  0.0456
  637PYPI   GL110125  15.290   1.842   9.987  0.0126  0.2313  0.1724
  637PYPI   GL210126  15.391   1.601   9.810 -0.2429 -0.3250  0.0005
  637PYPI   C1A10127  15.142   2.036   9.589 -0.3578 -0.0175  0.2765
  637PYPI   C2A10128  15.114   1.885   9.201  0.2175  0.1938 -0.1205
  637PYPI   D3A10129  15.072   1.884   8.773 -0.0300  0.1254  0.2448
  637PYPI   C4A10130  15.261   1.953   8.430 -0.0572  0.1331 -0.2710
  637PYPI   C1B10131  15.482   1.588   9.501 -0.0461  0.0996  0.0403
  637PYPI   C2B10132  15.501   1.557   9.019  0.0262  0.0600 -0.2271
  637PYPI   C3B10133  15.409   1.472   8.621  0.0425  0.1667 -0.1739
  637PYPI   C4B10134  15.477   1.486   8.124  0.1360 -0.1860 -0.1437
  638PYPI    C110135  14.462   7.639   9.744  0.0680 -0.1309  0.1549
  638PYPI    C210136  14.508   7.293   9.939  0.2224 -0.2160 -0.0291
  638PYPI    C310137  14.196   7.344   9.693 -0.0129 -0.0822  0.2895
  638PYPI   PO410138  14.656   7.683   9.669 -0.1103 -0.0201  0.2488
  638PYPI   GL110139  15.005   7.616   9.357 -0.0104  0.1097  0.3207
  638PYPI   GL210140  15.077   7.934   9.199  0.2730  0.1366 -0.0463
  638PYPI   C1A10141  15.089   7.445   8.947  0.0470  0.1482  0.0992
  638PYPI   C2A10142  15.023   7.433   8.534  0.1123  0.3711  0.0628
  638PYPI   D3A10143  15.134   7.135   8.099 -0.1218 -0.1735  0.2703
  638PYPI   C4A10144  15.470   6.791   7.955  0.2045  0.0773 -0.3179
  638PYPI   C1B10145  15.163   7.911   8.717 -0.0451  0.0119  0.1526
  638PYPI   C2B10146  15.072   7.893   8.230  0.0759 -0.0911 -0.1289
  638PYPI   C3B10147  15.235   7.602   7.888 -0.1394 -0.2125 -0.0547
  638PYPI   C4B10148  15.117   7.211   7.581 -0.0825  0.1755  0.2263
  639PYPI    C110149  16.196   6.890  10.071 -0.2471 -0.0609 -0.1795
  639PYPI    C210150  16.053   7.076  10.395 -0.1504  0.1643 -0.2638
  639PYPI    C310151  16.276   6.746  10.436 -0.0486  0.2527 -0.0955
  639PYPI   PO410152  16.003   6.817   9.930 -0.0448  0.0444 -0.4565
  639PYPI   GL110153  15.991   6.654   9.518 -0.1336 -0.4367 -0.0893
  639PYPI   GL210154  15.805   6.276   9.577 -0.2501 -0.3669 -0.0210
  639PYPI   C1A10155  16.210   6.715   9.087  0.0971 -0.1090 -0.2348
  639PYPI   C2A10156  16.335   6.710   8.649 -0.0300 -0.0284 -0.3061
  639PYPI   D3A10157  16.242   6.719   8.180  0.2907  0.1770  0.0178
  639PYPI   C4A10158  16.016   6.831   8.000 -0.3301 -0.3516  0.1219
  639PYPI   C1B10159  16.145   6.291   9.226 -0.1859 -0.3928 -0.0327
  639PYPI   C2B10160  16.252   6.192   8.765 -0.0311 -0.1686  0.0434
  639PYPI   C3B10161  16.260   6.238   8.360  0.0989  0.0829 -0.0458
  639PYPI   C4B10162  16.279   6.256   7.909 -0.1880  0.0026  0.2892
  640PYPI    C110163   6.319   6.472  10.630  0.2665  0.0788  0.2507
  640PYPI    C210164   6.113   6.469  10.973 -0.2747 -0.0975 -0.0636
  640PYPI    C310165   6.118   6.798  10.746 -0.1879 -0.0859 -0.0452
  640PYPI   PO410166   6.226   6.300  10.429 -0.1802  0.1669 -0.1505
  640PYPI   GL110167   6.302   6.338   9.954  0.0481  0.1336 -0.0519
  640PYPI   GL210168   6.053   6.049   9.999  0.1045 -0.1162 -0.4555
  640PYPI   C1A10169   6.410   6.438   9.480  0.0168  0.2045  0.1592
  640PYPI   C2A10170   6.538   6.386   8.997  0.0844 -0.0827  0.1510
  640PYPI   D3A10171   6.781   6.591   8.687 -0.0047  0.1106 -0.3152
  640PYPI   C4A10172   7.232   6.675   8.675  0.1205  0.0448 -0.3884
  640PYPI   C1B10173   5.971   6.110   9.531  0.3298 -0.0696 -0.1919
  640PYPI   C2B10174   6.072   6.232   9.049  0.0558  0.0355  0.1930
  640PYPI   C3B10175   5.995   6.076   8.694 -0.0220 -0.0149 -0.2549
  640PYPI   C4B10176   6.013   5.992   8.224 -0.3078  0.0842  0.0741
  641ERGO   ROH10177   9.545  12.062   9.893 -0.0354 -0.0597 -0.0347
  641ERGO    R110178   9.420  12.124   9.646 -0.0104 -0.1701 -0.0750
  641ERGO    R210179   9.514  12.322   9.478 -0.1700 -0.0405 -0.0124
  641ERGO    R310180   9.516  12.121   9.295  0.1309 -0.0179 -0.0392
  641ERGO    R410181   9.455  12.360   9.139 -0.0829 -0.0627 -0.0303
  641ERGO    R510182   9.340  12.176   9.143  0.1240 -0.1977 -0.0996
  641ERGO    C110183   9.423  12.193   8.771  0.2502 -0.0545 -0.0660
  641ERGO    C210184   9.253  12.308   8.654 -0.1371 -0.0753  0.0569
  642ERGO   ROH10185  16.741   4.116   9.536  0.1323  0.0545  0.1924
  642ERGO    R110186  16.698   4.129   9.257  0.1108  0.1215  0.1989
  642ERGO    R210187  16.867   4.266   9.086  0.1921  0.0190  0.1983
  642ERGO    R310188  16.875   4.027   8.956  0.0029  0.0282  0.1658
  642ERGO    R410189  16.877   4.228   8.742  0.4519  0.0731  0.1976
  642ERGO    R510190  16.739   4.060   8.762  0.2148  0.2415  0.0465
  642ERGO    C110191  16.890   3.983   8.420  0.4255  0.1133  0.1667
  642ERGO    C210192  17.007   4.029   8.124 -0.1584 -0.0328  0.2890
  643ERGO   ROH10193  16.472  17.584  10.265 -0.2227 -0.4386  0.0735
  643ERGO    R110194  16.504  17.460  10.013 -0.3970 -0.3338 -0.0031
  643ERGO    R210195  16.338  17.514   9.798 -0.2731  0.1004 -0.0050
  643ERGO    R310196  16.573  17.568   9.672 -0.1485 -0.2250  0.0814
  643ERGO    R410197  16.388  17.497   9.456 -0.1662  0.0602  0.0128
  643ERGO    R510198  16.583  17.408   9.494 -0.3087 -0.2214  0.0743
  643ERGO    C110199  16.637  17.537   9.139  0.0128 -0.2686  0.1043
  643ERGO    C210200  16.513  17.549   8.887 -0.0922 -0.0268  0.0636
  644ERGO   ROH10201   7.042  16.229  10.240  0.2298 -0.2516  0.0216
  644ERGO    R110202   7.136  16.140   9.988 -0.0000 -0.1492 -0.1047
  644ERGO    R210203   6.967  16.049   9.790 -0.2017  0.1233 -0.0681
  644ERGO    R310204   7.093  16.238   9.640 -0.1490  0.1337 -0.0095
  644ERGO    R410205   6.952  16.069   9.445  0.2942 -0.1277 -0.1117
  644ERGO    R510206   7.165  16.120   9.444  0.2530  0.0628  0.1727
  644ERGO    C110207   7.063  16.258   9.104  0.6324 -0.2641 -0.0822
  644ERGO    C210208   7.047  16.253   8.698 -0.2307  0.0673 -0.2181
  645ERGO   ROH10209  18.287   4.748  10.153  0.1132 -0.0930 -0.1134
  645ERGO    R110210  18.262   4.646   9.890  0.0745 -0.0024 -0.1459
  645ERGO    R210211  18.069   4.736   9.713  0.0708  0.0849 -0.1006
  645ERGO    R310212  18.283   4.779   9.552  0.0631  0.1074 -0.1036
  645ERGO    R410213  18.062   4.722   9.368  0.1155 -0.1398 -0.0934
  645ERGO    R510214  18.256   4.622   9.373  0.1740 -0.0237 -0.0072
  645ERGO    C110215  18.260   4.755   9.015  0.1345 -0.2496 -0.0921
  645ERGO    C210216  18.313   4.591   8.628  0.3096  0.2147 -0.1367
  646ERGO   ROH10217   4.025   5.088   7.825  0.1686  0.0220 -0.0908
  646ERGO    R110218   4.227   4.962   7.977  0.0879 -0.1003 -0.0815
  646ERGO    R210219   4.425   4.808   7.862  0.1077 -0.0739 -0.0921
  646ERGO    R310220   4.590   4.976   7.998  0.0822 -0.1754  0.0652
  646ERGO    R410221   4.770   4.781   7.871  0.1269  0.0936 -0.2900
  646ERGO    R510222   4.763   4.833   8.083  0.1971 -0.2043 -0.2131
  646ERGO    C110223   5.125   4.924   8.004  0.1141  0.0959 -0.2576
  646ERGO    C210224   5.390   4.700   7.883  0.0177 -0.1870  0.1638
  647ERGO   ROH10225  15.732   3.856   9.295  0.3441 -0.2213  0.1693
  647ERGO    R110226  15.759   3.656   9.096  0.1557 -0.1423  0.0616
  647ERGO    R210227  15.623   3.666   8.855  0.0845  0.0619  0.1075
  647ERGO    R310228  15.873   3.641   8.751  0.0373 -0.0443  0.0178
  647ERGO    R410229  15.697   3.644   8.518 -0.0394  0.0828  0.0788
  647ERGO    R510230  15.846   3.493   8.565 -0.0980  0.0010  0.0014
  647ERGO    C110231  15.974   3.607   8.224 -0.1558 -0.0047 -0.0221
  647ERGO    C210232  15.968   3.446   7.860 -0.0208 -0.2628 -0.1507
  648ERGO   ROH10233   1.522  15.786  10.480 -0.2707 -0.2177 -0.1777
  648ERGO    R110234   1.528  15.969  10.264 -0.0003 -0.1378 -0.1073
  648ERGO    R210235   1.725  15.962  10.070 -0.0146 -0.3690 -0.1231
  648ERGO    R310236   1.513  15.948   9.901 -0.0549  0.0246 -0.1137
  648ERGO    R410237   1.748  15.941   9.726 -0.0889 -0.1512 -0.1423
  648ERGO    R510238   1.579  16.078   9.711  0.0857  0.0758 -0.0268
  648ERGO    C110239   1.562  15.916   9.366 -0.1700  0.3452 -0.1447
  648ERGO    C210240   1.605  15.946   9.006 -0.2092  0.3478  0.0693
  649ERGO   ROH10241  13.537   3.423   9.579 -0.0105 -0.1510  0.0794
  649ERGO    R110242  13.408   3.296   9.361  0.0028 -0.0563  0.0148
  649ERGO    R210243  13.281   3.437   9.160  0.0752  0.0349  0.0279
  649ERGO    R310244  13.445   3.291   8.999  0.0761  0.0447  0.0214
  649ERGO    R410245  13.223   3.373   8.825  0.1142  0.1045  0.0084
  649ERGO    R510246  13.295   3.170   8.857  0.0824  0.0919 -0.0218
  649ERGO    C110247  13.343   3.199   8.480  0.1378  0.1542 -0.0091
  649ERGO    C210248  13.304   3.159   8.309 -0.0135  0.4453  0.2512
  650ERGO   ROH10249  18.296   9.278   9.687  0.0996  0.1717 -0.0361
  650ERGO    R110250  18.300   9.178   9.422  0.2319  0.0660  0.0038
  650ERGO    R210251  18.265   9.340   9.201  0.0229 -0.0652 -0.0667
  650ERGO    R310252  18.501   9.230   9.123  0.1720  0.2063 -0.0120
  650ERGO    R410253  18.330   9.216   8.885  0.1685 -0.1904  0.0122
  650ERGO    R510254  18.437   9.050   8.978  0.4076  0.0180  0.1138
  650ERGO    C110255  18.589   9.039   8.628  0.3936 -0.0084  0.1094
  650ERGO    C210256  18.534   9.089   8.283  0.1485  0.0413  0.0424
  651ERGO   ROH10257   8.730   0.024  10.408 -0.0423 -0.1002  0.1131
  651ERGO    R110258   8.684  -0.091  10.154 -0.1211  0.0239  0.0659
  651ERGO    R210259   8.588   0.055   9.939  0.1046  0.2126  0.0634
  651ERGO    R310260   8.809  -0.044   9.815  0.0306 -0.0230  0.1209
  651ERGO    R410261   8.617   0.003   9.599  0.0695 -0.1276  0.1108
  651ERGO    R510262   8.722  -0.183   9.640 -0.0393 -0.1304  0.2620
  651ERGO    C110263   8.841  -0.118   9.284 -0.0203 -0.5470  0.1924
  651ERGO    C210264   8.832  -0.107   8.894  0.3777  0.3091  0.3282
  652ERGO   ROH10265   7.189  13.833  10.115  0.0746  0.1746  0.2345
  652ERGO    R110266   7.270  13.808   9.845 -0.0913  0.0744  0.1933
  652ERGO    R210267   7.151  13.630   9.669 -0.2786  0.0963  0.3023
  652ERGO    R310268   7.116  13.853   9.518 -0.2532  0.0775  0.2672
  652ERGO    R410269   7.190  13.644   9.326 -0.1247  0.0638  0.3171
  652ERGO    R510270   7.286  13.838   9.350 -0.1693  0.0890  0.3443
  652ERGO    C110271   7.179  13.861   8.984 -0.0113  0.0270  0.2927
  652ERGO    C210272   7.247  13.830   8.654 -0.1003  0.0386  0.1699
  653ERGO   ROH10273  12.466   1.658   9.796  0.0847 -0.4417  0.0678
  653ERGO    R110274  12.385   1.770   9.549 -0.1698 -0.2933  0.2134
  653ERGO    R210275  12.538   1.754   9.320 -0.1522  0.2978  0.1606
  653ERGO    R310276  12.312   1.648   9.214  0.0410 -0.0349  0.0706
  653ERGO    R410277  12.432   1.801   8.994 -0.2801  0.4474  0.2245
  653ERGO    R510278  12.228   1.819   9.070 -0.3132 -0.0363  0.2691
  653ERGO    C110279  12.157   1.729   8.706 -0.1734  0.2222  0.1772
  653ERGO    C210280  12.142   1.761   8.320 -0.2515  0.3542  0.0315
  654ERGO   ROH10281   3.798  14.220  10.441  0.1589 -0.0233  0.1153
  654ERGO    R110282   3.657  14.289  10.205  0.0164 -0.1678  0.1569
  654ERGO    R210283   3.761  14.461  10.015 -0.1564 -0.1780  0.0575
  654ERGO    R310284   3.709  14.254   9.846 -0.1328 -0.2548  0.1421
  654ERGO    R410285   3.721  14.490   9.673 -0.1504 -0.3167  0.0436
  654ERGO    R510286   3.558  14.346   9.685 -0.1404 -0.3307  0.1002
  654ERGO    C110287   3.648  14.314   9.316 -0.1248 -0.4693  0.1147
  654ERGO    C210288   3.664  14.270   8.941 -0.0890  0.0358  0.0000
  655ERGO   ROH10289  10.854   1.377   9.987  0.0241  0.2349  0.1109
  655ERGO    R110290  10.849   1.227   9.747 -0.1592  0.1124  0.1876
  655ERGO    R210291  10.639   1.242   9.566 -0.0663  0.4163  0.0896
  655ERGO    R310292  10.838   1.299   9.391  0.1279 -0.0488  0.1448
  655ERGO    R410293  10.638   1.156   9.232 -0.0839  0.2673  0.1284
  655ERGO    R510294  10.850   1.107   9.248 -0.1822 -0.1381  0.2378
  655ERGO    C110295  10.825   1.161   8.872  0.0881 -0.2561  0.2027
  655ERGO    C210296  10.693   1.235   8.490 -0.1151  0.1176 -0.0150
  656ERGO   ROH10297  18.135   8.398   9.910  0.0560  0.1352 -0.0726
  656ERGO    R110298  18.262   8.369   9.659 -0.0181  0.0234 -0.0967
  656ERGO    R210299  18.326   8.122   9.552 -0.1791 -0.0263 -0.0682
  656ERGO    R310300  18.183   8.213   9.340 -0.1745  0.0128 -0.0557
  656ERGO    R410301  18.374   8.023   9.224 -0.2519 -0.0746 -0.0652
  656ERGO    R510302  18.343   8.230   9.163 -0.1837 -0.0613 -0.0774
  656ERGO    C110303  18.268   8.051   8.834 -0.2903 -0.0660 -0.0518
  656ERGO    C210304  18.337   8.078   8.512 -0.4616  0.2953 -0.0733
  657ERGO   ROH10305  11.087   3.540   9.695  0.0979 -0.1211  0.0499
  657ERGO    R110306  11.139   3.523   9.418  0.2532 -0.2156  0.0835
  657ERGO    R210307  11.148   3.281   9.282 -0.1383 -0.2407  0.0854
  657ERGO    R310308  10.964   3.401   9.123  0.1993  0.1420 -0.0363
  657ERGO    R410309  11.115   3.225   8.943  0.0426 -0.0610  0.0353
  657ERGO    R510310  11.079   3.438   8.916  0.4394  0.0147  0.0730
  657ERGO    C110311  10.921   3.303   8.596  0.4650  0.4028 -0.1082
  657ERGO    C210312  11.038   3.195   8.321 -0.0623 -0.2998  0.3334
  658ERGO   ROH10313   0.255  10.491   6.664  0.1019 -0.1391 -0.0991
  658ERGO    R110314   0.128  10.466   6.915  0.1638 -0.0951 -0.0606
  658ERGO    R210315   0.193  10.626   7.132  0.1892 -0.0229 -0.1082
  658ERGO    R310316  -0.074  10.678   7.132  0.1826 -0.0682 -0.0740
  658ERGO    R410317   0.018  10.763   7.397  0.1546 -0.2160 -0.0317
  658ERGO    R510318  -0.145  10.625   7.354  0.1850 -0.2118 -0.1141
  658ERGO    C110319  -0.334  10.892   7.550  0.1282 -0.3710  0.0449
  658ERGO    C210320  -0.468  11.092   7.884 -0.0084  0.1961  0.0004
  659ERGO   ROH10321   0.687   8.595   9.795 -0.1633  0.1539 -0.0522
  659ERGO    R110322   0.860   8.554   9.575 -0.0781  0.1704  0.0113
  659ERGO    R210323   0.836   8.337   9.405  0.1457  0.0470  0.1338
  659ERGO    R310324   0.827   8.529   9.213  0.0233 -0.0743  0.0159
  659ERGO    R410325   0.929   8.291   9.076  0.1487 -0.1060  0.1552
  659ERGO    R510326   1.021   8.489   9.079  0.0386 -0.0486  0.0282
  659ERGO    C110327   0.974   8.445   8.703  0.0356 -0.3092  0.0570
  659ERGO    C210328   0.908   8.485   8.395 -0.0428 -0.0895 -0.0178
  660ERGO   ROH10329   5.004   5.971   9.822 -0.0399  0.2211  0.0119
  660ERGO    R110330   5.113   5.896   9.572 -0.0364  0.0712  0.0589
  660ERGO    R210331   5.034   5.666   9.439 -0.1823  0.1012  0.1031
  660ERGO    R310332   4.986   5.839   9.236  0.0061  0.0826  0.0388
  660ERGO    R410333   5.033   5.583   9.104 -0.3489 -0.0531  0.1395
  660ERGO    R510334   5.134   5.771   9.061 -0.1064 -0.1933  0.0397
  660ERGO    C110335   4.987   5.698   8.717 -0.2689 -0.1604  0.1003
  660ERGO    C210336   4.975   5.568   8.429  0.1284 -0.1321  0.2068
  661ERGO   ROH10337   5.523   4.180  10.019 -0.0034 -0.0021 -0.0876
  661ERGO    R110338   5.522   4.259   9.747 -0.2423 -0.0491 -0.1024
  661ERGO    R210339   5.741   4.225   9.581 -0.2132  0.3651 -0.1558
  661ERGO    R310340   5.560   4.096   9.424 -0.0014 -0.0337 -0.0842
  661ERGO    R410341   5.765   4.192   9.238 -0.2625  0.4168 -0.1646
  661ERGO    R510342   5.550   4.227   9.224 -0.3579 -0.0459 -0.0847
  661ERGO    C110343   5.610   4.052   8.891 -0.0922  0.0725 -0.1024
  661ERGO    C210344   5.743   4.033   8.613  0.3629 -0.0908  0.1338
  662ERGO   ROH10345   2.841   5.923  10.004  0.3439 -0.0555  0.0215
  662ERGO    R110346   2.893   5.824   9.744  0.3317  0.1046 -0.0414
  662ERGO    R210347   2.691   5.768   9.563  0.3127 -0.0351  0.0352
  662ERGO    R310348   2.833   5.935   9.402  0.0608  0.1774  0.0236
  662ERGO    R410349   2.728   5.728   9.222  0.4968 -0.1207  0.0631
  662ERGO    R510350   2.937   5.789   9.243  0.3945  0.2870  0.1180
  662ERGO    C110351   2.883   5.861   8.872  0.3676  0.0290  0.0685
  662ERGO    C210352   2.888   5.765   8.502  0.0503  0.2399  0.0548
  663ERGO   ROH10353   2.697   8.656  10.135 -0.0760  0.0147 -0.1185
  663ERGO    R110354   2.814   8.730   9.889 -0.0574  0.0072 -0.1122
  663ERGO    R210355   2.857   8.550   9.684 -0.0932  0.0119 -0.1248
  663ERGO    R310356   2.715   8.730   9.539 -0.0539  0.0523 -0.1130
  663ERGO    R410357   2.886   8.595   9.343 -0.2312 -0.1148 -0.1538
  663ERGO    R510358   2.870   8.810   9.374 -0.0843 -0.0946 -0.2143
  663ERGO    C110359   2.769   8.790   9.007 -0.2747 -0.1509 -0.1599
  663ERGO    C210360   2.746   8.714   8.658  0.1535  0.0078  0.4056
  664ERGO   ROH10361   6.525   9.126   9.446  0.0761 -0.2475 -0.2164
  664ERGO    R110362   6.640   9.298   9.252  0.0859 -0.1383 -0.1152
  664ERGO    R210363   6.771   9.204   9.028  0.1160 -0.0133 -0.1542
  664ERGO    R310364   6.594   9.364   8.897  0.1176  0.0435 -0.0855
  664ERGO    R410365   6.843   9.387   8.744  0.0892  0.0419 -0.1249
  664ERGO    R510366   6.725   9.551   8.826  0.1304  0.0392 -0.0669
  664ERGO    C110367   6.719   9.645   8.457  0.0750  0.1273 -0.0432
  664ERGO    C210368   6.618   9.852   8.310 -0.0680  0.1946  0.1820
  665ERGO   ROH10369   3.115   2.210  10.388  0.3271 -0.1894 -0.0442
  665ERGO    R110370   3.030   2.174  10.121  0.2162 -0.3165  0.0076
  665ERGO    R210371   3.137   2.317   9.910 -0.2452 -0.0252 -0.0371
  665ERGO    R310372   3.183   2.070   9.807  0.2338  0.0888 -0.1263
  665ERGO    R410373   3.126   2.238   9.574 -0.6165 -0.0081 -0.0326
  665ERGO    R510374   3.027   2.051   9.627 -0.0476 -0.2926  0.1348
  665ERGO    C110375   3.161   1.959   9.282 -0.3831  0.1089 -0.1136
  665ERGO    C210376   3.136   1.999   8.923 -0.0163  0.2264 -0.0915
  666ERGO   ROH10377  13.291  10.860   6.079 -0.1730 -0.0089 -0.0873
  666ERGO    R110378  13.125  10.780   6.293 -0.0354 -0.1641 -0.0352
  666ERGO    R210379  13.202  10.590   6.479  0.1678 -0.1502 -0.0985
  666ERGO    R310380  13.140  10.786   6.657  0.1054 -0.2234 -0.0400
  666ERGO    R410381  13.140  10.539   6.815  0.1914 -0.2666 -0.1123
  666ERGO    R510382  12.978  10.685   6.802  0.1434 -0.3183 -0.0657
  666ERGO    C110383  13.046  10.693   7.178  0.1467 -0.4031 -0.0653
  666ERGO    C210384  13.309  10.534   7.339 -0.1624  0.1604 -0.1399
  667ERGO   ROH10385   7.046   4.879   9.834  0.0856  0.1235 -0.0322
  667ERGO    R110386   7.079   4.730   9.596 -0.0807  0.0210  0.0085
  667ERGO    R210387   6.925   4.774   9.370  0.0145  0.1821 -0.0200
  667ERGO    R310388   7.168   4.801   9.250  0.0747 -0.1813  0.0034
  667ERGO    R410389   6.993   4.686   9.043 -0.2108  0.4561 -0.1461
  667ERGO    R510390   7.186   4.607   9.110 -0.3605 -0.0549 -0.2543
  667ERGO    C110391   7.260   4.660   8.739 -0.2854  0.2745 -0.1974
  667ERGO    C210392   7.099   4.699   8.435 -0.2643 -0.0531  0.1236
  668ERGO   ROH10393   1.812  12.424  10.394 -0.1249 -0.1926  0.0513
  668ERGO    R110394   1.922  12.297  10.165  0.1463  0.0218  0.0578
  668ERGO    R210395   1.766  12.168   9.976  0.4072 -0.2712  0.0294
  668ERGO    R310396   1.895  12.334   9.804  0.1180 -0.0099  0.0580
  668ERGO    R410397   1.792  12.120   9.635  0.4955 -0.1566  0.0196
  668ERGO    R510398   1.998  12.189   9.646  0.3757  0.2023  0.0292
  668ERGO    C110399   1.928  12.247   9.275  0.2755  0.1553  0.0410
  668ERGO    C210400   1.936  12.237   8.853 -0.1609 -0.3531  0.0805
  669ERGO   ROH10401   7.159   3.817  10.097 -0.3224 -0.1456  0.1206
  669ERGO    R110402   7.005   3.721   9.879 -0.1817 -0.0894 -0.0044
  669ERGO    R210403   6.952   3.876   9.656  0.0453 -0.0652 -0.0450
  669ERGO    R310404   7.059   3.664   9.524  0.0821 -0.0969  0.0346
  669ERGO    R410405   6.911   3.812   9.319  0.1682 -0.1279 -0.0489
  669ERGO    R510406   6.890   3.600   9.367  0.1377 -0.1169 -0.0166
  669ERGO    C110407   6.987   3.576   8.998  0.2742 -0.1941  0.0237
  669ERGO    C210408   7.035   3.697   8.644  0.0748 -0.0017 -0.2477
  670ERGO   ROH10409  17.456  11.511   9.784 -0.0219  0.1369  0.0536
  670ERGO    R110410  17.511  11.435   9.517  0.0904  0.1102  0.0839
  670ERGO    R210411  17.316  11.427   9.321  0.1352 -0.0867  0.0451
  670ERGO    R310412  17.489  11.589   9.188  0.0407  0.0110  0.0404
  670ERGO    R410413  17.332  11.460   8.977  0.1317 -0.1047  0.0432
  670ERGO    R510414  17.549  11.465   8.993  0.1283  0.0324  0.0537
  670ERGO    C110415  17.504  11.631   8.652  0.0410 -0.0233  0.0377
  670ERGO    C210416  17.421  11.666   8.407 -0.2468 -0.0080  0.2174
  671ERGO   ROH10417   8.981  12.997  10.050  0.2139  0.0447 -0.0504
  671ERGO    R110418   9.071  13.072   9.792  0.0848  0.1076 -0.0781
  671ERGO    R210419   9.074  12.897   9.578  0.0907  0.1253 -0.0918
  671ERGO    R310420   8.929  13.093   9.458 -0.0467  0.0656 -0.0259
  671ERGO    R410421   9.050  12.943   9.237 -0.1131  0.0924 -0.0828
  671ERGO    R510422   9.062  13.158   9.270 -0.1719  0.1003 -0.1044
  671ERGO    C110423   8.899  13.154   8.925 -0.3607  0.0169 -0.0157
  671ERGO    C210424   9.044  13.092   8.691 -0.0858  0.1505  0.1791
  672ERGO   ROH10425  18.349  17.909  10.339 -0.2488  0.1217  0.0210
  672ERGO    R110426  18.464  17.858  10.086 -0.1638  0.1516  0.0534
  672ERGO    R210427  18.381  17.650   9.924  0.1349 -0.0545  0.1564
  672ERGO    R310428  18.350  17.848   9.740 -0.1386 -0.1894  0.0520
  672ERGO    R410429  18.431  17.613   9.584  0.1623 -0.1640  0.1714
  672ERGO    R510430  18.525  17.810   9.581 -0.0972 -0.0389  0.0625
  672ERGO    C110431  18.430  17.778   9.213 -0.0784 -0.3546  0.0823
  672ERGO    C210432  18.367  17.716   8.844  0.0300  0.1501 -0.2656
  673ERGO   ROH10433   8.850  17.996   6.988 -0.0838  0.0033 -0.0390
  673ERGO    R110434   8.660  18.115   7.161 -0.1345 -0.0130 -0.0828
  673ERGO    R210435   8.434  17.981   7.247 -0.0722 -0.0825 -0.0226
  673ERGO    R310436   8.528  18.048   7.493 -0.0955  0.0614 -0.0524
  673ERGO    R410437   8.244  17.994   7.536 -0.0881  0.0384 -0.0383
  673ERGO    R510438   8.351  18.174   7.593 -0.1203  0.0857 -0.1271
  673ERGO    C110439   8.223  18.065   7.935 -0.1192  0.2442 -0.0755
  673ERGO    C210440   8.322  18.138   8.311 -0.0857 -0.2827 -0.0933
  674PSPI    C110441   2.609  18.059   6.634 -0.0065 -0.0999  0.1113
  674PSPI    C210442   2.712  18.237   6.291  0.1181 -0.2847  0.0512
  674PSPI    C310443   2.695  18.450   6.629  0.1739 -0.1401 -0.0359
  674PSPI   PO410444   2.460  17.899   6.561  0.0690 -0.1969  0.2773
  674PSPI   GL110445   2.162  17.662   6.707  0.2256 -0.1172 -0.0235
  674PSPI   GL210446   1.774  17.494   6.731  0.0682  0.0537  0.1929
  674PSPI   C1A10447   1.938  17.757   7.094 -0.3241  0.0351  0.0763
  674PSPI   C2A10448   1.779  17.747   7.408 -0.3903  0.3199 -0.1199
  674PSPI   C3A10449   1.900  17.689   7.754 -0.0230 -0.1175 -0.2056
  674PSPI   C4A10450   1.797  17.440   8.115 -0.2613 -0.0544  0.2054
  674PSPI   C1B10451   1.710  17.221   7.001  0.0407 -0.2613 -0.1272
  674PSPI   C2B10452   1.762  17.255   7.467  0.1499  0.3457  0.0745
  674PSPI   C3B10453   1.467  17.427   7.725 -0.1349  0.1370 -0.1725
  674PSPI   C4B10454   1.248  17.487   8.064 -0.1801  0.0632  0.1600
  675PSPI    C110455   2.176   2.125   6.239  0.0641  0.5163  0.1557
  675PSPI    C210456   1.957   2.383   6.027 -0.2298  0.1224 -0.0342
  675PSPI    C310457   2.145   2.083   5.842 -0.0284  0.1005  0.2019
  675PSPI   PO410458   2.279   2.219   6.412  0.0570 -0.2313 -0.1877
  675PSPI   GL110459   2.211   2.568   6.733  0.1289  0.3221  0.2027
  675PSPI   GL210460   2.267   2.894   6.683  0.0591 -0.2175 -0.0905
  675PSPI   C1A10461   2.488   2.484   7.091  0.0421  0.5372  0.0485
  675PSPI   C2A10462   2.540   2.489   7.535  0.4739  0.0567 -0.2432
  675PSPI   C3A10463   2.552   2.810   7.802  0.3655 -0.1763  0.1484
  675PSPI   C4A10464   2.845   3.202   7.755 -0.2100  0.0670  0.0523
  675PSPI   C1B10465   2.306   2.942   7.124  0.0741  0.4573 -0.0569
  675PSPI   C2B10466   2.297   3.048   7.487 -0.2416  0.0156  0.0767
  675PSPI   C3B10467   2.266   3.288   7.849 -0.0464 -0.0524 -0.1581
  675PSPI   C4B10468   2.188   3.681   7.962 -0.4802  0.3715  0.0425
  676PSPI    C110469  13.216  16.336   5.901  0.1400  0.2105  0.0324
  676PSPI    C210470  13.102  16.704   5.796 -0.0054  0.0397 -0.4354
  676PSPI    C310471  12.865  16.392   5.717 -0.0515 -0.1249  0.2831
  676PSPI   PO410472  13.368  16.434   6.183  0.0512  0.5294 -0.1276
  676PSPI   GL110473  13.245  16.223   6.501  0.0053 -0.0760  0.1855
  676PSPI   GL210474  12.940  16.376   6.703 -0.0989  0.3717  0.0637
  676PSPI   C1A10475  13.147  15.870   6.635 -0.0699 -0.2705  0.3042
  676PSPI   C2A10476  13.068  15.542   6.987 -0.1602  0.0283 -0.0641
  676PSPI   C3A10477  13.298  15.302   7.234  0.2112 -0.0169 -0.0189
  676PSPI   C4A10478  13.588  15.011   7.370 -0.1251 -0.3123 -0.1569
  676PSPI   C1B10479  12.960  16.015   7.074 -0.2343 -0.0903  0.0435
  676PSPI   C2B10480  12.826  15.695   7.452 -0.0830  0.0858 -0.2703
  676PSPI   C3B10481  12.594  15.848   7.847 -0.1629  0.0735 -0.0208
  676PSPI   C4B10482  12.227  16.139   7.955  0.2400 -0.1735 -0.1872
  677PSPI    C110483  18.181  15.586   6.155  0.2854  0.0856 -0.1318
  677PSPI    C210484  18.511  15.753   6.002  0.2673 -0.0266 -0.2965
  677PSPI    C310485  18.186  15.709   5.774  0.1401  0.0758 -0.1374
  677PSPI   PO410486  18.266  15.379   6.300 -0.3397 -0.1580 -0.0933
  677PSPI   GL110487  18.376  15.094   6.585 -0.0097 -0.1124  0.0213
  677PSPI   GL210488  18.326  14.708   6.647 -0.1273 -0.2692  0.2120
  677PSPI   C1A10489  18.399  15.211   6.980  0.1681 -0.0537 -0.0114
  677PSPI   C2A10490  18.531  15.154   7.448 -0.1284 -0.0185 -0.1884
  677PSPI   C3A10491  18.761  15.281   7.792 -0.0235  0.1933 -0.1667
  677PSPI   C4A10492  19.115  15.526   7.918 -0.0927  0.1074 -0.2894
  677PSPI   C1B10493  18.376  14.720   7.170  0.0575  0.3601  0.2372
  677PSPI   C2B10494  18.387  14.667   7.495 -0.0716 -0.1453 -0.0293
  677PSPI   C3B10495  18.261  14.756   7.845 -0.0147  0.0121 -0.1079
  677PSPI   C4B10496  18.058  14.660   8.199  0.0400 -0.1204  0.0022
  678PSPI    C110497   1.021   3.634   5.317  0.0527 -0.0892 -0.1031
  678PSPI    C210498   1.156   4.010   5.306  0.1414 -0.1146  0.0892
  678PSPI    C310499   0.985   3.850   4.982  0.1297  0.0810 -0.0026
  678PSPI   PO410500   1.200   3.513   5.553  0.4375 -0.1903 -0.0546
  678PSPI   GL110501   1.291   3.515   5.889 -0.1825 -0.1027 -0.3616
  678PSPI   GL210502   1.091   3.380   6.069  0.2140 -0.1820 -0.0240
  678PSPI   C1A10503   1.353   3.618   6.344  0.1479 -0.0530 -0.1610
  678PSPI   C2A10504   1.378   3.940   6.688  0.1227 -0.2061  0.1803
  678PSPI   C3A10505   1.669   4.055   7.043  0.0278  0.3548 -0.1756
  678PSPI   C4A10506   1.849   3.970   7.433  0.1667  0.0016 -0.0526
  678PSPI   C1B10507   0.897   3.452   6.563  0.0136 -0.0524 -0.0179
  678PSPI   C2B10508   1.176   3.573   6.931 -0.0687  0.1269  0.2575
  678PSPI   C3B10509   1.536   3.561   7.179 -0.1416  0.0455 -0.1126
  678PSPI   C4B10510   1.798   3.496   7.588 -0.0785  0.1487 -0.4600
  679PSPI    C110511   9.784  16.132   5.702 -0.0090  0.2627  0.2114
  679PSPI    C210512   9.739  16.411   5.420  0.0572  0.1350  0.0730
  679PSPI    C310513  10.074  16.194   5.434  0.1121  0.2334  0.3345
  679PSPI   PO410514   9.585  16.104   5.883 -0.0587 -0.2379  0.0097
  679PSPI   GL110515   9.714  16.214   6.319  0.2832 -0.0432  0.0508
  679PSPI   GL210516   9.479  16.229   6.625 -0.2377 -0.1774  0.1890
  679PSPI   C1A10517   9.943  16.046   6.691 -0.2084  0.2166  0.1189
  679PSPI   C2A10518  10.157  15.963   7.054  0.1461  0.0507 -0.0086
  679PSPI   C3A10519  10.065  15.883   7.407 -0.1135  0.2460  0.1325
  679PSPI   C4A10520   9.954  15.888   7.890 -0.0882 -0.0778 -0.1383
  679PSPI   C1B10521   9.422  16.271   7.085  0.0607 -0.0339 -0.0956
  679PSPI   C2B10522   9.199  16.270   7.544  0.2526 -0.2529 -0.0802
  679PSPI   C3B10523   9.147  16.270   8.048 -0.0905 -0.1532 -0.1452
  679PSPI   C4B10524   9.063  16.538   8.434  0.0488  0.0827 -0.3533
  680PSPI    C110525  18.081   1.025   5.852  0.1601  0.0105 -0.1101
  680PSPI    C210526  17.833   0.821   5.614  0.0684 -0.1810  0.1439
  680PSPI    C310527  18.225   0.738   5.614  0.1173  0.0318 -0.1616
  680PSPI   PO410528  17.913   1.073   6.051 -0.2961  0.0949  0.0298
  680PSPI   GL110529  17.773   0.906   6.400  0.3807 -0.1360 -0.1425
  680PSPI   GL210530  17.727   0.573   6.405  0.0112  0.1247 -0.1807
  680PSPI   C1A10531  17.505   0.937   6.797 -0.0235 -0.1427  0.0850
  680PSPI   C2A10532  17.273   1.206   7.104 -0.0280  0.3350 -0.1026
  680PSPI   C3A10533  16.838   1.322   7.118  0.0263  0.1282  0.0086
  680PSPI   C4A10534  16.577   1.459   6.827 -0.0223 -0.2505  0.1176
  680PSPI   C1B10535  17.738   0.523   6.864  0.1364  0.1608 -0.0816
  680PSPI   C2B10536  17.631   0.146   7.218 -0.1661  0.2390  0.0348
  680PSPI   C3B10537  17.423  -0.080   7.401  0.0580  0.3517 -0.2083
  680PSPI   C4B10538  17.043  -0.187   7.653 -0.0022 -0.2949  0.0104
  681PSPI    C110539   1.252  14.987   5.970  0.0104  0.1406 -0.0881
  681PSPI    C210540   1.558  14.786   5.809 -0.2679 -0.1132 -0.3129
  681PSPI    C310541   1.435  15.129   5.643  0.0369  0.1114 -0.0860
  681PSPI   PO410542   1.272  14.754   6.301 -0.0058 -0.3737  0.2031
  681PSPI   GL110543   0.879  14.421   6.351 -0.0678  0.0922  0.0192
  681PSPI   GL210544   0.710  14.570   6.399  0.4670 -0.0571  0.5726
  681PSPI   C1A10545   0.796  14.227   6.844 -0.4741  0.0980 -0.0847
  681PSPI   C2A10546   0.792  14.174   7.300 -0.2296  0.0722  0.5126
  681PSPI   C3A10547   0.720  14.283   7.811  0.2483  0.0339 -0.5714
  681PSPI   C4A10548   0.703  14.648   8.029 -0.0618 -0.2687 -0.0368
  681PSPI   C1B10549   0.354  14.247   6.514  0.0179 -0.0220  0.1323
  681PSPI   C2B10550   0.270  14.339   6.935  0.1799 -0.1573 -0.1744
  681PSPI   C3B10551   0.437  14.486   7.304 -0.1058 -0.1577  0.2721
  681PSPI   C4B10552   0.473  14.756   7.611  0.3615  0.2088 -0.2409
  682PSPI    C110553   8.029  11.582   5.643  0.2367  0.0953 -0.1688
  682PSPI    C210554   7.958  11.454   6.015  0.0406 -0.1578 -0.2899
  682PSPI    C310555   7.734  11.745   5.857  0.0063 -0.1755 -0.2738
  682PSPI   PO410556   8.339  11.644   5.659 -0.2804 -0.2950 -0.3538
  682PSPI   GL110557   8.477  11.413   6.030 -0.0640 -0.3406  0.0755
  682PSPI   GL210558   8.370  11.480   6.256 -0.0129  0.2207 -0.1846
  682PSPI   C1A10559   8.591  11.878   6.257  0.1411 -0.1777  0.1761
  682PSPI   C2A10560   8.707  12.077   6.667  0.1391 -0.2360  0.4140
  682PSPI   C3A10561   8.651  12.265   7.049 -0.0223  0.2889 -0.0226
  682PSPI   C4A10562   8.441  12.367   7.521  0.2064 -0.0132 -0.2067
  682PSPI   C1B10563   8.425  11.675   6.670 -0.1971  0.0784 -0.2247
  682PSPI   C2B10564   8.683  11.672   6.953  0.0040  0.2940  0.2097
  682PSPI   C3B10565   8.908  11.473   7.268  0.1961  0.0659 -0.1409
  682PSPI   C4B10566   8.949  11.563   7.623 -0.0027  0.1626 -0.0026
  683PSPI    C110567   4.577   4.808   5.655  0.3954  0.0658  0.2284
  683PSPI    C210568   4.602   4.547   5.957 -0.0729  0.1608  0.3580
  683PSPI    C310569   4.610   4.417   5.579 -0.0505 -0.0152  0.4180
  683PSPI   PO410570   4.309   4.940   5.750  0.1725  0.2516 -0.0928
  683PSPI   GL110571   4.014   5.215   6.030  0.0862  0.0692  0.0760
  683PSPI   GL210572   4.328   5.300   6.133  0.2525 -0.3765  0.0034
  683PSPI   C1A10573   3.773   4.994   6.364 -0.0496  0.0168  0.0922
  683PSPI   C2A10574   3.595   4.618   6.604  0.0671  0.0651 -0.0099
  683PSPI   C3A10575   3.799   4.365   6.874  0.2462 -0.3072 -0.2696
  683PSPI   C4A10576   4.010   4.171   7.218 -0.2402  0.2041 -0.0556
  683PSPI   C1B10577   4.147   5.183   6.620 -0.0907 -0.0355 -0.0964
  683PSPI   C2B10578   4.236   5.093   7.054  0.3779  0.1891  0.4454
  683PSPI   C3B10579   4.500   4.944   7.263 -0.2109  0.3819 -0.0926
  683PSPI   C4B10580   4.815   4.665   7.376 -0.0426  0.1103  0.3799
  684PSPI    C110581  11.478   6.626   5.035 -0.0308 -0.0705 -0.1195
  684PSPI    C210582  11.407   6.330   4.775 -0.2619  0.0091 -0.1496
  684PSPI    C310583  11.596   6.661   4.654  0.1066 -0.1729 -0.0871
  684PSPI   PO410584  11.312   6.629   5.163 -0.1782  0.1043 -0.1070
  684PSPI   GL110585  11.293   6.678   5.536  0.1556 -0.5925 -0.1697
  684PSPI   GL210586  11.379   6.923   5.631 -0.0380  0.1863  0.3736
  684PSPI   C1A10587  11.289   6.495   5.964  0.0348 -0.0756  0.2831
  684PSPI   C2A10588  11.270   6.617   6.463 -0.3860 -0.2715 -0.0840
  684PSPI   C3A10589  11.449   6.347   6.805  0.1248  0.1847  0.0909
  684PSPI   C4A10590  11.509   6.231   7.260  0.1620  0.2191 -0.3136
  684PSPI   C1B10591  11.259   6.939   6.094  0.0161 -0.0509  0.0271
  684PSPI   C2B10592  11.214   7.194   6.433  0.1409  0.1418  0.0973
  684PSPI   C3B10593  11.185   6.992   6.852 -0.1137  0.0080 -0.0054
  684PSPI   C4B10594  11.452   6.735   7.173 -0.2401  0.0279 -0.2052
  685PSPI    C110595  15.730   1.327   5.702 -0.0054  0.0083  0.1891
  685PSPI    C210596  15.903   1.493   5.382 -0.1116 -0.1233  0.0618
  685PSPI    C310597  15.884   1.094   5.416 -0.1647 -0.1100  0.1975
  685PSPI   PO410598  15.783   1.590   5.872  0.0513  0.1973 -0.0056
  685PSPI   GL110599  15.856   1.657   6.323  0.0225 -0.1469  0.0613
  685PSPI   GL210600  16.070   1.831   6.521 -0.0837  0.3880 -0.1940
  685PSPI   C1A10601  15.551   1.780   6.468 -0.0294  0.0978 -0.2873
  685PSPI   C2A10602  15.383   2.048   6.865 -0.2705  0.1379 -0.1643
  685PSPI   C3A10603  15.129   2.361   7.162 -0.0271 -0.0064  0.0631
  685PSPI   C4A10604  15.001   2.621   7.451  0.1267 -0.6595  0.0785
  685PSPI   C1B10605  16.317   1.908   6.852 -0.1444 -0.0766  0.3422
  685PSPI   C2B10606  16.288   1.766   7.272  0.0948  0.3987 -0.2226
  685PSPI   C3B10607  16.507   1.473   7.413  0.0326  0.0863  0.0558
  685PSPI   C4B10608  16.713   1.496   7.767 -0.0825  0.2117 -0.3351
  686PSPI    C110609   0.768   2.698   5.839 -0.0333 -0.1960  0.1030
  686PSPI    C210610   0.881   2.888   5.506 -0.1989  0.0590  0.1894
  686PSPI    C310611   0.494   2.806   5.569 -0.1375 -0.2428  0.1888
  686PSPI   PO410612   0.890   2.941   6.000 -0.0040 -0.0151 -0.2114
  686PSPI   GL110613   0.743   3.004   6.446 -0.0940  0.1353 -0.1626
  686PSPI   GL210614   0.966   2.745   6.510 -0.0857  0.0328 -0.0704
  686PSPI   C1A10615   0.886   3.068   6.885 -0.0071 -0.2091 -0.1815
  686PSPI   C2A10616   0.815   3.240   7.186 -0.3160  0.0762 -0.0806
  686PSPI   C3A10617   1.026   3.452   7.467 -0.0567  0.0461  0.2759
  686PSPI   C4A10618   1.071   3.415   7.867 -0.0028  0.0670 -0.2983
  686PSPI   C1B10619   1.006   2.612   7.012 -0.0585  0.3832 -0.1651
  686PSPI   C2B10620   0.952   2.888   7.458 -0.0434 -0.0875 -0.1402
  686PSPI   C3B10621   1.100   2.883   7.914 -0.0540  0.1964 -0.1377
  686PSPI   C4B10622   0.883   3.097   8.208 -0.2058 -0.0771  0.2713
  687PSPI    C110623  14.161  17.300   5.968 -0.1980  0.0562 -0.0028
  687PSPI    C210624  13.998  17.043   5.709 -0.0585  0.1180 -0.1540
  687PSPI    C310625  14.232  17.339   5.576  0.3311 -0.0802  0.0720
  687PSPI   PO410626  14.259  17.095   6.263 -0.1524  0.0607  0.1626
  687PSPI   GL110627  14.292  17.237   6.677  0.0644 -0.1273 -0.1226
  687PSPI   GL210628  14.016  17.013   6.736 -0.2042  0.0100 -0.0321
  687PSPI   C1A10629  14.406  17.335   7.066 -0.0850  0.0829  0.1781
  687PSPI   C2A10630  14.417  17.579   7.457 -0.1350  0.2358  0.1758
  687PSPI   C3A10631  14.779  17.792   7.578  0.0366 -0.0133  0.1533
  687PSPI   C4A10632  14.895  18.132   7.376 -0.0807 -0.1112 -0.1881
  687PSPI   C1B10633  14.221  16.752   7.059  0.3770 -0.1078  0.1181
  687PSPI   C2B10634  14.149  16.642   7.462 -0.2228  0.0774  0.3187
  687PSPI   C3B10635  13.934  16.591   7.833  0.2881  0.0314  0.0804
  687PSPI   C4B10636  13.675  16.504   8.189  0.2210  0.0481 -0.0101
  688PSPI    C110637  18.256   0.019   5.931  0.2901 -0.1349  0.0427
  688PSPI    C210638  18.524  -0.011   5.635  0.1742  0.0244 -0.0801
  688PSPI    C310639  18.436   0.348   5.791  0.1103 -0.0394  0.0325
  688PSPI   PO410640  18.278  -0.217   6.038 -0.0882 -0.0182 -0.1971
  688PSPI   GL110641  18.458  -0.224   6.440 -0.0327  0.2932 -0.0038
  688PSPI   GL210642  18.573  -0.517   6.261 -0.0827  0.0361  0.1039
  688PSPI   C1A10643  18.584  -0.217   6.828 -0.0485 -0.3024 -0.0828
  688PSPI   C2A10644  18.546  -0.158   7.324  0.2048  0.0856 -0.1606
  688PSPI   C3A10645  18.654  -0.119   7.797  0.0907 -0.3290 -0.0054
  688PSPI   C4A10646  18.585   0.027   8.235 -0.2039 -0.1882 -0.0629
  688PSPI   C1B10647  18.341  -0.676   6.552 -0.1272 -0.2603  0.0793
  688PSPI   C2B10648  17.903  -0.855   6.761  0.1349 -0.2291  0.0128
  688PSPI   C3B10649  17.470  -0.845   6.846 -0.1924  0.1184 -0.1069
  688PSPI   C4B10650  17.369  -1.013   7.223 -0.1004 -0.0943  0.1587
  689PSPI    C110651   1.027  17.259   6.135 -0.2215  0.0971  0.0157
  689PSPI    C210652   0.982  17.407   5.766  0.1067  0.0791 -0.0343
  689PSPI    C310653   0.844  17.042   5.853 -0.0681  0.1266 -0.1083
  689PSPI   PO410654   1.001  17.443   6.241 -0.1367  0.2187 -0.6114
  689PSPI   GL110655   0.778  17.402   6.576  0.2201 -0.1610 -0.0636
  689PSPI   GL210656   0.522  17.629   6.534 -0.2086  0.1347  0.0263
  689PSPI   C1A10657   0.852  17.353   6.954  0.1485  0.1349 -0.0525
  689PSPI   C2A10658   0.591  17.470   7.304 -0.0697 -0.1808 -0.0706
  689PSPI   C3A10659   0.151  17.498   7.383 -0.2380  0.1133 -0.1042
  689PSPI   C4A10660  -0.109  17.883   7.087  0.1688  0.3147 -0.1305
  689PSPI   C1B10661   0.271  17.510   6.887  0.0931 -0.0029  0.0166
  689PSPI   C2B10662  -0.062  17.336   7.000  0.2163  0.2024 -0.1379
  689PSPI   C3B10663  -0.370  17.545   7.408  0.3509  0.2695  0.1117
  689PSPI   C4B10664  -0.710  17.573   7.635 -0.0823 -0.1402 -0.1020
  690PSPI    C110665  14.491   2.569   5.798 -0.1413  0.0474 -0.1357
  690PSPI    C210666  14.586   2.190   5.714  0.0195  0.1219 -0.2967
  690PSPI    C310667  14.643   2.476   5.440 -0.1408  0.2567 -0.1913
  690PSPI   PO410668  14.224   2.582   5.839 -0.0216  0.0162  0.2797
  690PSPI   GL110669  14.046   2.711   6.185 -0.2595  0.0481 -0.0171
  690PSPI   GL210670  14.140   2.503   6.435  0.2229  0.0467  0.0235
  690PSPI   C1A10671  13.745   2.928   6.250  0.2743  0.0768 -0.2795
  690PSPI   C2A10672  13.641   3.277   6.557  0.1215  0.1733  0.0078
  690PSPI   C3A10673  13.785   3.525   6.867  0.2475 -0.3057 -0.1771
  690PSPI   C4A10674  13.855   3.789   7.202  0.1185  0.0192 -0.1211
  690PSPI   C1B10675  14.191   2.404   6.837 -0.0553  0.0826  0.2537
  690PSPI   C2B10676  14.293   2.408   7.320  0.0552 -0.1289 -0.1703
  690PSPI   C3B10677  14.491   2.541   7.676  0.1148 -0.0080  0.1197
  690PSPI   C4B10678  14.459   2.153   8.005  0.0170  0.1673  0.3524
  691PSPI    C110679   9.515   7.449   5.109 -0.0490  0.0655 -0.1615
  691PSPI    C210680   9.677   7.097   5.013  0.1835  0.1707 -0.1615
  691PSPI    C310681   9.375   7.243   4.796  0.0933 -0.0218 -0.1684
  691PSPI   PO410682   9.564   7.411   5.417  0.1540 -0.2392  0.0675
  691PSPI   GL110683   9.820   7.191   5.662  0.0689  0.0357 -0.3339
  691PSPI   GL210684   9.923   6.895   5.826  0.0664 -0.1418  0.2480
  691PSPI   C1A10685   9.600   7.222   6.099 -0.3313  0.2051  0.5184
  691PSPI   C2A10686   9.741   7.247   6.425 -0.0544 -0.1765  0.0008
  691PSPI   C3A10687  10.174   7.233   6.724 -0.0477 -0.2536  0.0701
  691PSPI   C4A10688  10.287   7.221   7.167  0.2611 -0.0808  0.1537
  691PSPI   C1B10689  10.000   6.514   6.109  0.0129 -0.1901  0.1043
  691PSPI   C2B10690   9.623   6.186   6.393  0.1345 -0.0785 -0.2725
  691PSPI   C3B10691   9.286   6.007   6.524 -0.1119  0.1164  0.2826
  691PSPI   C4B10692   9.176   5.828   6.808  0.1915  0.2953  0.1345
  692PSPI    C110693   6.807  18.017   6.055  0.1679 -0.1592  0.0647
  692PSPI    C210694   6.924  18.160   5.700 -0.2753  0.0459 -0.0055
  692PSPI    C310695   6.904  17.765   5.760  0.3832  0.0027 -0.0051
  692PSPI   PO410696   6.659  18.235   6.182 -0.0376 -0.2193 -0.5184
  692PSPI   GL110697   6.743  18.271   6.553 -0.1790  0.2223 -0.4148
  692PSPI   GL210698   7.077  18.341   6.689  0.0594  0.1965  0.0992
  692PSPI   C1A10699   6.766  18.691   6.750  0.0788  0.0855 -0.2617
  692PSPI   C2A10700   6.484  18.908   6.927 -0.4640  0.0408  0.3820
  692PSPI   C3A10701   6.097  18.818   7.095 -0.0092  0.1362  0.0121
  692PSPI   C4A10702   5.881  18.402   7.002  0.0168 -0.1944  0.0513
  692PSPI   C1B10703   7.271  18.495   6.978  0.1413  0.0019 -0.0242
  692PSPI   C2B10704   7.327  18.215   7.399 -0.0807  0.1221 -0.0449
  692PSPI   C3B10705   7.246  18.207   7.851 -0.1865 -0.0110  0.2214
  692PSPI   C4B10706   6.934  18.269   8.161  0.3406 -0.2676  0.5938
  693PSPI    C110707  10.072   9.915   5.934 -0.0465 -0.0893 -0.2312
  693PSPI    C210708  10.201  10.230   5.724  0.0706  0.1375  0.1683
  693PSPI    C310709   9.916  10.277   6.001 -0.0549 -0.1491  0.0919
  693PSPI   PO410710  10.290   9.710   6.096 -0.0692 -0.1808 -0.4303
  693PSPI   GL110711  10.565   9.428   6.279  0.0543 -0.1205  0.0521
  693PSPI   GL210712  10.381   9.193   6.098 -0.0778  0.3877 -0.0660
  693PSPI   C1A10713  10.302   9.265   6.604 -0.1850  0.1343  0.0001
  693PSPI   C2A10714  10.111   9.050   6.943 -0.1781 -0.0036  0.0411
  693PSPI   C3A10715  10.338   9.085   7.230 -0.4771 -0.2391  0.0913
  693PSPI   C4A10716  10.772   8.985   7.329  0.1060 -0.2468  0.3210
  693PSPI   C1B10717  10.184   8.799   6.382 -0.4546  0.2681  0.0650
  693PSPI   C2B10718  10.285   8.423   6.663 -0.0010 -0.0398 -0.2407
  693PSPI   C3B10719  10.354   8.106   6.907  0.2254 -0.1156 -0.2903
  693PSPI   C4B10720  10.420   8.173   7.377  0.0078 -0.4266  0.1637
  694POPI    C110721   6.993  16.870   6.286  0.1391 -0.1404  0.1747
  694POPI    C210722   6.697  16.669   6.464 -0.1644  0.2115  0.0775
  694POPI    C310723   6.819  16.564   6.098 -0.1416  0.0416  0.1333
  694POPI   PO410724   7.181  16.831   6.460 -0.1816 -0.2652 -0.3103
  694POPI   GL110725   7.224  16.892   6.904  0.1548 -0.1853  0.0918
  694POPI   GL210726   6.828  16.923   6.849 -0.2175  0.0144  0.0401
  694POPI   C1A10727   7.128  17.094   7.320  0.0002 -0.3222  0.0812
  694POPI   D2A10728   6.954  17.207   7.630  0.0750 -0.0120  0.3478
  694POPI   C3A10729   7.047  17.278   8.052 -0.1484 -0.0330 -0.1233
  694POPI   C4A10730   6.892  17.234   8.465  0.2534 -0.2690 -0.3003
  694POPI   C1B10731   6.841  16.657   7.228 -0.0512 -0.2309 -0.0728
  694POPI   C2B10732   6.963  16.672   7.549 -0.0783  0.0793 -0.2600
  694POPI   C3B10733   7.147  16.432   7.923 -0.1417  0.0416  0.2484
  694POPI   C4B10734   7.257  16.009   8.054  0.3257  0.1175 -0.0208
  695POPI    C110735  12.490   4.876   5.111  0.2316  0.2000 -0.1348
  695POPI    C210736  12.664   4.558   4.941 -0.1536 -0.0145 -0.1398
  695POPI    C310737  12.370   4.751   4.750 -0.3007  0.0030  0.0998
  695POPI   PO410738  12.715   5.067   5.180  0.0459 -0.0731  0.2407
  695POPI   GL110739  12.998   5.432   5.372 -0.1601 -0.1801 -0.1021
  695POPI   GL210740  13.288   5.460   5.582  0.1608 -0.2189 -0.0612
  695POPI   C1A10741  12.803   5.357   5.698  0.2702 -0.1107 -0.1501
  695POPI   D2A10742  12.451   5.533   6.015  0.0676 -0.2180  0.0983
  695POPI   C3A10743  12.328   5.350   6.325 -0.3377  0.0169 -0.1155
  695POPI   C4A10744  12.486   5.349   6.679 -0.0498  0.1055  0.2268
  695POPI   C1B10745  13.306   5.353   5.941 -0.1658  0.2309  0.0476
  695POPI   C2B10746  13.379   5.329   6.442  0.4877  0.0798 -0.2503
  695POPI   C3B10747  13.440   5.481   6.766  0.2400  0.3546  0.1749
  695POPI   C4B10748  13.288   5.834   7.016 -0.1083  0.0479 -0.0869
  696POPI    C110749   9.235   7.845   5.266 -0.0183 -0.0043  0.0717
  696POPI    C210750   9.047   7.615   4.999  0.0739  0.1417 -0.1208
  696POPI    C310751   9.007   8.013   4.984  0.0674  0.1501  0.0930
  696POPI   PO410752   9.183   7.767   5.450 -0.2852 -0.0274  0.2758
  696POPI   GL110753   9.220   7.557   5.864  0.0489 -0.1595  0.2619
  696POPI   GL210754   9.528   7.732   5.789  0.0321 -0.3873 -0.2923
  696POPI   C1A10755   9.534   7.668   6.305 -0.0063  0.1621  0.4330
  696POPI   D2A10756   9.453   7.551   6.714 -0.0612  0.0360  0.4329
  696POPI   C3A10757   9.731   7.327   6.948  0.2296 -0.1503  0.1124
  696POPI   C4A10758   9.892   6.959   6.978 -0.0232  0.0402 -0.2639
  696POPI   C1B10759   9.369   8.002   6.044  0.0150 -0.0587  0.1590
  696POPI   C2B10760   9.388   8.034   6.582  0.1862  0.0147 -0.1006
  696POPI   C3B10761   9.466   7.939   7.012  0.0658 -0.1926  0.2211
  696POPI   C4B10762   9.759   8.028   7.416  0.1941 -0.3509  0.0937
  697POPI    C110763  15.870   7.808   5.732  0.1091  0.0618 -0.0236
  697POPI    C210764  15.571   7.620   5.544  0.1637  0.1635 -0.2158
  697POPI    C310765  15.878   7.410   5.692 -0.1771  0.0167  0.3150
  697POPI   PO410766  15.837   8.025   5.628  0.0405  0.4640  0.0626
  697POPI   GL110767  16.166   8.241   5.855  0.0704 -0.2894 -0.1415
  697POPI   GL210768  15.901   8.302   6.031  0.2088  0.0508 -0.1804
  697POPI   C1A10769  16.107   7.906   6.285 -0.3766  0.1770  0.1501
  697POPI   D2A10770  15.691   7.816   6.347  0.0259 -0.0912  0.1162
  697POPI   C3A10771  15.624   7.820   6.773  0.0809 -0.0698 -0.1480
  697POPI   C4A10772  15.920   7.698   7.114  0.2634 -0.2488 -0.1922
  697POPI   C1B10773  15.869   8.282   6.518  0.0776  0.1539 -0.1892
  697POPI   C2B10774  15.971   8.376   7.078  0.2952 -0.2311  0.4167
  697POPI   C3B10775  16.260   8.095   7.272  0.3142 -0.2092 -0.1395
  697POPI   C4B10776  16.349   7.716   7.349 -0.2139  0.4115 -0.1772
  698POPI    C110777  14.368   4.059   5.074 -0.3561  0.0339  0.1365
  698POPI    C210778  14.741   4.057   4.929 -0.3089 -0.0253  0.2579
  698POPI    C310779  14.492   4.356   4.836 -0.3056 -0.1038 -0.0110
  698POPI   PO410780  14.397   3.960   5.298 -0.0022  0.0978  0.0489
  698POPI   GL110781  14.474   4.038   5.727 -0.1830  0.3545  0.2584
  698POPI   GL210782  14.838   4.131   5.798 -0.0231  0.0616  0.0992
  698POPI   C1A10783  14.229   4.332   5.954  0.0545 -0.1959  0.0588
  698POPI   D2A10784  13.914   4.408   6.220 -0.0694 -0.2880  0.0847
  698POPI   C3A10785  13.656   4.333   6.619 -0.1022  0.2123  0.0259
  698POPI   C4A10786  13.486   4.029   6.867  0.0596  0.1700  0.4017
  698POPI   C1B10787  15.087   4.057   6.155 -0.0149  0.2324 -0.2250
  698POPI   C2B10788  15.364   4.446   6.365 -0.1245 -0.3390 -0.0271
  698POPI   C3B10789  15.627   4.486   6.778 -0.0904  0.1491  0.0526
  698POPI   C4B10790  15.817   4.421   7.139  0.0656  0.2465  0.0347
  699POPI    C110791  12.610   8.710   5.299 -0.0666 -0.0744  0.0791
  699POPI    C210792  12.968   8.818   5.159 -0.1173 -0.0575 -0.0389
  699POPI    C310793  12.637   8.924   4.962 -0.1927  0.0145  0.1248
  699POPI   PO410794  12.631   8.745   5.574  0.1326 -0.1652  0.1224
  699POPI   GL110795  13.013   8.776   5.883 -0.2002  0.0149  0.0057
  699POPI   GL210796  12.908   9.070   5.875 -0.4730  0.1308 -0.2686
  699POPI   C1A10797  13.256   8.445   6.079  0.0103  0.0607  0.2532
  699POPI   D2A10798  13.593   8.219   6.291 -0.0384 -0.1843 -0.0060
  699POPI   C3A10799  13.759   8.189   6.744 -0.1877  0.1209 -0.1379
  699POPI   C4A10800  13.552   8.043   7.214 -0.0214  0.2099 -0.0149
  699POPI   C1B10801  12.937   9.022   6.385 -0.0069  0.0527  0.0658
  699POPI   C2B10802  13.074   9.188   6.825 -0.0905  0.0344 -0.0513
  699POPI   C3B10803  13.052   9.273   7.262 -0.2380  0.2806  0.2887
  699POPI   C4B10804  13.229   9.197   7.693 -0.0419 -0.0480 -0.0286
  700POPI    C110805  14.323  18.200   6.094  0.0463  0.2103  0.0549
  700POPI    C210806  14.684  18.177   5.925  0.0136 -0.0545  0.0164
  700POPI    C310807  14.363  18.253   5.700  0.0502  0.2377  0.0590
  700POPI   PO410808  14.297  18.073   6.384  0.0395 -0.0117 -0.1989
  700POPI   GL110809  14.117  18.274   6.681 -0.1003 -0.0263 -0.0727
  700POPI   GL210810  13.891  18.012   6.753  0.2881 -0.1329  0.0878
  700POPI   C1A10811  14.093  18.592   6.917 -0.3035 -0.1975  0.1487
  700POPI   D2A10812  14.036  18.624   7.306  0.0284 -0.0093 -0.0275
  700POPI   C3A10813  13.926  18.974   7.479  0.2799  0.1111  0.3338
  700POPI   C4A10814  13.858  19.310   7.654  0.1283 -0.0596  0.0114
  700POPI   C1B10815  13.755  17.875   7.146 -0.2621  0.3216 -0.2764
  700POPI   C2B10816  13.719  17.820   7.570 -0.0380 -0.1231 -0.3891
  700POPI   C3B10817  13.503  18.094   7.872  0.1535 -0.0084  0.0018
  700POPI   C4B10818  13.329  18.168   8.237  0.2451  0.1675 -0.0068
  701POPI    C110819  12.051  13.715   5.794 -0.0138  0.2535  0.0372
  701POPI    C210820  11.832  13.382   5.765 -0.1916  0.3594  0.1406
  701POPI    C310821  11.974  13.558   5.435  0.3006 -0.0747  0.1079
  701POPI   PO410822  12.147  13.675   6.088 -0.0900  0.3247  0.0149
  701POPI   GL110823  12.131  13.659   6.534  0.2690  0.2028  0.3621
  701POPI   GL210824  12.323  13.970   6.582  0.1404  0.0810 -0.1510
  701POPI   C1A10825  12.070  13.258   6.651 -0.2894  0.1510  0.1446
  701POPI   D2A10826  12.011  13.009   7.047 -0.1596 -0.2997 -0.1917
  701POPI   C3A10827  12.160  12.925   7.510 -0.2438  0.2432 -0.2424
  701POPI   C4A10828  12.544  12.895   7.765  0.0495  0.0344 -0.0116
  701POPI   C1B10829  12.417  14.162   6.927  0.1989  0.1679 -0.1559
  701POPI   C2B10830  12.602  14.113   7.397 -0.0756 -0.1406  0.0135
  701POPI   C3B10831  12.593  13.803   7.709  0.1626  0.1677  0.2355
  701POPI   C4B10832  12.746  13.417   7.981 -0.1247 -0.0651  0.0241
  702POPI    C110833  13.145  11.746   5.396  0.1289  0.3180  0.1241
  702POPI    C210834  12.953  12.063   5.246 -0.0326  0.0523 -0.2463
  702POPI    C310835  12.797  11.696   5.205  0.1801 -0.0852  0.1258
  702POPI   PO410836  13.193  11.940   5.641  0.0539 -0.0172 -0.1962
  702POPI   GL110837  13.095  12.233   5.989  0.1938  0.0429  0.0578
  702POPI   GL210838  12.946  12.488   6.078 -0.0862 -0.3077 -0.0966
  702POPI   C1A10839  13.161  12.208   6.461  0.1979 -0.0414 -0.1222
  702POPI   D2A10840  13.274  11.800   6.671 -0.0026  0.1937 -0.0991
  702POPI   C3A10841  13.144  11.673   7.059 -0.0313  0.2596  0.0241
  702POPI   C4A10842  12.866  11.729   7.490  0.3374 -0.3961  0.0116
  702POPI   C1B10843  12.916  12.839   6.435 -0.2402  0.2000 -0.2690
  702POPI   C2B10844  12.648  13.108   6.715 -0.0699 -0.0831  0.1757
  702POPI   C3B10845  12.426  13.157   7.161 -0.0745 -0.0143  0.2736
  702POPI   C4B10846  12.500  13.346   7.552 -0.2548 -0.1252  0.3162
  703POPI    C110847   7.046  13.468   5.957 -0.1536  0.0803 -0.1767
  703POPI    C210848   6.689  13.335   5.835 -0.1803 -0.3488  0.3356
  703POPI    C310849   7.019  13.123   5.757 -0.0642 -0.0873  0.0959
  703POPI   PO410850   6.895  13.663   6.192  0.0895 -0.3059 -0.0950
  703POPI   GL110851   6.638  13.628   6.619  0.1276  0.0055 -0.0787
  703POPI   GL210852   6.834  13.784   6.791 -0.1593 -0.0605 -0.1025
  703POPI   C1A10853   6.424  13.617   7.032  0.0330 -0.0446 -0.1852
  703POPI   D2A10854   6.350  13.914   7.395  0.1342 -0.3362 -0.0635
  703POPI   C3A10855   6.226  14.298   7.383  0.1105 -0.0030  0.3357
  703POPI   C4A10856   6.308  14.648   7.509 -0.0459 -0.1837 -0.1565
  703POPI   C1B10857   6.864  13.902   7.181 -0.0778 -0.1407  0.0644
  703POPI   C2B10858   6.797  13.859   7.603  0.0149  0.0656 -0.3294
  703POPI   C3B10859   6.844  13.567   7.883  0.1874 -0.0281  0.1021
  703POPI   C4B10860   6.660  13.147   8.056  0.1348  0.0392  0.0291
  704POPI    C110861   6.188  18.305   5.777  0.0150 -0.1390  0.0495
  704POPI    C210862   6.450  18.044   5.625  0.1988  0.0270  0.0767
  704POPI    C310863   6.280  18.318   5.388  0.0932 -0.0427  0.0709
  704POPI   PO410864   6.085  18.157   6.023 -0.2087  0.1027 -0.0236
  704POPI   GL110865   6.258  18.115   6.461 -0.0002 -0.0746  0.0869
  704POPI   GL210866   6.355  17.961   6.810 -0.1461  0.1491 -0.0804
  704POPI   C1A10867   6.318  18.463   6.704 -0.2572 -0.1295  0.0028
  704POPI   D2A10868   6.504  18.429   7.075 -0.1788  0.0210  0.0552
  704POPI   C3A10869   6.799  18.660   7.284 -0.2093  0.0355  0.2968
  704POPI   C4A10870   7.198  18.878   7.338 -0.1123  0.0445 -0.0779
  704POPI   C1B10871   6.359  17.650   7.095 -0.2985 -0.1869 -0.1244
  704POPI   C2B10872   6.111  17.411   7.308 -0.0386 -0.0398  0.0542
  704POPI   C3B10873   5.832  17.062   7.426 -0.0404  0.2052  0.0560
  704POPI   C4B10874   5.348  16.935   7.478 -0.2870  0.1049 -0.1617
  705POPI    C110875   5.269   3.509   5.965 -0.1445 -0.1047  0.0523
  705POPI    C210876   5.090   3.732   5.686  0.0962 -0.1301 -0.1250
  705POPI    C310877   5.064   3.334   5.669 -0.1207 -0.1249  0.0478
  705POPI   PO410878   5.236   3.706   6.178  0.2125  0.1092 -0.0117
  705POPI   GL110879   4.957   3.727   6.552 -0.1291 -0.0435 -0.0208
  705POPI   GL210880   4.979   3.387   6.523 -0.3362 -0.1320 -0.1019
  705POPI   C1A10881   5.166   3.737   6.939 -0.0703  0.0734 -0.0075
  705POPI   D2A10882   5.236   3.979   7.201 -0.1448  0.1106  0.2067
  705POPI   C3A10883   5.044   4.223   7.283  0.0200  0.0113 -0.0773
  705POPI   C4A10884   4.930   4.312   7.719 -0.1186  0.3440 -0.0958
  705POPI   C1B10885   4.904   3.344   7.004 -0.0498  0.0032  0.1984
  705POPI   C2B10886   4.872   3.247   7.436  0.1531 -0.1275  0.2179
  705POPI   C3B10887   5.006   3.451   7.893  0.2050 -0.0265  0.4860
  705POPI   C4B10888   5.406   3.805   7.805  0.1022 -0.2029 -0.0233
  706POPI    C110889  15.661  12.883   5.546 -0.1211 -0.2441 -0.0573
  706POPI    C210890  15.822  13.249   5.557  0.0197 -0.3100  0.1285
  706POPI    C310891  15.543  13.161   5.284 -0.2248  0.0223  0.2653
  706POPI   PO410892  15.988  12.757   5.624  0.0936 -0.2012 -0.2137
  706POPI   GL110893  16.061  12.376   5.727 -0.0564 -0.1833 -0.3575
  706POPI   GL210894  15.842  12.347   5.866 -0.1347  0.0350  0.2060
  706POPI   C1A10895  16.524  12.327   5.768 -0.2202 -0.2135  0.0494
  706POPI   D2A10896  16.777  12.393   6.077 -0.0503  0.1425 -0.3633
  706POPI   C3A10897  16.586  12.495   6.436  0.3375  0.0177  0.3691
  706POPI   C4A10898  16.547  12.361   6.716 -0.2272 -0.2667  0.1047
  706POPI   C1B10899  16.046  12.512   6.181 -0.1736  0.0719 -0.1614
  706POPI   C2B10900  16.014  12.689   6.486 -0.1043 -0.0372  0.0134
  706POPI   C3B10901  16.274  12.796   6.705 -0.2071  0.1040 -0.0702
  706POPI   C4B10902  16.403  12.675   7.058 -0.1070 -0.1031  0.0410
  707POPI    C110903   7.140  11.741   5.239  0.2087 -0.1209 -0.0806
  707POPI    C210904   6.942  11.395   5.204  0.1703 -0.1264  0.1756
  707POPI    C310905   7.220  11.494   4.934  0.0182 -0.2487 -0.0291
  707POPI   PO410906   7.268  11.694   5.546 -0.0322 -0.2354 -0.0503
  707POPI   GL110907   7.125  11.765   5.974  0.3328  0.0308  0.1466
  707POPI   GL210908   7.318  11.498   6.063 -0.0503 -0.2065  0.1090
  707POPI   C1A10909   7.133  12.151   6.179 -0.1738  0.0513  0.2710
  707POPI   D2A10910   7.010  12.221   6.629  0.3828 -0.2418 -0.1610
  707POPI   C3A10911   7.014  11.987   6.969  0.1196  0.0128 -0.0506
  707POPI   C4A10912   7.019  12.044   7.344 -0.0372  0.0085 -0.3452
  707POPI   C1B10913   7.499  11.716   6.319  0.4462 -0.0765 -0.2461
  707POPI   C2B10914   7.916  11.908   6.299  0.2408  0.1503 -0.1024
  707POPI   C3B10915   8.198  12.142   6.616  0.3354  0.4494  0.1015
  707POPI   C4B10916   8.290  12.518   6.702 -0.2087  0.0987 -0.0008
  708POPI    C110917   0.696  15.867   6.273  0.1944 -0.1555  0.0799
  708POPI    C210918   0.626  15.883   5.879 -0.2095  0.1378  0.1568
  708POPI    C310919   1.000  15.914   6.018 -0.0406 -0.1752 -0.2097
  708POPI   PO410920   0.396  16.053   6.313  0.2713 -0.1386 -0.0074
  708POPI   GL110921   0.018  15.875   6.482 -0.0473 -0.1326 -0.0101
  708POPI   GL210922  -0.353  15.889   6.531  0.0306 -0.1889  0.1168
  708POPI   C1A10923   0.050  15.783   6.877  0.1734 -0.2501 -0.0185
  708POPI   D2A10924   0.042  15.859   7.329 -0.0299  0.0021 -0.0360
  708POPI   C3A10925   0.030  15.637   7.670  0.1773  0.1992 -0.2197
  708POPI   C4A10926  -0.069  15.734   8.119  0.1163  0.0285  0.0615
  708POPI   C1B10927  -0.776  15.993   6.744  0.2120  0.2155  0.0474
  708POPI   C2B10928  -1.170  15.902   6.919  0.0393 -0.4560 -0.0345
  708POPI   C3B10929  -1.519  15.560   6.942  0.1054 -0.3116 -0.1114
  708POPI   C4B10930  -1.650  15.284   6.618  0.0384  0.0833  0.4254
  709POPI    C110931  16.065   0.535   5.848  0.0766  0.1692 -0.0811
  709POPI    C210932  15.782   0.815   5.804 -0.0135  0.0474 -0.2936
  709POPI    C310933  15.791   0.499   5.559  0.0247 -0.1918  0.0085
  709POPI   PO410934  16.082   0.522   6.121  0.2331  0.1319 -0.2586
  709POPI   GL110935  15.916   0.850   6.452 -0.2104 -0.4047 -0.1950
  709POPI   GL210936  15.830   0.565   6.650 -0.2584  0.2224 -0.0415
  709POPI   C1A10937  16.090   0.983   6.835 -0.0816  0.0167  0.1711
  709POPI   D2A10938  16.386   1.066   7.168 -0.2781 -0.1274 -0.2428
  709POPI   C3A10939  16.224   1.094   7.442  0.0643  0.0235  0.1955
  709POPI   C4A10940  16.409   1.041   7.812 -0.0543  0.0474 -0.1341
  709POPI   C1B10941  15.654   0.702   7.055  0.0532  0.0470  0.3802
  709POPI   C2B10942  15.687   0.648   7.385 -0.1564  0.3646  0.0348
  709POPI   C3B10943  15.584   0.600   7.820 -0.1596  0.0918  0.0117
  709POPI   C4B10944  15.388   0.531   8.236  0.0583 -0.0600  0.0392
  710POPI    C110945   4.790  14.876   5.961 -0.0143 -0.0249 -0.0274
  710POPI    C210946   5.044  14.639   5.762  0.0257 -0.0489  0.0519
  710POPI    C310947   4.919  14.981   5.597 -0.0387 -0.1289 -0.0664
  710POPI   PO410948   4.812  14.682   6.309  0.0468 -0.0831  0.0539
  710POPI   GL110949   4.846  14.322   6.630  0.2568  0.0502  0.2051
  710POPI   GL210950   4.954  14.015   6.704  0.0936 -0.2289  0.2600
  710POPI   C1A10951   4.846  14.512   7.038  0.0817  0.2047 -0.0631
  710POPI   D2A10952   4.970  14.872   7.099  0.1693 -0.2207 -0.1351
  710POPI   C3A10953   5.353  15.014   7.014 -0.0417 -0.0416 -0.3528
  710POPI   C4A10954   5.611  15.341   6.898  0.0185  0.2688 -0.3653
  710POPI   C1B10955   4.928  14.045   7.083  0.1287 -0.0267 -0.4625
  710POPI   C2B10956   4.710  14.273   7.425  0.3007  0.0136  0.0056
  710POPI   C3B10957   4.824  14.629   7.528 -0.0369 -0.0258 -0.2853
  710POPI   C4B10958   4.784  14.898   7.830 -0.1686 -0.0267 -0.1200
  711POPI    C110959   0.143  13.958   5.726  0.2019 -0.0023 -0.1074
  711POPI    C210960   0.330  14.261   5.909 -0.2018  0.2699 -0.1316
  711POPI    C310961   0.358  14.218   5.512 -0.0425  0.1984 -0.1135
  711POPI   PO410962   0.210  13.735   5.886 -0.1385 -0.1934 -0.2210
  711POPI   GL110963   0.036  13.572   6.304 -0.0255 -0.3038 -0.0522
  711POPI   GL210964   0.060  13.339   6.147  0.1915  0.2908 -0.2458
  711POPI   C1A10965  -0.042  13.517   6.793 -0.1587  0.2154 -0.0533
  711POPI   D2A10966  -0.008  13.565   7.216 -0.0982  0.1234  0.1147
  711POPI   C3A10967  -0.235  13.383   7.583 -0.0251  0.3221 -0.0216
  711POPI   C4A10968  -0.304  13.584   7.995  0.1665 -0.1145 -0.1317
  711POPI   C1B10969  -0.260  13.059   6.257  0.0096  0.0582  0.0347
  711POPI   C2B10970  -0.257  12.640   6.550  0.0348 -0.0106 -0.0231
  711POPI   C3B10971  -0.022  12.593   6.981 -0.3099 -0.0656  0.1084
  711POPI   C4B10972   0.002  12.371   7.388  0.1101  0.1031 -0.1591
  712POPI    C110973   6.214   3.954   5.996 -0.0280 -0.3022  0.0425
  712POPI    C210974   6.381   3.986   5.633 -0.1392  0.1406  0.0246
  712POPI    C310975   6.037   4.174   5.713 -0.2717 -0.1969  0.2730
  712POPI   PO410976   6.375   3.654   5.993 -0.0313  0.1167  0.2329
  712POPI   GL110977   6.500   3.424   6.364 -0.0757  0.0065  0.0183
  712POPI   GL210978   6.869   3.464   6.431 -0.0327  0.0935  0.0753
  712POPI   C1A10979   6.238   3.159   6.607 -0.0109  0.2681  0.2555
  712POPI   D2A10980   6.242   2.974   6.914  0.0948  0.2424 -0.3942
  712POPI   C3A10981   5.877   2.875   7.027  0.0596 -0.0612 -0.0353
  712POPI   C4A10982   5.443   2.952   6.966 -0.6268  0.1081 -0.0196
  712POPI   C1B10983   6.685   3.291   6.832  0.0651  0.1098 -0.1640
  712POPI   C2B10984   6.640   3.064   7.261  0.1520 -0.6445  0.2290
  712POPI   C3B10985   6.439   3.090   7.670  0.2587 -0.1926  0.0946
  712POPI   C4B10986   6.302   3.178   8.064  0.1483 -0.0331 -0.2203
  713POPI    C110987  11.261  12.725   5.475  0.0882  0.2087 -0.0846
  713POPI    C210988  10.978  12.480   5.334  0.2098  0.0600 -0.0743
  713POPI    C310989  10.937  12.876   5.296 -0.1124  0.0513  0.1380
  713POPI   PO410990  11.335  12.492   5.652  0.1749  0.0504  0.2605
  713POPI   GL110991  11.472  12.386   5.995  0.1220 -0.0925  0.1674
  713POPI   GL210992  11.077  12.470   6.140 -0.0247 -0.0734  0.0702
  713POPI   C1A10993  11.473  12.492   6.434  0.3930 -0.0532  0.2697
  713POPI   D2A10994  11.766  12.870   6.550 -0.1898  0.0770 -0.1035
  713POPI   C3A10995  11.523  13.201   6.755 -0.0318 -0.3324  0.0866
  713POPI   C4A10996  11.220  13.520   6.835 -0.0320  0.1213 -0.1771
  713POPI   C1B10997  10.944  12.414   6.559  0.0750 -0.3669 -0.0470
  713POPI   C2B10998  11.105  12.491   6.983  0.1145 -0.2593 -0.0939
  713POPI   C3B10999  10.855  12.792   7.324 -0.0824 -0.0824  0.3816
  713POPI   C4B11000  10.564  13.050   7.424 -0.3176 -0.0982  0.0761
  714POPI    C111001  12.115  14.219   6.137  0.1760  0.1165 -0.0504
  714POPI    C211002  11.932  14.204   5.782  0.2069  0.0999 -0.0658
  714POPI    C311003  11.795  14.448   6.068 -0.0378 -0.1500  0.0356
  714POPI   PO411004  12.426  14.205   6.159  0.0311 -0.2410  0.0619
  714POPI   GL111005  12.889  14.148   6.335 -0.1832 -0.2004  0.2427
  714POPI   GL211006  13.192  14.094   6.350  0.1200 -0.0726  0.1018
  714POPI   C1A11007  12.824  14.269   6.648  0.0384  0.0043  0.1286
  714POPI   D2A11008  12.906  14.379   7.091  0.0406  0.0471 -0.0235
  714POPI   C3A11009  12.660  14.645   7.282 -0.2769  0.1710  0.0034
  714POPI   C4A11010  12.352  15.002   7.364  0.0741 -0.0180 -0.2412
  714POPI   C1B11011  13.188  13.935   6.742  0.1165 -0.1205  0.1800
  714POPI   C2B11012  12.973  13.815   7.044  0.1686  0.0303 -0.1247
  714POPI   C3B11013  13.009  13.415   7.240  0.0223 -0.1908  0.0104
  714POPI   C4B11014  13.085  13.170   7.623 -0.2112 -0.0078  0.0904
  715POPI    C111015   2.122   9.342   5.718 -0.0097 -0.0857  0.0178
  715POPI    C211016   2.163   8.963   5.599 -0.1618 -0.1058  0.0280
  715POPI    C311017   2.225   9.262   5.340 -0.2798 -0.1442 -0.0454
  715POPI   PO411018   2.315   9.412   5.854  0.1190 -0.0829 -0.0194
  715POPI   GL111019   2.400   9.324   6.180  0.1200 -0.1416 -0.3482
  715POPI   GL211020   2.097   9.305   6.258 -0.0977 -0.3521  0.2035
  715POPI   C1A11021   2.324   9.513   6.606 -0.2183 -0.0078 -0.1191
  715POPI   D2A11022   2.099   9.725   6.919 -0.2008  0.0068  0.1001
  715POPI   C3A11023   1.803   9.519   7.083 -0.1351 -0.0890 -0.1762
  715POPI   C4A11024   1.517   9.223   7.064 -0.2404  0.0403 -0.1244
  715POPI   C1B11025   1.819   9.611   6.446  0.0190  0.0606 -0.1092
  715POPI   C2B11026   1.752   9.974   6.663 -0.0044 -0.1072 -0.1703
  715POPI   C3B11027   1.370  10.154   6.626  0.3993  0.0736  0.1661
  715POPI   C4B11028   0.919  10.012   6.693  0.0872  0.0679  0.0585
  716POPI    C111029   3.217  18.114   6.136  0.1110  0.2241 -0.1319
  716POPI    C211030   3.571  17.933   6.093  0.0281  0.0001  0.1042
  716POPI    C311031   3.239  17.758   5.956 -0.0032  0.1707 -0.0418
  716POPI   PO411032   3.221  18.213   6.452  0.1955 -0.0794 -0.1165
  716POPI   GL111033   3.147  18.051   6.760 -0.0991 -0.3966 -0.0669
  716POPI   GL211034   3.519  18.006   7.020  0.0119  0.2786  0.1616
  716POPI   C1A11035   2.837  18.334   7.074 -0.0647  0.3463 -0.0939
  716POPI   D2A11036   2.429  18.394   7.238 -0.3330  0.0264  0.0801
  716POPI   C3A11037   2.414  18.564   7.669  0.1222  0.0063  0.1719
  716POPI   C4A11038   2.171  18.540   7.875 -0.2009 -0.2126  0.0318
  716POPI   C1B11039   3.065  17.814   7.293  0.1892  0.1062  0.2638
  716POPI   C2B11040   2.800  18.007   7.530  0.2084  0.2388  0.2767
  716POPI   C3B11041   2.571  18.177   7.873  0.0654  0.3848  0.2107
  716POPI   C4B11042   2.387  18.316   8.210  0.1148 -0.2874  0.0541
  717POPI    C111043  14.113   0.474   5.435 -0.0664  0.0095  0.1430
  717POPI    C211044  14.486   0.329   5.443  0.0390  0.2706  0.0644
  717POPI    C311045  14.204   0.143   5.229  0.1095  0.0419  0.1666
  717POPI   PO411046  14.117   0.566   5.783  0.2482  0.0554  0.4267
  717POPI   GL111047  14.007   0.737   6.212  0.1966 -0.0172  0.0608
  717POPI   GL211048  14.080   1.098   6.387 -0.0360 -0.0027  0.1284
  717POPI   C1A11049  13.747   0.306   6.441  0.1364  0.0235 -0.0255
  717POPI   D2A11050  13.536   0.052   6.686  0.0302  0.1342  0.0985
  717POPI   C3A11051  13.620  -0.017   7.132  0.0199  0.3401 -0.1652
  717POPI   C4A11052  13.538   0.143   7.571  0.1531  0.1056 -0.2562
  717POPI   C1B11053  14.284   1.129   6.643  0.1383  0.0702 -0.0036
  717POPI   C2B11054  14.272   1.260   7.033 -0.2409 -0.3379  0.2916
  717POPI   C3B11055  13.928   1.395   7.277 -0.2213 -0.0189  0.1474
  717POPI   C4B11056  13.832   1.732   7.579 -0.1488  0.4657  0.0799
  718POPI    C111057   3.898  16.373   6.137 -0.1178  0.2313  0.1004
  718POPI    C211058   3.914  15.992   6.015  0.1654  0.1214  0.4612
  718POPI    C311059   4.003  16.288   5.761  0.0160 -0.0547  0.1995
  718POPI   PO411060   3.595  16.316   6.333 -0.0866  0.0567  0.3695
  718POPI   GL111061   3.395  16.420   6.700 -0.0143  0.0952 -0.1536
  718POPI   GL211062   3.194  16.164   6.670  0.1241 -0.1384  0.1939
  718POPI   C1A11063   3.163  16.457   7.156  0.0879 -0.0406 -0.0015
  718POPI   D2A11064   3.059  16.732   7.504 -0.0997 -0.0117 -0.0997
  718POPI   C3A11065   3.222  17.026   7.831  0.0020 -0.3381  0.3247
  718POPI   C4A11066   3.013  17.347   8.177 -0.2617 -0.0628 -0.1464
  718POPI   C1B11067   2.978  16.009   7.091  0.1325 -0.3398 -0.1640
  718POPI   C2B11068   2.782  16.166   7.317  0.0532  0.2619 -0.1523
  718POPI   C3B11069   2.777  16.379   7.596 -0.3325 -0.3091 -0.4556
  718POPI   C4B11070   2.905  16.444   8.008  0.1857  0.3204  0.1752
  719POPI    C111071   8.814  18.062   6.161 -0.2004  0.2155 -0.2545
  719POPI    C211072   8.774  17.665   6.138  0.0839  0.1762 -0.1211
  719POPI    C311073   8.586  17.901   5.875 -0.1388 -0.0419 -0.1612
  719POPI   PO411074   8.845  18.147   6.389 -0.0901  0.2398 -0.0398
  719POPI   GL111075   9.064  18.333   6.676 -0.0738  0.1135  0.2119
  719POPI   GL211076   9.353  18.223   6.429  0.0196  0.1771  0.2504
  719POPI   C1A11077   9.182  18.651   6.998  0.2120 -0.1423  0.1167
  719POPI   D2A11078   9.317  18.771   7.428  0.1413  0.2666 -0.0985
  719POPI   C3A11079   8.992  18.430   7.575 -0.0722 -0.1097  0.0491
  719POPI   C4A11080   8.700  18.251   7.934 -0.0887 -0.2723  0.1732
  719POPI   C1B11081   9.519  18.577   6.635 -0.0969 -0.1600  0.0594
  719POPI   C2B11082   9.712  18.608   7.016  0.0938 -0.1835  0.1694
  719POPI   C3B11083   9.776  18.943   7.363 -0.2227  0.0978 -0.1901
  719POPI   C4B11084  10.227  18.944   7.504  0.1168 -0.2571 -0.2251
  720POPI    C111085   4.759   9.231   5.386 -0.2061  0.0371 -0.0637
  720POPI    C211086   5.027   9.491   5.243 -0.0404 -0.0890  0.0135
  720POPI    C311087   4.676   9.442   5.057  0.0240  0.0153 -0.1372
  720POPI   PO411088   4.867   9.398   5.664  0.4375 -0.1782  0.1956
  720POPI   GL111089   4.967   9.411   6.086 -0.0199 -0.1464  0.2747
  720POPI   GL211090   5.233   9.512   6.140 -0.0660 -0.1655  0.0775
  720POPI   C1A11091   5.280   9.097   6.360 -0.0897  0.0762  0.0263
  720POPI   D2A11092   5.433   9.040   6.760  0.2726 -0.2404  0.1435
  720POPI   C3A11093   5.164   8.895   7.035 -0.1403  0.1062  0.0741
  720POPI   C4A11094   5.038   8.841   7.365  0.1327  0.2975  0.3138
  720POPI   C1B11095   4.989   9.690   6.448 -0.1720 -0.0216 -0.0234
  720POPI   C2B11096   4.955   9.825   6.785 -0.1692 -0.2162 -0.2603
  720POPI   C3B11097   4.930   9.849   7.202  0.1318  0.0113  0.0828
  720POPI   C4B11098   4.840   9.991   7.630 -0.1204  0.0383  0.1791
  721POPI    C111099   9.463  16.591   6.107  0.3048  0.0409  0.0495
  721POPI    C211100   9.139  16.739   5.924  0.2301  0.0562  0.1927
  721POPI    C311101   9.432  16.572   5.709  0.0448 -0.1225  0.0748
  721POPI   PO411102   9.725  16.720   6.206 -0.0472 -0.0526 -0.0544
  721POPI   GL111103   9.946  16.894   6.607  0.1362 -0.1197 -0.2695
  721POPI   GL211104   9.702  16.722   6.748  0.1449 -0.1566  0.0572
  721POPI   C1A11105   9.852  17.100   7.023 -0.1779  0.2002 -0.3179
  721POPI   D2A11106   9.744  17.167   7.489 -0.0480  0.5732  0.2473
  721POPI   C3A11107   9.940  16.897   7.801 -0.1009 -0.0809 -0.1658
  721POPI   C4A11108  10.193  16.960   8.032  0.1034 -0.3900  0.0599
  721POPI   C1B11109   9.498  16.763   7.207 -0.2366 -0.0540 -0.1487
  721POPI   C2B11110   9.339  16.792   7.685 -0.0557  0.1433  0.0978
  721POPI   C3B11111   9.209  16.947   8.063  0.0268  0.0691 -0.2329
  721POPI   C4B11112   9.412  17.205   8.507 -0.2097 -0.0952  0.0337
  722POPI    C111113  11.481   0.744   5.381  0.2547  0.1075  0.1137
  722POPI    C211114  11.839   0.575   5.435  0.2378 -0.0124 -0.1363
  722POPI    C311115  11.569   0.400   5.197  0.0304  0.1028  0.0112
  722POPI   PO411116  11.394   0.757   5.667 -0.0917 -0.0886 -0.0117
  722POPI   GL111117  11.293   0.593   6.201 -0.0024  0.0704 -0.1422
  722POPI   GL211118  11.333   1.026   6.234 -0.2612  0.0295 -0.1915
  722POPI   C1A11119  11.299   0.532   6.577 -0.2821  0.0347 -0.2633
  722POPI   D2A11120  11.241   0.347   6.951  0.0858  0.2811 -0.1125
  722POPI   C3A11121  11.378   0.374   7.347 -0.1417 -0.0198 -0.1566
  722POPI   C4A11122  11.166   0.383   7.725 -0.3338 -0.0672 -0.2682
  722POPI   C1B11123  11.195   1.167   6.630  0.2587 -0.0296 -0.4061
  722POPI   C2B11124  11.213   1.386   7.012 -0.0902  0.0555 -0.0903
  722POPI   C3B11125  11.503   1.139   7.311 -0.3236 -0.1327  0.3088
  722POPI   C4B11126  11.752   1.248   7.753 -0.2033  0.0769 -0.2508
  723POPI    C111127  12.680   1.825   5.542  0.2213 -0.0289 -0.1391
  723POPI    C211128  12.579   2.066   5.238  0.0408 -0.0309 -0.0824
  723POPI    C311129  12.955   2.062   5.375  0.0958  0.0552 -0.2289
  723POPI   PO411130  12.380   1.858   5.648  0.1640  0.0310 -0.0571
  723POPI   GL111131  12.336   2.185   5.968 -0.0165 -0.3560  0.2333
  723POPI   GL211132  12.691   1.988   5.992  0.2955 -0.0345  0.1868
  723POPI   C1A11133  12.191   1.973   6.420  0.3195 -0.1584  0.1398
  723POPI   D2A11134  11.875   2.169   6.754 -0.2713  0.0041 -0.1667
  723POPI   C3A11135  12.060   2.531   7.154  0.0761  0.3114 -0.0674
  723POPI   C4A11136  11.967   2.787   7.407 -0.0172 -0.2179  0.2516
  723POPI   C1B11137  12.692   2.311   6.413  0.0915  0.1719  0.0188
  723POPI   C2B11138  13.036   2.521   6.612 -0.3386  0.0084 -0.4325
  723POPI   C3B11139  13.331   2.481   6.891  0.1693  0.1080  0.2030
  723POPI   C4B11140  13.416   2.547   7.290  0.3622  0.0794  0.0153
  724POPI    C111141   1.815   6.336   5.699  0.0130  0.2122 -0.1276
  724POPI    C211142   2.056   6.071   5.519 -0.1069 -0.0967  0.1559
  724POPI    C311143   1.814   6.303   5.300  0.1881 -0.0332 -0.1102
  724POPI   PO411144   2.031   6.524   5.942 -0.1200 -0.2303  0.1650
  724POPI   GL111145   2.244   6.469   6.410  0.1224 -0.3254  0.1160
  724POPI   GL211146   1.866   6.262   6.439 -0.1704 -0.0973  0.1101
  724POPI   C1A11147   2.166   6.672   6.791 -0.1638  0.0226 -0.1316
  724POPI   D2A11148   1.910   6.656   7.154 -0.0948  0.0835  0.0710
  724POPI   C3A11149   1.918   6.938   7.438  0.1634 -0.1566  0.0319
  724POPI   C4A11150   2.019   6.908   7.922 -0.2069 -0.0572 -0.0193
  724POPI   C1B11151   1.900   6.245   6.885 -0.2000 -0.0624  0.1705
  724POPI   C2B11152   1.843   5.816   7.235  0.2438 -0.1648 -0.1779
  724POPI   C3B11153   1.731   5.614   7.706  0.1897 -0.2577  0.1663
  724POPI   C4B11154   1.714   5.188   7.885 -0.1408 -0.0986  0.1137
  725POPI    C111155   0.624   4.462   5.594  0.2287  0.0835  0.0958
  725POPI    C211156   0.628   4.798   5.811  0.1692  0.1651 -0.0287
  725POPI    C311157   0.716   4.810   5.421 -0.2573  0.1063 -0.1319
  725POPI   PO411158   0.735   4.302   5.787 -0.2633 -0.0903 -0.3402
  725POPI   GL111159   0.751   4.223   6.098 -0.2100  0.0325 -0.2072
  725POPI   GL211160   0.681   4.551   6.308 -0.0640  0.0517 -0.0370
  725POPI   C1A11161   0.908   3.951   6.429  0.2237  0.2314 -0.3786
  725POPI   D2A11162   0.645   3.808   6.788  0.3878 -0.0148 -0.0498
  725POPI   C3A11163   0.738   3.791   7.258 -0.1877 -0.3205  0.2097
  725POPI   C4A11164   0.812   3.914   7.779 -0.0952  0.1134 -0.0467
  725POPI   C1B11165   0.751   4.325   6.656 -0.1638 -0.2073 -0.0784
  725POPI   C2B11166   1.031   4.131   6.983 -0.2234  0.0101  0.0232
  725POPI   C3B11167   1.197   3.956   7.379  0.0641 -0.3374  0.1380
  725POPI   C4B11168   1.350   3.793   7.738 -0.0815 -0.1829  0.1932
  726POPI    C111169  17.764   6.704   5.476 -0.2638  0.2329 -0.0495
  726POPI    C211170  17.915   7.070   5.535  0.0051  0.1283 -0.0744
  726POPI    C311171  18.097   6.816   5.285 -0.2122 -0.0037 -0.1019
  726POPI   PO411172  17.817   6.578   5.768  0.0326  0.1956  0.2141
  726POPI   GL111173  18.006   6.828   6.109 -0.0819  0.1269 -0.0241
  726POPI   GL211174  18.342   7.006   6.177 -0.2255 -0.0767  0.0009
  726POPI   C1A11175  17.921   6.655   6.544 -0.0706 -0.0455 -0.0358
  726POPI   D2A11176  18.043   6.399   7.029 -0.2025  0.2590 -0.0128
  726POPI   C3A11177  17.841   6.003   7.077 -0.3652 -0.1375 -0.0226
  726POPI   C4A11178  17.508   5.743   6.914 -0.0878  0.0873  0.0089
  726POPI   C1B11179  18.327   6.945   6.701 -0.2458 -0.1701 -0.1284
  726POPI   C2B11180  18.414   6.801   7.022  0.0397  0.0919  0.2243
  726POPI   C3B11181  18.433   6.505   7.317  0.0162  0.2050 -0.0212
  726POPI   C4B11182  18.100   6.405   7.585  0.2530  0.0123  0.0306
  727POPI    C111183   3.632   9.963   5.810  0.1025 -0.0542  0.0853
  727POPI    C211184   3.397  10.233   5.632  0.0885 -0.1063  0.0239
  727POPI    C311185   3.733  10.112   5.452  0.1860  0.0011  0.1316
  727POPI   PO411186   3.652  10.018   6.072 -0.3546  0.0611 -0.1592
  727POPI   GL111187   3.598   9.996   6.475  0.1992 -0.1871 -0.0668
  727POPI   GL211188   3.209   9.925   6.363  0.2271 -0.3971  0.2048
  727POPI   C1A11189   3.323  10.025   6.882 -0.1757  0.1612 -0.1487
  727POPI   D2A11190   3.027   9.903   7.149 -0.1759 -0.0231 -0.0121
  727POPI   C3A11191   2.875   9.644   7.507  0.2697 -0.0665  0.0925
  727POPI   C4A11192   2.528   9.614   7.787 -0.0477  0.3771  0.1536
  727POPI   C1B11193   3.024   9.591   6.662 -0.1422 -0.0455  0.2707
  727POPI   C2B11194   3.176   9.406   7.028 -0.2004  0.2970  0.0081
  727POPI   C3B11195   3.330   9.188   7.543  0.1305  0.1087 -0.2618
  727POPI   C4B11196   3.332   8.915   7.805  0.0128 -0.1739 -0.1826
  728POPI    C111197  16.138   2.030   5.931  0.1075 -0.1815 -0.0089
  728POPI    C211198  15.924   2.048   5.594 -0.2412 -0.0685  0.2126
  728POPI    C311199  16.244   1.809   5.615 -0.2225 -0.0866 -0.1905
  728POPI   PO411200  16.233   2.136   6.041 -0.0706 -0.4888  0.3194
  728POPI   GL111201  16.151   2.354   6.359 -0.0111 -0.2191 -0.2988
  728POPI   GL211202  15.835   2.299   6.466 -0.2376 -0.2736 -0.3819
  728POPI   C1A11203  16.090   2.628   6.768 -0.1433 -0.0452 -0.2650
  728POPI   D2A11204  16.284   2.758   7.134 -0.3047 -0.0409 -0.0262
  728POPI   C3A11205  16.689   2.689   7.312  0.2019  0.1599 -0.0327
  728POPI   C4A11206  16.561   2.560   7.727  0.3152  0.1664  0.1299
  728POPI   C1B11207  15.866   2.162   6.864 -0.0238  0.2986  0.2049
  728POPI   C2B11208  16.151   2.267   7.142 -0.3647 -0.2239 -0.0137
  728POPI   C3B11209  16.214   2.187   7.535  0.1618 -0.0219 -0.1717
  728POPI   C4B11210  16.011   2.350   7.966 -0.1546 -0.0925  0.2048
  729POPI    C111211  13.846  17.693   6.218  0.0939  0.0381 -0.2280
  729POPI    C211212  14.079  17.788   5.906  0.2313  0.1387 -0.0964
  729POPI    C311213  13.738  17.585   5.848  0.3504 -0.0094 -0.2905
  729POPI   PO411214  14.024  17.560   6.400  0.0435  0.1142 -0.0669
  729POPI   GL111215  13.895  17.456   6.912  0.6275 -0.0161 -0.2729
  729POPI   GL211216  13.595  17.527   6.663  0.0604 -0.1220 -0.1923
  729POPI   C1A11217  14.002  17.412   7.294  0.0844  0.0431  0.1713
  729POPI   D2A11218  14.057  17.524   7.755 -0.0318  0.2727  0.1895
  729POPI   C3A11219  14.427  17.381   7.892  0.0666  0.1348 -0.1408
  729POPI   C4A11220  14.584  17.174   8.241  0.1767  0.0314  0.2971
  729POPI   C1B11221  13.443  17.492   7.144  0.3021  0.3227  0.0776
  729POPI   C2B11222  13.192  17.688   7.448  0.0980  0.0260 -0.1098
  729POPI   C3B11223  13.103  17.644   7.805  0.0484  0.0104 -0.3415
  729POPI   C4B11224  13.259  17.335   8.062  0.0013 -0.0184 -0.1042
  730POPI    C111225  10.359  12.288   5.530  0.2321 -0.0627 -0.0888
  730POPI    C211226  10.153  12.252   5.188  0.0596 -0.0432  0.0117
  730POPI    C311227  10.259  11.926   5.393 -0.1572 -0.0425  0.1275
  730POPI   PO411228  10.232  12.451   5.743  0.2676 -0.0068 -0.0114
  730POPI   GL111229   9.994  12.408   6.056  0.0645 -0.2163  0.1389
  730POPI   GL211230   9.674  12.224   5.975 -0.1791  0.2412 -0.1547
  730POPI   C1A11231   9.788  12.581   6.378  0.0350 -0.0223 -0.0958
  730POPI   D2A11232   9.736  13.002   6.566 -0.2917  0.0186  0.0097
  730POPI   C3A11233   9.782  12.978   7.001  0.0673 -0.1700  0.4109
  730POPI   C4A11234   9.661  12.763   7.442 -0.1108 -0.0282 -0.0372
  730POPI   C1B11235   9.426  12.163   6.453 -0.1780 -0.1917 -0.2554
  730POPI   C2B11236   9.429  12.200   6.892 -0.3329 -0.1321 -0.2752
  730POPI   C3B11237   9.454  11.850   7.363  0.0246 -0.1944  0.0379
  730POPI   C4B11238   9.565  11.985   7.762 -0.0051 -0.1612  0.0970
  731POPI    C111239   1.163  13.445   5.760  0.1612  0.1753  0.1232
  731POPI    C211240   1.533  13.353   5.638  0.1364  0.0914  0.1105
  731POPI    C311241   1.216  13.188   5.458  0.0918  0.1831  0.1042
  731POPI   PO411242   1.233  13.533   6.005  0.3685 -0.1079  0.2542
  731POPI   GL111243   1.004  13.475   6.388 -0.2442  0.1995 -0.0643
  731POPI   GL211244   1.054  13.130   6.411  0.0296 -0.1145  0.0217
  731POPI   C1A11245   0.870  13.579   6.764 -0.2326  0.0442 -0.0538
  731POPI   D2A11246   0.940  13.666   7.295 -0.3686  0.1576 -0.0154
  731POPI   C3A11247   1.183  13.953   7.580  0.1437 -0.1905  0.0346
  731POPI   C4A11248   1.232  14.197   7.917 -0.3981  0.2952 -0.1990
  731POPI   C1B11249   1.018  13.067   6.764 -0.1364  0.3315 -0.3005
  731POPI   C2B11250   0.826  13.201   7.192 -0.0882  0.1032 -0.2245
  731POPI   C3B11251   1.018  13.233   7.516 -0.1401 -0.1007 -0.0862
  731POPI   C4B11252   1.374  13.431   7.666  0.2230  0.0283  0.0989
  732POPI    C111253   6.980   3.768   5.938  0.0203 -0.1620 -0.1942
  732POPI    C211254   7.120   3.837   5.569  0.0479  0.0155 -0.1515
  732POPI    C311255   6.752   3.687   5.619  0.0235  0.0416 -0.2500
  732POPI   PO411256   7.250   3.611   6.010 -0.0193 -0.1164  0.4348
  732POPI   GL111257   7.503   3.433   6.368  0.1096 -0.2682 -0.3275
  732POPI   GL211258   7.760   3.222   6.314  0.1592 -0.0236 -0.0128
  732POPI   C1A11259   7.355   3.473   6.663  0.1048 -0.1675 -0.1824
  732POPI   D2A11260   7.135   3.538   6.904  0.2693 -0.1011 -0.0905
  732POPI   C3A11261   7.105   3.307   7.382 -0.0418 -0.0996  0.0008
  732POPI   C4A11262   6.923   3.118   7.717 -0.1712  0.0133 -0.2996
  732POPI   C1B11263   7.747   3.230   6.777  0.1471  0.2288  0.1686
  732POPI   C2B11264   7.572   3.225   7.127  0.1423  0.0675  0.3762
  732POPI   C3B11265   7.633   3.120   7.560  0.2401 -0.0445  0.0532
  732POPI   C4B11266   7.888   2.948   7.850 -0.2109 -0.0917  0.2650
  733POPI    C111267  16.290  15.501   5.831 -0.0917 -0.2482  0.3102
  733POPI    C211268  16.397  15.304   6.162  0.2293 -0.3785  0.1329
  733POPI    C311269  16.666  15.373   5.874  0.0620  0.1117  0.0851
  733POPI   PO411270  16.090  15.667   5.981  0.2821 -0.0839  0.0363
  733POPI   GL111271  16.062  15.706   6.443 -0.1976  0.0934 -0.2806
  733POPI   GL211272  15.899  15.493   6.438 -0.0997 -0.0674 -0.1019
  733POPI   C1A11273  16.295  15.601   6.782 -0.0215  0.1200  0.0282
  733POPI   D2A11274  16.331  15.577   7.340 -0.1207  0.1397  0.1118
  733POPI   C3A11275  16.656  15.384   7.658 -0.0001 -0.3481  0.1214
  733POPI   C4A11276  16.577  15.241   8.079  0.1471 -0.3396 -0.1054
  733POPI   C1B11277  15.692  15.505   6.836  0.1070  0.1196 -0.1116
  733POPI   C2B11278  15.837  15.465   7.219  0.0488  0.2054  0.2312
  733POPI   C3B11279  15.754  15.381   7.622  0.0942  0.2259 -0.0518
  733POPI   C4B11280  15.938  15.335   7.994  0.0505 -0.0634  0.1094
  734POPI    C111281   1.412  11.142   5.542  0.1279 -0.0064 -0.0177
  734POPI    C211282   1.374  11.513   5.687 -0.3565 -0.1042  0.1252
  734POPI    C311283   1.573  11.450   5.345 -0.3038  0.2896  0.0790
  734POPI   PO411284   1.506  11.046   5.839  0.1599 -0.0077 -0.0554
  734POPI   GL111285   1.360  11.326   6.183 -0.2577  0.1368  0.0923
  734POPI   GL211286   1.160  11.528   6.178 -0.0901  0.2529 -0.0457
  734POPI   C1A11287   1.232  11.283   6.633 -0.1508 -0.0121 -0.1519
  734POPI   D2A11288   1.349  11.404   7.062  0.3210 -0.0903  0.2656
  734POPI   C3A11289   1.076  11.596   7.368 -0.0898  0.0106  0.1265
  734POPI   C4A11290   0.834  11.446   7.755  0.0857 -0.0035  0.0339
  734POPI   C1B11291   1.059  11.706   6.623  0.1002 -0.0086 -0.2606
  734POPI   C2B11292   1.056  11.867   6.965  0.0823  0.1308 -0.1757
  734POPI   C3B11293   1.068  12.088   7.371  0.0244  0.2500  0.0552
  734POPI   C4B11294   1.061  12.241   7.687 -0.2856 -0.1079  0.1633
  735POPI    C111295   5.341  13.621   5.753  0.1758 -0.1428 -0.1437
  735POPI    C211296   5.308  13.900   5.468  0.2365  0.0931  0.0765
  735POPI    C311297   4.995  13.668   5.558  0.2253 -0.0024 -0.1987
  735POPI   PO411298   5.412  13.769   6.035  0.0507 -0.0454 -0.3632
  735POPI   GL111299   5.306  13.714   6.517 -0.0658 -0.0349  0.2256
  735POPI   GL211300   5.308  13.380   6.714 -0.2462  0.1771 -0.0233
  735POPI   C1A11301   5.442  13.889   6.909 -0.0461 -0.4781  0.0861
  735POPI   D2A11302   5.273  13.800   7.351  0.0463 -0.0684  0.1280
  735POPI   C3A11303   4.975  13.920   7.608 -0.2427  0.0594 -0.1201
  735POPI   C4A11304   4.841  14.177   7.887 -0.3677  0.1055 -0.1352
  735POPI   C1B11305   5.418  13.371   7.153  0.3141  0.0061  0.4510
  735POPI   C2B11306   5.367  13.225   7.511 -0.2403  0.1977  0.0936
  735POPI   C3B11307   5.545  13.139   7.883  0.0138 -0.0341  0.1382
  735POPI   C4B11308   5.523  12.838   8.257 -0.0099 -0.0720  0.0928
  736POPI    C111309   6.869   1.114   6.475 -0.2775  0.0425 -0.1198
  736POPI    C211310   6.703   1.039   6.118 -0.4254 -0.0885 -0.0251
  736POPI    C311311   6.707   0.755   6.400  0.0471 -0.1207 -0.0563
  736POPI   PO411312   6.857   1.462   6.382 -0.0232  0.2103 -0.2330
  736POPI   GL111313   6.941   1.768   6.847  0.3930  0.0572 -0.0217
  736POPI   GL211314   6.618   1.627   6.793  0.3113  0.1605  0.2465
  736POPI   C1A11315   7.013   1.755   7.195 -0.1970 -0.1976  0.2881
  736POPI   D2A11316   7.148   1.749   7.576  0.2741  0.0201 -0.0642
  736POPI   C3A11317   7.007   1.951   7.887 -0.0437  0.2754 -0.0862
  736POPI   C4A11318   6.782   1.804   8.248 -0.0009  0.3474 -0.0496
  736POPI   C1B11319   6.560   1.625   7.296  0.0185  0.1138 -0.0936
  736POPI   C2B11320   6.574   1.762   7.662  0.0490 -0.0542 -0.1526
  736POPI   C3B11321   6.390   1.942   7.999 -0.1442 -0.0298 -0.2559
  736POPI   C4B11322   6.257   2.316   8.303  0.1593  0.0574  0.1739
  737POPI    C111323  17.683   2.007   5.814  0.2265 -0.0501  0.1648
  737POPI    C211324  17.750   2.401   5.843  0.0726 -0.0096 -0.0088
  737POPI    C311325  17.506   2.260   5.560 -0.1860 -0.1954  0.2998
  737POPI   PO411326  17.919   1.933   5.955  0.1131  0.1067  0.0548
  737POPI   GL111327  17.758   1.678   6.220 -0.0165  0.1098  0.3367
  737POPI   GL211328  18.068   1.613   6.302  0.2764 -0.0200  0.2793
  737POPI   C1A11329  17.460   1.728   6.562 -0.1571  0.0545 -0.1417
  737POPI   D2A11330  17.442   1.663   6.952  0.0368 -0.0330  0.0422
  737POPI   C3A11331  17.718   1.437   7.260 -0.1301 -0.0627 -0.0854
  737POPI   C4A11332  18.148   1.444   7.243  0.1192  0.1400  0.0964
  737POPI   C1B11333  17.989   1.805   6.702 -0.0187 -0.2565  0.1352
  737POPI   C2B11334  17.830   1.916   7.153 -0.0523 -0.1919  0.1037
  737POPI   C3B11335  17.790   1.890   7.569 -0.2095  0.2755 -0.0532
  737POPI   C4B11336  18.040   1.938   7.896  0.3538  0.0467  0.0154
  738POPI    C111337   2.356   8.583   6.008  0.0288 -0.2600  0.2405
  738POPI    C211338   2.740   8.605   6.115  0.1119 -0.0116 -0.0906
  738POPI    C311339   2.632   8.379   5.803  0.0109  0.0407 -0.0939
  738POPI   PO411340   2.250   8.867   6.062  0.2302  0.0006 -0.1459
  738POPI   GL111341   2.263   8.870   6.488  0.1960  0.1956 -0.1416
  738POPI   GL211342   2.634   8.984   6.519  0.0517  0.0747  0.0035
  738POPI   C1A11343   2.156   8.476   6.545 -0.1858  0.1868  0.0307
  738POPI   D2A11344   2.032   8.264   6.924  0.4823  0.1261  0.1853
  738POPI   C3A11345   2.067   8.460   7.226  0.1371  0.0480  0.1402
  738POPI   C4A11346   1.797   8.479   7.511  0.2631 -0.1593  0.2603
  738POPI   C1B11347   2.735   9.202   6.814 -0.1633  0.0500  0.0343
  738POPI   C2B11348   2.692   9.528   7.003 -0.0272 -0.0369  0.1964
  738POPI   C3B11349   2.595   9.806   6.864  0.0898  0.0846 -0.0955
  738POPI   C4B11350   2.526  10.307   7.007 -0.1472  0.0540 -0.0783
  739POPI    C111351  14.611   6.768   5.403 -0.0053 -0.0513 -0.2155
  739POPI    C211352  14.242   6.896   5.487  0.1872  0.0776  0.4914
  739POPI    C311353  14.293   6.561   5.275 -0.3258  0.2557  0.0647
  739POPI   PO411354  14.689   6.791   5.708 -0.3228 -0.3070  0.1216
  739POPI   GL111355  14.647   6.863   6.115  0.4825  0.1259 -0.0082
  739POPI   GL211356  14.774   7.062   6.312 -0.2323 -0.0523 -0.0068
  739POPI   C1A11357  14.489   6.569   6.466 -0.1148  0.2517  0.2402
  739POPI   D2A11358  14.431   6.258   6.705 -0.1490 -0.2190 -0.2484
  739POPI   C3A11359  14.105   5.899   6.707 -0.0166  0.0853 -0.0290
  739POPI   C4A11360  13.911   5.551   6.583 -0.1229  0.1653 -0.0125
  739POPI   C1B11361  14.523   7.074   6.589 -0.1019 -0.2692  0.2136
  739POPI   C2B11362  14.464   6.939   6.998  0.0061  0.0494 -0.1114
  739POPI   C3B11363  14.521   6.875   7.462  0.2045 -0.0820 -0.2723
  739POPI   C4B11364  14.657   7.060   7.906 -0.0418  0.1354  0.2122
  740POPI    C111365   3.970  15.342   5.922  0.0245 -0.1000 -0.1062
  740POPI    C211366   4.267  15.521   5.723  0.0397  0.1850  0.1640
  740POPI    C311367   3.892  15.541   5.584  0.1020  0.0715 -0.0245
  740POPI   PO411368   4.082  15.216   6.099  0.0411 -0.3289 -0.1144
  740POPI   GL111369   4.142  15.071   6.490 -0.0904  0.3357 -0.0819
  740POPI   GL211370   3.967  15.108   6.696  0.0978 -0.2262 -0.0378
  740POPI   C1A11371   4.578  15.159   6.813 -0.0066  0.1010  0.0923
  740POPI   D2A11372   5.009  15.372   6.859  0.0670  0.3065 -0.4127
  740POPI   C3A11373   5.310  15.423   7.275 -0.0290 -0.0516  0.0086
  740POPI   C4A11374   5.487  15.344   7.788  0.3519 -0.0291 -0.3420
  740POPI   C1B11375   4.127  15.299   7.007  0.0057 -0.0492 -0.0199
  740POPI   C2B11376   4.482  15.386   7.229 -0.1021  0.1771  0.0142
  740POPI   C3B11377   4.890  15.196   7.457  0.3569 -0.0234  0.0909
  740POPI   C4B11378   5.323  14.889   7.500 -0.2724  0.3067  0.2077
  741POPS   CNO11379   3.292   1.822   5.530  0.2279 -0.1140  0.3432
  741POPS   PO411380   3.087   1.715   5.958 -0.0135 -0.2045  0.3283
  741POPS   GL111381   3.066   1.741   6.355 -0.4230  0.2543  0.1459
  741POPS   GL211382   3.145   1.411   6.546 -0.0579 -0.0210 -0.3398
  741POPS   C1A11383   2.789   1.703   6.682  0.1448 -0.0863  0.1064
  741POPS   D2A11384   2.421   1.991   6.813  0.0583 -0.1463  0.0933
  741POPS   C3A11385   2.395   2.071   7.342  0.0954 -0.1304 -0.0322
  741POPS   C4A11386   2.169   2.027   7.728 -0.0048 -0.1749  0.3200
  741POPS   C1B11387   3.065   1.432   6.965 -0.0857  0.0278  0.1939
  741POPS   C2B11388   2.792   1.521   7.327  0.1173  0.1568  0.0016
  741POPS   C3B11389   2.796   1.649   7.731  0.0760  0.1894  0.2758
  741POPS   C4B11390   2.760   1.609   8.121  0.1388 -0.2181  0.4227
  742POPS   CNO11391  11.424   8.135   5.047  0.1211  0.0487 -0.0745
  742POPS   PO411392  11.405   7.657   4.898 -0.1851 -0.0004 -0.2016
  742POPS   GL111393  11.497   7.784   5.355  0.0022  0.0594 -0.0024
  742POPS   GL211394  11.509   7.579   5.497  0.2434 -0.0000 -0.2845
  742POPS   C1A11395  11.330   7.966   5.838 -0.2204 -0.0451  0.2418
  742POPS   D2A11396  11.324   8.484   5.972  0.0757  0.1491  0.3239
  742POPS   C3A11397  10.978   8.559   6.232  0.2049 -0.0912  0.1304
  742POPS   C4A11398  10.745   8.432   6.514  0.0170 -0.3149 -0.0936
  742POPS   C1B11399  11.804   7.696   5.964  0.0683  0.2184 -0.0547
  742POPS   C2B11400  11.965   7.445   6.316  0.0331  0.0770 -0.1168
  742POPS   C3B11401  12.340   7.520   6.561 -0.3114  0.1627 -0.1544
  742POPS   C4B11402  12.462   7.704   6.867 -0.0526  0.1612 -0.1804
  743POPS   CNO11403   6.500  11.212   5.125 -0.1896  0.0123 -0.3034
  743POPS   PO411404   6.553  11.225   5.533  0.1858 -0.2425 -0.3351
  743POPS   GL111405   6.560  11.248   5.958 -0.5239 -0.1190 -0.1927
  743POPS   GL211406   6.778  11.417   6.111 -0.0660  0.1323 -0.2105
  743POPS   C1A11407   6.424  10.924   6.211 -0.0035  0.1887 -0.2308
  743POPS   D2A11408   6.467  11.027   6.595  0.0156 -0.0710 -0.3102
  743POPS   C3A11409   6.435  11.301   6.955 -0.0614  0.2976  0.0057
  743POPS   C4A11410   6.504  11.796   7.041  0.0162  0.2011  0.2864
  743POPS   C1B11411   6.434  11.716   6.069 -0.0911 -0.0000  0.2737
  743POPS   C2B11412   6.120  11.981   6.135  0.2413  0.3056 -0.0958
  743POPS   C3B11413   5.743  12.202   6.355 -0.1335 -0.0456 -0.0958
  743POPS   C4B11414   5.571  12.390   6.748 -0.1037 -0.1911  0.2037
  744POPS   CNO11415   5.565  10.136   5.533 -0.1181  0.0022 -0.0808
  744POPS   PO411416   5.272  10.184   5.912 -0.2258  0.1402  0.1554
  744POPS   GL111417   5.230  10.122   6.322  0.2786  0.3198  0.2554
  744POPS   GL211418   5.001  10.221   6.505  0.1962 -0.1590 -0.0561
  744POPS   C1A11419   5.390  10.063   6.840  0.3790  0.1819 -0.0441
  744POPS   D2A11420   5.383   9.974   7.237 -0.2088  0.1653 -0.0100
  744POPS   C3A11421   5.296  10.299   7.520 -0.3405  0.0084 -0.4077
  744POPS   C4A11422   5.053  10.386   7.827 -0.3626  0.1502 -0.1132
  744POPS   C1B11423   4.988  10.327   7.011 -0.1751  0.2025  0.1509
  744POPS   C2B11424   5.068  10.691   7.261  0.2529  0.0630 -0.0110
  744POPS   C3B11425   5.206  10.927   7.711 -0.3746  0.2852  0.3232
  744POPS   C4B11426   5.152  11.412   7.694  0.0650  0.1766  0.2612
  745POPS   CNO11427   0.550   0.367   6.067 -0.1563  0.5276 -0.1370
  745POPS   PO411428   0.942   0.132   6.047  0.2600  0.0435  0.0405
  745POPS   GL111429   0.851   0.205   6.499 -0.2903  0.3380 -0.0895
  745POPS   GL211430   0.572   0.023   6.569 -0.0647  0.1000  0.1970
  745POPS   C1A11431   1.000   0.291   6.980  0.1949  0.3341  0.1173
  745POPS   D2A11432   1.179   0.554   7.268  0.1476 -0.0578  0.2683
  745POPS   C3A11433   0.995   0.475   7.625  0.0462  0.0762 -0.2293
  745POPS   C4A11434   0.991   0.667   7.981  0.4041  0.1268  0.0826
  745POPS   C1B11435   0.568  -0.010   7.091  0.4232  0.1573 -0.0657
  745POPS   C2B11436   0.677   0.104   7.527 -0.1122  0.0173 -0.2690
  745POPS   C3B11437   0.726  -0.025   8.092  0.2552  0.2722  0.0978
  745POPS   C4B11438   0.635   0.114   8.549  0.1066  0.0203 -0.1058
  746POPS   CNO11439  11.738  18.126   6.312 -0.1703  0.0523 -0.3477
  746POPS   PO411440  11.514  18.451   6.033 -0.1104 -0.3454  0.0250
  746POPS   GL111441  11.226  18.463   6.331 -0.1322  0.0470 -0.3519
  746POPS   GL211442  10.992  18.197   6.412 -0.0367  0.1626 -0.0581
  746POPS   C1A11443  10.868  18.645   6.555  0.1464 -0.1465 -0.1311
  746POPS   D2A11444  10.466  18.719   6.461 -0.0287 -0.3577  0.0512
  746POPS   C3A11445  10.386  18.895   6.876 -0.0794  0.0506  0.0061
  746POPS   C4A11446  10.777  18.908   7.071 -0.0856 -0.0736  0.2914
  746POPS   C1B11447  10.711  18.217   6.793 -0.1644  0.0349  0.2247
  746POPS   C2B11448  10.687  18.467   7.212  0.2684  0.0845 -0.1085
  746POPS   C3B11449  10.710  18.673   7.613  0.0990 -0.2192  0.0505
  746POPS   C4B11450  10.806  18.550   8.044  0.2175 -0.1387  0.1240
  747POPS   CNO11451  13.353   9.702   5.337  0.0527 -0.2398  0.2536
  747POPS   PO411452  12.961   9.675   5.596 -0.0439  0.0133 -0.0414
  747POPS   GL111453  12.942   9.561   6.064  0.1789 -0.0537 -0.3673
  747POPS   GL211454  12.978   9.910   6.160 -0.0821  0.1413 -0.0457
  747POPS   C1A11455  13.003   9.696   6.606 -0.2215  0.1932  0.1118
  747POPS   D2A11456  13.015   9.801   7.010 -0.4402 -0.0078 -0.0003
  747POPS   C3A11457  12.713   9.839   7.237  0.1004  0.6588 -0.1063
  747POPS   C4A11458  12.643   9.869   7.664  0.0028  0.0026  0.1105
  747POPS   C1B11459  12.898  10.164   6.551 -0.0679 -0.0324 -0.3229
  747POPS   C2B11460  12.747  10.242   6.966  0.1604  0.1577  0.0910
  747POPS   C3B11461  12.870  10.257   7.471 -0.0246 -0.1480 -0.1627
  747POPS   C4B11462  13.181  10.180   7.828 -0.2620  0.2893 -0.1593
  748POPS   CNO11463  13.704   2.754   5.007 -0.1093 -0.1635 -0.2387
  748POPS   PO411464  13.743   2.439   5.216 -0.0627  0.1613  0.1956
  748POPS   GL111465  13.614   2.686   5.520 -0.1784  0.0495  0.4283
  748POPS   GL211466  13.882   2.898   5.715  0.0082  0.0762 -0.2037
  748POPS   C1A11467  13.361   2.939   5.864 -0.3012  0.1222 -0.3374
  748POPS   D2A11468  13.324   3.328   6.130  0.1084  0.0755 -0.1209
  748POPS   C3A11469  12.972   3.312   6.463 -0.1906 -0.1592 -0.1163
  748POPS   C4A11470  12.745   2.918   6.712  0.1565  0.0793  0.0082
  748POPS   C1B11471  14.044   3.285   6.000  0.1059  0.0303 -0.0868
  748POPS   C2B11472  14.100   3.500   6.346  0.0782 -0.1381 -0.0355
  748POPS   C3B11473  14.294   3.540   6.557 -0.2317  0.2942 -0.0335
  748POPS   C4B11474  14.251   3.636   7.029 -0.1700  0.0033  0.5538
  749POPS   CNO11475   5.814   7.858   5.545 -0.2612 -0.1855 -0.1953
  749POPS   PO411476   5.488   7.526   5.782  0.0341 -0.2353 -0.3242
  749POPS   GL111477   5.748   7.677   6.068 -0.0928  0.3277 -0.1925
  749POPS   GL211478   5.784   8.001   6.047 -0.1384 -0.1217 -0.2282
  749POPS   C1A11479   5.683   7.662   6.515  0.2529 -0.1102 -0.1062
  749POPS   D2A11480   5.473   7.577   6.887  0.0635 -0.2438 -0.1015
  749POPS   C3A11481   5.195   7.842   7.171 -0.2560 -0.3228  0.2883
  749POPS   C4A11482   4.797   7.978   7.119  0.2304 -0.3832  0.2268
  749POPS   C1B11483   5.890   8.123   6.423 -0.0406  0.0573 -0.0114
  749POPS   C2B11484   5.976   8.085   6.808 -0.0298  0.3481 -0.1281
  749POPS   C3B11485   5.994   7.769   7.110 -0.0384  0.1998 -0.2439
  749POPS   C4B11486   5.944   7.370   6.953  0.2131 -0.2555  0.3740
  750POPS   CNO11487   4.079  14.091   6.189 -0.2171 -0.0062 -0.0907
  750POPS   PO411488   4.403  13.838   6.248 -0.0319  0.1405 -0.3405
  750POPS   GL111489   4.538  13.745   6.586  0.2694 -0.0072  0.0265
  750POPS   GL211490   4.830  13.562   6.624 -0.2810 -0.0187 -0.2277
  750POPS   C1A11491   4.408  13.813   7.031  0.2027  0.2116 -0.1564
  750POPS   D2A11492   4.247  14.145   7.135 -0.0783 -0.0687 -0.1392
  750POPS   C3A11493   4.108  14.179   7.613  0.2908 -0.0142 -0.1233
  750POPS   C4A11494   3.882  14.184   7.947 -0.2295 -0.1200 -0.0488
  750POPS   C1B11495   4.867  13.517   7.025 -0.2955 -0.0589  0.0876
  750POPS   C2B11496   4.919  13.452   7.492  0.1118  0.2772 -0.0918
  750POPS   C3B11497   5.132  13.374   7.888 -0.0285  0.2179  0.0556
  750POPS   C4B11498   5.121  13.134   8.224  0.1075 -0.0952 -0.3148
  751POPS   CNO11499  15.911   4.023   5.439  0.0371  0.0845  0.0754
  751POPS   PO411500  15.698   4.340   5.349  0.2205  0.0977  0.1811
  751POPS   GL111501  15.480   4.540   5.668  0.0134 -0.2038  0.1513
  751POPS   GL211502  15.676   4.688   5.826  0.1064  0.0961 -0.1600
  751POPS   C1A11503  15.102   4.515   5.795 -0.2162 -0.3731  0.0569
  751POPS   D2A11504  14.674   4.493   6.045 -0.3367 -0.1218  0.3149
  751POPS   C3A11505  14.887   4.337   6.490  0.0776  0.1386 -0.0024
  751POPS   C4A11506  15.112   4.198   6.823  0.0703  0.0995  0.0141
  751POPS   C1B11507  15.789   4.653   6.247  0.2547 -0.2627  0.3361
  751POPS   C2B11508  15.671   4.956   6.587 -0.0876  0.0158  0.1241
  751POPS   C3B11509  15.855   4.924   6.962  0.2621  0.0502 -0.0742
  751POPS   C4B11510  15.969   5.268   7.236 -0.1244  0.2574 -0.2576
  752POPS   CNO11511  14.361  12.374   5.693  0.2690  0.2250  0.0001
  752POPS   PO411512  14.746  12.644   5.574 -0.4811  0.0109  0.1419
  752POPS   GL111513  14.874  12.670   5.982 -0.1688  0.1527 -0.3109
  752POPS   GL211514  14.495  12.733   6.049 -0.1286  0.0408 -0.2390
  752POPS   C1A11515  14.980  12.565   6.301  0.0756  0.0879  0.0862
  752POPS   D2A11516  14.985  12.478   6.689  0.1643 -0.2688  0.2869
  752POPS   C3A11517  15.035  12.340   7.030  0.2901  0.1323 -0.1108
  752POPS   C4A11518  15.040  12.137   7.376  0.1287  0.0310  0.1458
  752POPS   C1B11519  14.294  12.599   6.392 -0.1490  0.2086 -0.0494
  752POPS   C2B11520  14.266  12.256   6.750 -0.0882 -0.0968  0.3128
  752POPS   C3B11521  14.391  12.357   7.198  0.0090 -0.1665  0.1020
  752POPS   C4B11522  14.378  12.557   7.625 -0.1208  0.1824  0.0961
  753POPS   CNO11523   7.419  10.121   5.648  0.0382 -0.0968  0.2143
  753POPS   PO411524   6.917  10.259   5.792 -0.0236  0.0258 -0.1278
  753POPS   GL111525   6.672  10.406   6.115  0.2885 -0.0006 -0.1406
  753POPS   GL211526   6.322  10.253   6.006 -0.0858  0.2406 -0.1461
  753POPS   C1A11527   6.509  10.478   6.502  0.0520  0.1733 -0.0810
  753POPS   D2A11528   6.379  10.614   6.918 -0.0168 -0.3085 -0.0542
  753POPS   C3A11529   6.393  10.256   7.179  0.4152 -0.1491 -0.0544
  753POPS   C4A11530   6.752  10.156   7.375  0.0611 -0.3108 -0.1080
  753POPS   C1B11531   6.273  10.070   6.401 -0.0401  0.3295  0.1992
  753POPS   C2B11532   6.376   9.919   6.755 -0.2297 -0.1784  0.1433
  753POPS   C3B11533   6.662   9.808   7.040 -0.1018 -0.1875  0.1204
  753POPS   C4B11534   6.679   9.658   7.430 -0.0140 -0.0035 -0.3155
  754POPS   CNO11535   4.236  11.499   5.432  0.2346  0.1682 -0.2706
  754POPS   PO411536   4.451  11.916   5.697 -0.3363 -0.3413 -0.1803
  754POPS   GL111537   4.287  11.745   6.034 -0.0820 -0.0333  0.0473
  754POPS   GL211538   4.244  11.447   6.026  0.0588  0.0922  0.0633
  754POPS   C1A11539   4.285  11.832   6.504 -0.5800  0.1461  0.0707
  754POPS   D2A11540   4.159  11.855   6.959  0.1779 -0.0350 -0.0538
  754POPS   C3A11541   3.763  12.023   7.002 -0.0822 -0.2430  0.1536
  754POPS   C4A11542   3.630  12.122   6.651 -0.0348 -0.3310 -0.0918
  754POPS   C1B11543   4.446  11.363   6.469  0.1206 -0.1065 -0.0469
  754POPS   C2B11544   4.397  11.353   6.843 -0.0461 -0.2628 -0.0623
  754POPS   C3B11545   4.137  11.201   7.201  0.1355 -0.0201  0.2071
  754POPS   C4B11546   4.181  10.944   7.585 -0.0838  0.1203  0.0501
  755POPS   CNO11547  14.614   9.384   5.390  0.1181  0.1477 -0.1583
  755POPS   PO411548  14.584   9.691   5.554  0.1499 -0.0078 -0.0702
  755POPS   GL111549  14.818   9.820   5.836  0.0472 -0.0961 -0.3617
  755POPS   GL211550  14.679   9.747   6.111 -0.1026  0.0789  0.0951
  755POPS   C1A11551  15.154   9.695   6.230  0.5131 -0.0984  0.2005
  755POPS   D2A11552  15.492   9.665   6.443  0.2501  0.0265  0.0020
  755POPS   C3A11553  15.502   9.586   6.833  0.0541 -0.1926  0.2341
  755POPS   C4A11554  15.232   9.413   7.082  0.1598 -0.2319 -0.0345
  755POPS   C1B11555  14.598   9.961   6.446 -0.1067 -0.3431 -0.0871
  755POPS   C2B11556  14.289  10.115   6.826 -0.0580  0.0187 -0.0417
  755POPS   C3B11557  14.212  10.309   7.213 -0.0065 -0.0683 -0.1203
  755POPS   C4B11558  13.822  10.579   7.261 -0.0021 -0.3519 -0.1793
  756POPS   CNO11559   7.529   9.704   5.011  0.2540 -0.2550  0.0224
  756POPS   PO411560   7.654   9.795   5.351  0.3078  0.0155 -0.1748
  756POPS   GL111561   7.540   9.619   5.893 -0.2488 -0.0301 -0.0534
  756POPS   GL211562   7.725   9.658   6.110 -0.2670  0.3355  0.0947
  756POPS   C1A11563   7.216   9.538   6.291  0.1134 -0.1803 -0.1720
  756POPS   D2A11564   7.202   9.731   6.718  0.0361 -0.1879  0.3287
  756POPS   C3A11565   7.448   9.395   7.062  0.0435  0.0096 -0.1914
  756POPS   C4A11566   7.605   9.516   7.373  0.3195  0.0248 -0.0991
  756POPS   C1B11567   7.706   9.515   6.475  0.1913  0.1327 -0.0564
  756POPS   C2B11568   7.663   9.792   6.832 -0.1339 -0.0825  0.2805
  756POPS   C3B11569   7.229   9.914   7.147  0.2852 -0.1906  0.1486
  756POPS   C4B11570   7.183   9.763   7.493  0.2015  0.0577  0.0111
  757POPS   CNO11571   3.526  13.522   5.903  0.3086  0.3397  0.2185
  757POPS   PO411572   3.716  13.146   6.207 -0.2773  0.0141 -0.0662
  757POPS   GL111573   3.412  12.895   6.532  0.0568  0.2481 -0.1807
  757POPS   GL211574   3.115  12.798   6.391 -0.4315 -0.1638 -0.0587
  757POPS   C1A11575   3.335  12.914   6.977  0.1074 -0.5585 -0.3196
  757POPS   D2A11576   3.441  12.937   7.442  0.3166 -0.2205 -0.1732
  757POPS   C3A11577   3.297  12.590   7.641  0.2561  0.0844 -0.2259
  757POPS   C4A11578   3.003  12.263   7.848 -0.1644 -0.1652  0.2270
  757POPS   C1B11579   3.250  12.468   6.664  0.1928  0.0931  0.1117
  757POPS   C2B11580   3.296  12.165   7.074  0.0839  0.2364 -0.1062
  757POPS   C3B11581   3.341  12.127   7.443  0.1673  0.1042  0.1279
  757POPS   C4B11582   3.670  11.918   7.762  0.3162  0.2436  0.0522
  758POPS   CNO11583  17.916  11.480   5.616 -0.2948  0.3576 -0.0293
  758POPS   PO411584  18.314  11.216   5.797 -0.2714 -0.0404 -0.0327
  758POPS   GL111585  17.906  11.183   6.009 -0.0718  0.1271 -0.0144
  758POPS   GL211586  17.871  10.961   6.221 -0.2159 -0.0240  0.1147
  758POPS   C1A11587  17.356  11.092   6.151 -0.0529 -0.2722 -0.0397
  758POPS   D2A11588  16.962  11.017   6.301  0.2002  0.2706  0.0672
  758POPS   C3A11589  17.091  10.924   6.654 -0.0129 -0.1346  0.0676
  758POPS   C4A11590  17.287  10.937   6.980  0.1218  0.2287  0.0743
  758POPS   C1B11591  17.633  10.843   6.532  0.1624  0.1360  0.0109
  758POPS   C2B11592  17.736  10.709   6.943 -0.1997  0.1150  0.0846
  758POPS   C3B11593  17.756  10.458   7.263  0.1040 -0.0050 -0.1015
  758POPS   C4B11594  17.944  10.387   7.589 -0.0395 -0.1276 -0.0058
  759POPS   CNO11595   3.948  14.531   6.438 -0.0267 -0.1057 -0.1666
  759POPS   PO411596   3.597  14.793   6.399  0.1305  0.4392 -0.1308
  759POPS   GL111597   3.605  14.656   6.837 -0.0259  0.0802 -0.2349
  759POPS   GL211598   3.251  14.493   6.994  0.1551  0.0709 -0.2478
  759POPS   C1A11599   3.816  14.722   7.213  0.0354  0.1188 -0.0050
  759POPS   D2A11600   3.794  14.640   7.585 -0.0528 -0.3506  0.2910
  759POPS   C3A11601   4.079  14.618   7.949 -0.2264  0.0967 -0.0411
  759POPS   C4A11602   4.463  14.436   7.887 -0.1481  0.0685  0.1110
  759POPS   C1B11603   3.356  14.591   7.337  0.0426  0.0489  0.3325
  759POPS   C2B11604   3.333  14.743   7.809 -0.0216 -0.0216  0.0192
  759POPS   C3B11605   3.151  14.937   8.162 -0.0295 -0.3127 -0.0679
  759POPS   C4B11606   3.278  15.374   8.290 -0.1014 -0.4142  0.1145
  760POPS   CNO11607   9.937   5.309   4.752 -0.2647  0.0755 -0.1879
  760POPS   PO411608   9.964   5.527   5.211  0.1648  0.5431  0.1001
  760POPS   GL111609   9.885   5.951   5.507  0.1027  0.3198  0.2024
  760POPS   GL211610  10.165   5.958   5.572  0.1232  0.1726  0.0982
  760POPS   C1A11611   9.740   6.161   5.848  0.2415 -0.1266  0.0141
  760POPS   D2A11612   9.513   6.594   5.829 -0.1819  0.0186 -0.0265
  760POPS   C3A11613   9.524   6.807   6.231  0.1729 -0.1616  0.0045
  760POPS   C4A11614   9.608   6.814   6.596 -0.1848  0.2825  0.2255
  760POPS   C1B11615  10.224   6.120   5.989  0.0489  0.0200 -0.0379
  760POPS   C2B11616  10.343   6.304   6.361  0.0702  0.1453  0.4953
  760POPS   C3B11617  10.385   6.284   6.844 -0.0402  0.0798  0.2258
  760POPS   C4B11618  10.496   6.314   7.376 -0.0479 -0.1121  0.1275
  761POPS   CNO11619   8.000  13.833   6.243 -0.1248 -0.1661  0.1705
  761POPS   PO411620   8.184  14.300   6.288  0.0806  0.0631  0.3646
  761POPS   GL111621   8.358  14.122   6.687 -0.0909  0.0078  0.2381
  761POPS   GL211622   8.340  13.839   6.607 -0.0420  0.0899  0.1451
  761POPS   C1A11623   8.278  14.252   7.097 -0.2943  0.0798  0.0061
  761POPS   D2A11624   7.988  14.483   7.332  0.1742  0.2686 -0.2424
  761POPS   C3A11625   7.919  14.495   7.744 -0.1353 -0.1359 -0.0306
  761POPS   C4A11626   7.847  14.613   8.149 -0.3287 -0.3491  0.1541
  761POPS   C1B11627   8.123  13.528   6.959 -0.3916  0.1098 -0.2800
  761POPS   C2B11628   8.234  13.412   7.352  0.1770 -0.2624 -0.2582
  761POPS   C3B11629   8.267  13.399   7.742 -0.5060 -0.0665  0.2150
  761POPS   C4B11630   8.603  13.228   7.999 -0.1187 -0.2506 -0.0590
  762POPS   CNO11631  10.661  16.416   6.168  0.2052 -0.1492  0.0115
  762POPS   PO411632  10.798  16.776   5.917  0.3625  0.4923 -0.1688
  762POPS   GL111633  10.879  16.777   6.384  0.1855 -0.3340 -0.2541
  762POPS   GL211634  10.855  17.131   6.468 -0.1575  0.0446 -0.0880
  762POPS   C1A11635  10.670  16.697   6.822 -0.0919  0.0850  0.0586
  762POPS   D2A11636  10.563  16.593   7.233 -0.2311  0.0168 -0.0133
  762POPS   C3A11637  10.405  16.676   7.570  0.0539 -0.0743  0.1172
  762POPS   C4A11638  10.192  16.432   7.895  0.0810  0.3225 -0.5238
  762POPS   C1B11639  11.091  17.077   6.869  0.1559 -0.1823  0.0358
  762POPS   C2B11640  10.926  17.028   7.289  0.0876 -0.1979 -0.0789
  762POPS   C3B11641  10.838  16.801   7.729 -0.1244 -0.1813  0.2446
  762POPS   C4B11642  10.698  16.403   7.885 -0.3861  0.0771 -0.0246
  763POPS   CNO11643  14.841  12.118   5.801 -0.0511 -0.0129  0.0105
  763POPS   PO411644  14.868  11.759   5.967 -0.1316 -0.0353 -0.1073
  763POPS   GL111645  14.805  11.641   6.322  0.0470 -0.3141  0.2393
  763POPS   GL211646  14.761  11.281   6.259  0.4275  0.0233  0.3798
  763POPS   C1A11647  14.752  11.476   6.785  0.4316  0.2040  0.1166
  763POPS   D2A11648  14.594  11.283   7.220 -0.0127 -0.2755 -0.1558
  763POPS   C3A11649  14.281  10.864   7.191 -0.1377  0.0898 -0.1061
  763POPS   C4A11650  14.170  10.760   7.639 -0.0074 -0.1684 -0.3228
  763POPS   C1B11651  14.883  11.000   6.600 -0.1546 -0.1356  0.1892
  763POPS   C2B11652  14.948  10.901   7.065  0.0713  0.0733  0.0827
  763POPS   C3B11653  14.711  10.767   7.408 -0.2164  0.2079  0.0050
  763POPS   C4B11654  14.625  11.166   7.682 -0.1070  0.2040  0.0811
  764POPS   CNO11655   8.478   0.548   6.384  0.1913  0.0115  0.0493
  764POPS   PO411656   8.797   0.819   6.175 -0.1437 -0.0043  0.1051
  764POPS   GL111657   8.806   0.976   6.632 -0.0623  0.1729  0.2202
  764POPS   GL211658   8.933   0.638   6.679 -0.0527  0.3538  0.2741
  764POPS   C1A11659   8.833   1.254   7.002  0.4813 -0.3155 -0.0692
  764POPS   D2A11660   9.048   1.540   7.385 -0.0380  0.3049  0.4741
  764POPS   C3A11661   8.830   1.778   7.613  0.0322  0.0923  0.1281
  764POPS   C4A11662   8.480   1.834   7.631 -0.1779  0.1812 -0.1955
  764POPS   C1B11663   9.040   0.798   7.041 -0.2177 -0.1942 -0.4018
  764POPS   C2B11664   8.985   1.011   7.417 -0.1521  0.1571  0.2268
  764POPS   C3B11665   9.045   1.188   7.793 -0.1921 -0.1217 -0.3573
  764POPS   C4B11666   9.205   1.066   8.134 -0.3864 -0.2687 -0.2708
  765POPS   CNO11667  15.662   2.092   6.022  0.2377 -0.0325  0.1147
  765POPS   PO411668  15.445   2.476   6.095  0.0485 -0.1960 -0.0572
  765POPS   GL111669  15.750   2.784   6.325  0.1004  0.1278  0.0815
  765POPS   GL211670  16.061   3.011   6.114  0.1751  0.5722 -0.0130
  765POPS   C1A11671  15.724   2.927   6.776  0.0130 -0.2237  0.0680
  765POPS   D2A11672  15.284   2.905   7.138 -0.3497 -0.2577  0.2260
  765POPS   C3A11673  15.342   2.787   7.713  0.1997  0.0925 -0.1295
  765POPS   C4A11674  15.628   2.687   8.038  0.1472 -0.1164 -0.1742
  765POPS   C1B11675  16.200   3.176   6.556  0.0695 -0.3142  0.1724
  765POPS   C2B11676  16.456   3.128   6.866 -0.1259 -0.0656 -0.1105
  765POPS   C3B11677  16.498   3.276   7.299 -0.0277  0.2618 -0.1647
  765POPS   C4B11678  16.448   3.015   7.623  0.0092  0.1721  0.1155
  766POPS   CNO11679   7.329  18.212   6.028 -0.2546 -0.0865  0.0941
  766POPS   PO411680   7.464  18.372   6.359 -0.0753 -0.2244 -0.0905
  766POPS   GL111681   7.547  18.177   6.704  0.1006 -0.1588 -0.0057
  766POPS   GL211682   7.880  18.231   6.811  0.1666 -0.1759 -0.3171
  766POPS   C1A11683   7.234  17.949   6.934 -0.0991  0.2415 -0.1547
  766POPS   D2A11684   6.859  18.036   7.097  0.2286  0.0933  0.3286
  766POPS   C3A11685   6.805  18.265   7.552 -0.2043  0.0011 -0.0527
  766POPS   C4A11686   6.978  18.583   7.751 -0.1315  0.2770  0.0710
  766POPS   C1B11687   7.724  18.368   7.162 -0.0450  0.2452  0.0630
  766POPS   C2B11688   7.656  18.585   7.475 -0.2719 -0.2027 -0.2557
  766POPS   C3B11689   7.494  18.642   7.882  0.3065 -0.4001  0.1762
  766POPS   C4B11690   7.515  18.697   8.330  0.0391 -0.0424 -0.0633
  767POPS   CNO11691   5.171   6.143   5.723 -0.0277  0.2811  0.2232
  767POPS   PO411692   5.652   6.111   5.503  0.1124 -0.2536 -0.1005
  767POPS   GL111693   5.674   6.198   5.910  0.1108 -0.0630 -0.0379
  767POPS   GL211694   5.917   6.397   5.892  0.0240  0.1673  0.2927
  767POPS   C1A11695   5.687   6.082   6.322  0.3256 -0.1940 -0.0492
  767POPS   D2A11696   5.398   6.058   6.733 -0.1837 -0.3648  0.0399
  767POPS   C3A11697   5.292   5.848   6.932 -0.3437 -0.0883 -0.1091
  767POPS   C4A11698   5.305   5.609   7.364  0.3040 -0.1697  0.1972
  767POPS   C1B11699   6.160   6.218   6.319 -0.0182 -0.0553  0.2392
  767POPS   C2B11700   6.166   6.058   6.752  0.0678 -0.0557 -0.0065
  767POPS   C3B11701   5.829   5.925   6.912  0.0151  0.1291 -0.0762
  767POPS   C4B11702   5.767   5.797   7.236 -0.1603 -0.0056 -0.0515
  768POPS   CNO11703  13.879  10.587   5.432 -0.2196  0.4003 -0.1046
  768POPS   PO411704  13.470  10.415   5.451  0.0888  0.1940 -0.0244
  768POPS   GL111705  13.548  10.424   5.858  0.0138 -0.3132  0.0553
  768POPS   GL211706  13.904  10.408   5.879  0.1769 -0.0693  0.0704
  768POPS   C1A11707  13.624  10.413   6.308 -0.0727 -0.0151  0.1815
  768POPS   D2A11708  14.033  10.420   6.455  0.1390 -0.0384  0.1272
  768POPS   C3A11709  14.140  10.687   6.715 -0.1807 -0.3575  0.2825
  768POPS   C4A11710  14.438  11.012   6.756 -0.0845  0.0349  0.0352
  768POPS   C1B11711  14.188  10.310   6.029 -0.1601 -0.3379 -0.0519
  768POPS   C2B11712  14.644  10.256   6.059 -0.0804  0.1494 -0.2903
  768POPS   C3B11713  15.100  10.207   6.130  0.4167  0.1241  0.1103
  768POPS   C4B11714  15.498  10.068   6.139  0.0078 -0.0515 -0.0397
  769POPS   CNO11715  15.190   8.545   5.431 -0.0721 -0.0946 -0.1070
  769POPS   PO411716  14.921   8.895   5.534 -0.1089 -0.0693 -0.0923
  769POPS   GL111717  14.704   9.148   5.829  0.1772 -0.1911  0.2629
  769POPS   GL211718  14.406   9.276   5.886  0.2111 -0.0477 -0.1338
  769POPS   C1A11719  14.797   9.218   6.268  0.0191  0.0467 -0.0454
  769POPS   D2A11720  14.791   9.423   6.668 -0.0244  0.0152  0.0242
  769POPS   C3A11721  15.046   9.739   6.777  0.2167 -0.0005  0.2744
  769POPS   C4A11722  15.155  10.090   6.600  0.3512  0.3580  0.0937
  769POPS   C1B11723  14.328   9.366   6.293 -0.0236  0.0938  0.2156
  769POPS   C2B11724  14.220   9.343   6.748 -0.0453  0.0905 -0.0500
  769POPS   C3B11725  13.854   9.316   6.935 -0.0423  0.0756  0.0329
  769POPS   C4B11726  13.548   8.967   7.140 -0.1678 -0.2398 -0.1638
  770POPS   CNO11727  18.112   8.692   5.696  0.2768 -0.1494 -0.0418
  770POPS   PO411728  18.344   8.352   5.755 -0.3205  0.0796 -0.1281
  770POPS   GL111729  18.436   8.165   6.057  0.3187  0.1678  0.0147
  770POPS   GL211730  18.758   7.915   6.112  0.0596  0.0947 -0.1782
  770POPS   C1A11731  18.442   8.013   6.521  0.2810 -0.0133 -0.0175
  770POPS   D2A11732  18.621   7.722   6.769 -0.0341 -0.1362  0.2949
  770POPS   C3A11733  18.516   7.729   7.290 -0.0403 -0.0518  0.0721
  770POPS   C4A11734  18.717   7.698   7.641 -0.2843 -0.0714 -0.0205
  770POPS   C1B11735  19.161   7.807   6.400  0.2329  0.1786  0.1364
  770POPS   C2B11736  19.427   7.366   6.533  0.0588 -0.1900 -0.1012
  770POPS   C3B11737  19.423   7.333   6.947  0.2697  0.3154 -0.2485
  770POPS   C4B11738  19.379   7.447   7.329 -0.5018 -0.0127 -0.1346
  771POPS   CNO11739   5.517   5.013   5.920 -0.1382  0.0914 -0.2419
  771POPS   PO411740   5.231   5.318   5.867 -0.0952  0.1344  0.0781
  771POPS   GL111741   5.041   5.552   6.110 -0.0707  0.3473 -0.0167
  771POPS   GL211742   5.217   5.863   6.208 -0.1853 -0.0549 -0.0592
  771POPS   C1A11743   4.976   5.559   6.547 -0.0170 -0.0115  0.0234
  771POPS   D2A11744   5.069   5.394   6.937 -0.0768  0.0032 -0.0491
  771POPS   C3A11745   4.940   5.227   7.279  0.0767  0.2230  0.3411
  771POPS   C4A11746   4.928   5.189   7.636 -0.0898 -0.1144  0.0529
  771POPS   C1B11747   4.947   6.017   6.565  0.1592  0.3003 -0.1108
  771POPS   C2B11748   4.819   5.879   7.026 -0.2237  0.2885 -0.2296
  771POPS   C3B11749   4.820   5.659   7.454  0.0230  0.0471  0.3719
  771POPS   C4B11750   4.488   5.321   7.570  0.2623 -0.2126 -0.2532
  772POPS   CNO11751   1.229   2.434   5.973 -0.0337 -0.2778 -0.0079
  772POPS   PO411752   1.484   2.639   6.169  0.0253 -0.0470  0.3085
  772POPS   GL111753   1.788   2.689   6.458 -0.2043  0.1916 -0.2728
  772POPS   GL211754   1.706   2.556   6.697 -0.1770 -0.1287 -0.1366
  772POPS   C1A11755   1.827   3.061   6.629 -0.0303 -0.1072  0.0072
  772POPS   D2A11756   1.669   3.447   6.676 -0.1306  0.4224  0.0777
  772POPS   C3A11757   1.869   3.757   6.461  0.0654 -0.0289  0.1012
  772POPS   C4A11758   2.063   4.066   6.511  0.1641  0.0596  0.2148
  772POPS   C1B11759   1.804   2.722   7.055  0.0351  0.0156 -0.2373
  772POPS   C2B11760   1.905   3.155   7.240 -0.0236 -0.0728  0.1924
  772POPS   C3B11761   2.141   3.366   6.917  0.2261  0.1542  0.1320
  772POPS   C4B11762   1.978   3.615   6.972 -0.0823 -0.1070  0.3506
  773POPS   CNO11763  16.502  14.482   6.024  0.0130 -0.1033  0.1959
  773POPS   PO411764  16.518  14.000   6.015 -0.0844  0.0114 -0.3035
  773POPS   GL111765  16.626  13.820   6.464 -0.0015 -0.3030 -0.0204
  773POPS   GL211766  16.885  13.714   6.323  0.3421  0.1617 -0.1449
  773POPS   C1A11767  16.869  13.908   6.775  0.4153 -0.0856 -0.2043
  773POPS   D2A11768  16.921  13.795   7.252  0.0001  0.1823  0.0675
  773POPS   C3A11769  16.933  14.087   7.568  0.0471 -0.1670  0.0749
  773POPS   C4A11770  17.072  14.356   7.894 -0.1349  0.1164 -0.1198
  773POPS   C1B11771  17.179  13.501   6.610  0.0403  0.2149 -0.1245
  773POPS   C2B11772  17.282  13.492   6.925  0.0550  0.0551 -0.0954
  773POPS   C3B11773  17.193  13.364   7.167 -0.2354 -0.1074 -0.2237
  773POPS   C4B11774  16.996  13.375   7.531 -0.2021  0.1387 -0.4227
  774POPS   CNO11775   3.894   5.227   5.482  0.2687  0.2677 -0.2106
  774POPS   PO411776   4.199   5.513   5.661 -0.0204 -0.2525  0.0310
  774POPS   GL111777   4.064   5.754   5.954  0.2046  0.1089  0.1589
  774POPS   GL211778   4.217   5.987   5.934  0.2113 -0.0924 -0.0220
  774POPS   C1A11779   3.964   5.593   6.344  0.1099 -0.3294  0.0599
  774POPS   D2A11780   3.709   5.411   6.649  0.0937 -0.2539 -0.3074
  774POPS   C3A11781   3.751   5.055   6.928 -0.1304  0.1361  0.4146
  774POPS   C4A11782   3.618   5.185   7.342 -0.2433  0.0204 -0.0007
  774POPS   C1B11783   4.156   6.190   6.273 -0.0959  0.0724 -0.3140
  774POPS   C2B11784   4.000   6.268   6.591 -0.2549  0.2439  0.1197
  774POPS   C3B11785   3.730   6.511   6.839 -0.1502  0.4384 -0.0549
  774POPS   C4B11786   3.688   6.448   7.345  0.0143 -0.1873 -0.0718
  775POPS   CNO11787   3.484   2.949   6.120  0.1401  0.0343 -0.2536
  775POPS   PO411788   3.522   2.609   5.943 -0.0357 -0.0253  0.1201
  775POPS   GL111789   3.702   2.476   6.371 -0.2963 -0.0232 -0.0618
  775POPS   GL211790   3.502   2.775   6.603  0.1071 -0.0786 -0.1368
  775POPS   C1A11791   3.744   2.392   6.870 -0.0454  0.0699  0.3061
  775POPS   D2A11792   4.066   2.268   7.124 -0.4081 -0.1210 -0.1397
  775POPS   C3A11793   4.102   2.333   7.554  0.0822  0.1485  0.0832
  775POPS   C4A11794   3.810   2.356   7.886 -0.0683  0.0354  0.2074
  775POPS   C1B11795   3.515   2.798   7.039 -0.1403  0.1612 -0.0922
  775POPS   C2B11796   3.615   2.721   7.434 -0.4660 -0.0861  0.0749
  775POPS   C3B11797   3.682   2.836   7.889 -0.1233  0.1164  0.3724
  775POPS   C4B11798   4.095   3.072   8.064 -0.0777 -0.2812  0.3064
  776POPS   CNO11799   9.867   3.590   5.010 -0.0480 -0.0989  0.1689
  776POPS   PO411800   9.816   3.424   5.408 -0.1530  0.1372  0.0361
  776POPS   GL111801   9.582   3.431   5.788 -0.0960 -0.3656 -0.0807
  776POPS   GL211802   9.518   3.136   5.885 -0.1838  0.1741 -0.0621
  776POPS   C1A11803   9.706   3.644   6.172 -0.0064 -0.2299  0.0081
  776POPS   D2A11804  10.090   3.627   6.333 -0.2379 -0.0262 -0.0525
  776POPS   C3A11805  10.049   3.642   6.753 -0.1043  0.0448  0.0504
  776POPS   C4A11806  10.118   3.692   7.160 -0.1562 -0.2414  0.2620
  776POPS   C1B11807   9.296   3.403   6.182  0.3034  0.1122 -0.2586
  776POPS   C2B11808   9.257   3.462   6.558  0.3588 -0.0015  0.1015
  776POPS   C3B11809   9.200   3.645   6.971  0.2066 -0.1170 -0.4077
  776POPS   C4B11810   8.946   4.092   7.158 -0.1471 -0.3027  0.2973
  777POPS   CNO11811   1.486  12.187   6.279  0.0204  0.1180  0.0548
  777POPS   PO411812   1.678  12.519   6.040  0.1065 -0.5427  0.6681
  777POPS   GL111813   1.652  12.664   6.373 -0.0342  0.5918 -0.1030
  777POPS   GL211814   1.544  13.009   6.517  0.0163 -0.1992 -0.0631
  777POPS   C1A11815   1.778  12.570   6.812  0.1124 -0.0122 -0.1753
  777POPS   D2A11816   1.558  12.304   7.107  0.3517  0.1079  0.0104
  777POPS   C3A11817   1.513  12.394   7.530  0.3206  0.0865 -0.2382
  777POPS   C4A11818   1.606  12.680   7.925  0.0693 -0.1042 -0.2925
  777POPS   C1B11819   1.475  12.976   7.038 -0.1441 -0.0628  0.0044
  777POPS   C2B11820   1.486  12.906   7.482  0.1603  0.2556 -0.1133
  777POPS   C3B11821   1.216  12.872   7.791 -0.0120 -0.0183  0.0016
  777POPS   C4B11822   1.061  12.698   8.141  0.0493 -0.1338  0.1828
  778POPS   CNO11823  15.064  17.568   6.264 -0.1395 -0.2869 -0.0889
  778POPS   PO411824  15.256  17.791   6.415 -0.3640 -0.2718 -0.1698
  778POPS   GL111825  15.196  17.956   6.745 -0.2050 -0.1599  0.2159
  778POPS   GL211826  15.176  18.342   6.634  0.2094 -0.1607  0.3050
  778POPS   C1A11827  15.271  18.161   7.056 -0.0679 -0.0262  0.4838
  778POPS   D2A11828  15.527  17.996   7.383 -0.1271 -0.1679 -0.1466
  778POPS   C3A11829  15.612  18.195   7.657 -0.0896  0.3080 -0.0413
  778POPS   C4A11830  15.478  18.512   7.977 -0.2362  0.1679 -0.0965
  778POPS   C1B11831  14.994  18.612   6.943  0.0035 -0.5806  0.2626
  778POPS   C2B11832  15.245  18.615   7.292 -0.1309  0.1473  0.1234
  778POPS   C3B11833  15.000  18.549   7.639 -0.1096  0.3870 -0.5255
  778POPS   C4B11834  15.037  18.900   7.922  0.2180  0.1769  0.3703
  779POPS   CNO11835   6.848   1.870   5.781  0.1146  0.2166 -0.0500
  779POPS   PO411836   6.533   1.657   6.007  0.0882 -0.1463 -0.1919
  779POPS   GL111837   6.354   1.821   6.423  0.2869 -0.2129 -0.2054
  779POPS   GL211838   6.141   1.999   6.674  0.1954 -0.0202 -0.3022
  779POPS   C1A11839   6.587   2.176   6.673 -0.1319 -0.2624 -0.3009
  779POPS   D2A11840   6.621   2.104   7.134  0.1259  0.1123  0.1358
  779POPS   C3A11841   6.795   2.158   7.430 -0.1456  0.1983 -0.1479
  779POPS   C4A11842   7.067   2.426   7.813  0.4504  0.2672  0.3503
  779POPS   C1B11843   6.090   1.919   7.099  0.3904 -0.0818 -0.0508
  779POPS   C2B11844   6.086   1.829   7.507  0.2122 -0.0351  0.0898
  779POPS   C3B11845   5.899   1.719   7.925  0.1560  0.1577  0.1466
  779POPS   C4B11846   5.966   1.922   8.377 -0.2612  0.0762 -0.0438
  780POPS   CNO11847  10.073   3.686   5.783 -0.1740 -0.0011  0.0188
  780POPS   PO411848  10.431   3.416   5.939  0.0434 -0.1447  0.1054
  780POPS   GL111849  10.591   3.762   6.030 -0.2228  0.1503  0.1976
  780POPS   GL211850  10.842   3.963   5.953 -0.3319 -0.1112  0.0076
  780POPS   C1A11851  10.451   3.999   6.346  0.2361  0.2554  0.0964
  780POPS   D2A11852  10.313   4.029   6.665 -0.3293  0.2787  0.1672
  780POPS   C3A11853  10.385   4.283   7.002 -0.1464  0.0138 -0.2443
  780POPS   C4A11854  10.335   4.143   7.369  0.1065  0.0305 -0.3277
  780POPS   C1B11855  10.953   3.871   6.374  0.1001  0.1851 -0.1446
  780POPS   C2B11856  11.199   3.675   6.767 -0.0234 -0.0692 -0.1705
  780POPS   C3B11857  11.666   3.585   6.928 -0.0613 -0.0462 -0.2211
  780POPS   C4B11858  12.115   3.712   7.074 -0.0156  0.0237  0.0144
  781POPS   CNO11859   3.419   7.680   5.729  0.1923 -0.0155  0.1614
  781POPS   PO411860   3.038   8.029   5.763 -0.0475  0.3670  0.1221
  781POPS   GL111861   3.087   7.844   6.183  0.0800 -0.3556 -0.2172
  781POPS   GL211862   3.459   7.727   6.277 -0.1298 -0.1395 -0.0973
  781POPS   C1A11863   2.799   7.553   6.425 -0.0102  0.0094 -0.0193
  781POPS   D2A11864   2.735   7.505   6.843 -0.2600  0.0288 -0.3048
  781POPS   C3A11865   2.778   7.731   7.210 -0.0511  0.3086 -0.0528
  781POPS   C4A11866   3.055   7.859   7.586  0.0536 -0.1573 -0.0337
  781POPS   C1B11867   3.276   7.548   6.799  0.1459 -0.3558  0.2859
  781POPS   C2B11868   3.628   7.229   7.048  0.1096  0.0405 -0.0124
  781POPS   C3B11869   4.002   7.402   7.160 -0.0415  0.2275 -0.0975
  781POPS   C4B11870   4.351   7.265   6.998 -0.0604 -0.2419  0.0549
  782POPS   CNO11871   9.361   2.617   5.767  0.1497 -0.1964  0.0535
  782POPS   PO411872   9.551   2.322   5.727  0.1176 -0.2883 -0.2864
  782POPS   GL111873   9.369   2.352   6.161 -0.2121 -0.0837  0.1673
  782POPS   GL211874   9.615   2.431   6.298 -0.1921 -0.3159 -0.0249
  782POPS   C1A11875   9.128   2.344   6.393  0.0289 -0.1555 -0.0690
  782POPS   D2A11876   8.942   2.565   6.699 -0.0329 -0.1718 -0.0230
  782POPS   C3A11877   9.202   2.738   7.084  0.3170  0.0949 -0.3795
  782POPS   C4A11878   9.348   3.059   7.240 -0.1836  0.1123  0.3678
  782POPS   C1B11879   9.913   2.332   6.611  0.0395 -0.0520 -0.3014
  782POPS   C2B11880  10.194   2.263   6.985 -0.0444 -0.1039  0.0213
  782POPS   C3B11881  10.224   2.302   7.451 -0.3569  0.3071  0.1609
  782POPS   C4B11882  10.320   2.055   7.768  0.6732  0.3595  0.2618
  783POPS   CNO11883  17.615  15.192   5.563  0.0651  0.0455  0.0744
  783POPS   PO411884  17.499  15.081   5.895 -0.3101 -0.2370  0.0327
  783POPS   GL111885  17.619  14.927   6.251  0.1812 -0.0873 -0.0805
  783POPS   GL211886  17.942  14.997   6.432  0.5399 -0.3201 -0.1026
  783POPS   C1A11887  17.556  14.794   6.703 -0.0212  0.2134  0.0009
  783POPS   D2A11888  17.347  14.757   7.044  0.1829  0.1265  0.1907
  783POPS   C3A11889  17.520  14.719   7.455  0.2243 -0.2850 -0.3172
  783POPS   C4A11890  17.755  14.888   7.874  0.1830  0.1781  0.0974
  783POPS   C1B11891  17.968  14.965   6.849  0.1915 -0.2851  0.0153
  783POPS   C2B11892  17.895  15.000   7.227  0.0244  0.3671  0.1041
  783POPS   C3B11893  18.021  15.163   7.553 -0.1103 -0.2422 -0.1215
  783POPS   C4B11894  18.005  15.308   7.966 -0.0551 -0.5185  0.1606
  784POPS   CNO11895   4.491   3.163   5.870 -0.3007 -0.3169  0.0995
  784POPS   PO411896   4.561   2.872   6.202  0.2045  0.1375  0.0941
  784POPS   GL111897   4.564   2.709   6.619  0.0149  0.0591 -0.3401
  784POPS   GL211898   4.551   3.035   6.680 -0.2478  0.0113 -0.0659
  784POPS   C1A11899   4.565   2.410   6.919  0.1069  0.1576 -0.1736
  784POPS   D2A11900   4.580   2.384   7.378 -0.0685  0.1039 -0.0997
  784POPS   C3A11901   4.668   1.993   7.634 -0.0624 -0.1075 -0.4099
  784POPS   C4A11902   4.627   1.648   7.904 -0.0379 -0.0979 -0.0061
  784POPS   C1B11903   4.776   2.864   7.110 -0.0683 -0.0926  0.2848
  784POPS   C2B11904   4.813   2.795   7.521 -0.2849  0.1014 -0.3687
  784POPS   C3B11905   4.936   2.922   7.952 -0.3294 -0.0273  0.1480
  784POPS   C4B11906   4.593   2.821   8.253  0.3221 -0.3040  0.5520
  785POPS   CNO11907  17.241   7.911   5.742 -0.3851  0.1935  0.1787
  785POPS   PO411908  17.671   7.829   5.771  0.4555  0.1099  0.0242
  785POPS   GL111909  17.778   7.810   6.250 -0.4371 -0.2622  0.2166
  785POPS   GL211910  17.479   7.637   6.231 -0.1836  0.1274 -0.3576
  785POPS   C1A11911  18.038   7.686   6.557  0.4187 -0.2704  0.2076
  785POPS   D2A11912  17.989   7.608   6.934  0.1394 -0.0763  0.0379
  785POPS   C3A11913  17.897   7.738   7.335  0.1892 -0.1153 -0.4283
  785POPS   C4A11914  17.501   7.957   7.387 -0.0161 -0.2582  0.0921
  785POPS   C1B11915  17.563   7.568   6.619 -0.1546  0.0661  0.0453
  785POPS   C2B11916  17.499   7.403   6.958 -0.3151  0.0888  0.1069
  785POPS   C3B11917  17.621   7.252   7.356  0.0433 -0.1069  0.0579
  785POPS   C4B11918  17.563   7.399   7.693 -0.1389 -0.3199 -0.0237
  786POPS   CNO11919   2.713   1.394   6.161 -0.0448 -0.0279 -0.1427
  786POPS   PO411920   2.597   1.055   6.115  0.1533  0.0031 -0.0911
  786POPS   GL111921   2.544   1.061   6.554 -0.0124  0.0306  0.1975
  786POPS   GL211922   2.813   1.055   6.621 -0.0811 -0.1850 -0.0163
  786POPS   C1A11923   2.463   1.363   6.846  0.2676  0.1191  0.0520
  786POPS   D2A11924   2.348   1.601   7.141  0.3402  0.5048  0.0130
  786POPS   C3A11925   2.048   1.620   7.357  0.1356  0.4135 -0.2085
  786POPS   C4A11926   1.687   1.619   7.703  0.1669 -0.3541 -0.1170
  786POPS   C1B11927   2.847   0.909   6.956 -0.2145  0.0202 -0.2341
  786POPS   C2B11928   3.049   1.050   7.401  0.1296  0.1451 -0.0650
  786POPS   C3B11929   3.162   1.298   7.768 -0.1340 -0.0791  0.1315
  786POPS   C4B11930   3.089   1.164   8.222  0.0472 -0.0555 -0.1550
  787POPS   CNO11931  16.790  17.372   6.357 -0.1342  0.1006 -0.0791
  787POPS   PO411932  16.497  17.218   6.307 -0.1913 -0.3164 -0.1917
  787POPS   GL111933  16.515  17.366   6.807  0.1955  0.2810 -0.0392
  787POPS   GL211934  16.812  17.489   6.875  0.0524  0.0585  0.1177
  787POPS   C1A11935  16.310  17.463   7.286 -0.0739  0.1248 -0.0609
  787POPS   D2A11936  16.428  17.458   7.628 -0.2752  0.2070  0.2420
  787POPS   C3A11937  16.526  17.333   8.047 -0.0302  0.2320 -0.0545
  787POPS   C4A11938  16.697  17.492   8.385 -0.0341  0.0926  0.0871
  787POPS   C1B11939  16.806  17.522   7.298  0.0295 -0.1088 -0.0973
  787POPS   C2B11940  16.982  17.321   7.563 -0.1501  0.3331  0.1436
  787POPS   C3B11941  17.105  17.171   7.959  0.3010  0.2089  0.1247
  787POPS   C4B11942  17.251  16.786   8.165  0.0154 -0.0090 -0.0170
  788POPS   CNO11943   0.203  16.358   6.020 -0.1557 -0.1123  0.0790
  788POPS   PO411944  -0.193  16.137   6.137  0.1052  0.0389  0.2053
  788POPS   GL111945  -0.183  16.462   6.565 -0.3352 -0.2062  0.1268
  788POPS   GL211946   0.032  16.423   6.742 -0.3902  0.0796  0.2323
  788POPS   C1A11947  -0.330  16.740   6.836 -0.3870 -0.1791  0.3329
  788POPS   D2A11948  -0.530  16.623   7.252 -0.2647 -0.0920 -0.1023
  788POPS   C3A11949  -0.450  16.298   7.588  0.3180  0.1850 -0.3972
  788POPS   C4A11950  -0.117  16.152   7.844  0.0924 -0.0592  0.0009
  788POPS   C1B11951  -0.143  16.265   7.072 -0.1499  0.0791  0.1097
  788POPS   C2B11952  -0.543  16.082   7.183  0.0831 -0.0944  0.1205
  788POPS   C3B11953  -0.883  15.852   7.334 -0.0092  0.0533  0.2461
  788POPS   C4B11954  -1.065  15.870   7.752 -0.2255  0.2601 -0.0700
  789POPS   CNO11955   4.155   8.326   6.118  0.2549  0.0239 -0.1677
  789POPS   PO411956   3.770   8.580   5.906  0.3394 -0.1757 -0.0171
  789POPS   GL111957   4.049   8.816   6.162 -0.0434  0.4836  0.2414
  789POPS   GL211958   4.162   9.177   6.197  0.0854  0.2721 -0.1903
  789POPS   C1A11959   4.030   8.745   6.667 -0.1385 -0.1829  0.0319
  789POPS   D2A11960   4.212   8.945   7.046 -0.0446 -0.1205  0.2589
  789POPS   C3A11961   4.474   9.170   7.167  0.2054  0.1664  0.6261
  789POPS   C4A11962   4.498   9.413   7.596 -0.0225  0.0935 -0.0597
  789POPS   C1B11963   4.135   9.261   6.720  0.0593 -0.1816  0.2416
  789POPS   C2B11964   4.003   9.401   7.039  0.1805 -0.1292  0.0160
  789POPS   C3B11965   3.989   9.471   7.478 -0.1259 -0.1190  0.6096
  789POPS   C4B11966   3.776   9.696   7.872 -0.0841  0.1347 -0.2622
  790POPS   CNO11967   5.385   2.897   5.780  0.0757 -0.1231 -0.0397
  790POPS   PO411968   5.702   3.264   5.840  0.2497  0.4604  0.2542
  790POPS   GL111969   5.774   3.112   6.268 -0.0959  0.1330 -0.0921
  790POPS   GL211970   5.450   3.200   6.302  0.2847 -0.0700 -0.0574
  790POPS   C1A11971   5.848   2.807   6.522  0.4836  0.2320  0.1174
  790POPS   D2A11972   5.672   2.392   6.652  0.0325  0.1282 -0.1997
  790POPS   C3A11973   5.248   2.571   6.776 -0.0898  0.0619  0.2465
  790POPS   C4A11974   5.045   2.941   6.658  0.2418  0.2137 -0.1954
  790POPS   C1B11975   5.743   3.330   6.722 -0.3061  0.2217 -0.1575
  790POPS   C2B11976   5.650   3.390   7.202 -0.0885 -0.1769  0.2965
  790POPS   C3B11977   5.262   3.492   7.451 -0.0046 -0.0349 -0.0047
  790POPS   C4B11978   4.891   3.803   7.575  0.2515 -0.1376 -0.1632
  791POPS   CNO11979   7.571   8.173   5.626  0.1901  0.0569  0.1030
  791POPS   PO411980   7.213   8.360   5.709  0.1106  0.0845  0.0464
  791POPS   GL111981   7.318   8.384   6.059 -0.3283 -0.2181 -0.1364
  791POPS   GL211982   7.119   8.171   6.361  0.0576  0.0564 -0.2884
  791POPS   C1A11983   7.609   8.222   6.377 -0.4231 -0.2781 -0.4021
  791POPS   D2A11984   7.459   8.101   6.834 -0.3167  0.1003  0.0604
  791POPS   C3A11985   7.550   8.147   7.254 -0.0257  0.0933  0.0678
  791POPS   C4A11986   7.821   8.064   7.592 -0.5735  0.0555 -0.1139
  791POPS   C1B11987   7.281   8.541   6.623  0.1121  0.1731  0.3030
  791POPS   C2B11988   7.619   8.571   6.985 -0.5197 -0.1421 -0.2361
  791POPS   C3B11989   7.980   8.437   7.303 -0.1714  0.0269 -0.1363
  791POPS   C4B11990   8.026   8.531   7.684 -0.1245 -0.2478 -0.0108
  792POPS   CNO11991  10.777   6.795   5.242 -0.2058  0.0577  0.0641
  792POPS   PO411992  10.630   7.129   4.958 -0.1500 -0.3108  0.1415
  792POPS   GL111993  10.625   7.222   5.391  0.1148 -0.0569 -0.1990
  792POPS   GL211994  10.806   7.512   5.379  0.1601  0.1458 -0.4190
  792POPS   C1A11995  10.315   7.235   5.744 -0.2978 -0.0399  0.2290
  792POPS   D2A11996  10.200   7.235   6.159  0.3308 -0.1489 -0.4064
  792POPS   C3A11997  10.086   6.889   6.384  0.2153  0.0264 -0.0866
  792POPS   C4A11998   9.949   6.464   6.596  0.0693 -0.1169  0.2415
  792POPS   C1B11999  11.005   7.585   5.647  0.0885 -0.0431  0.0834
  792POPS   C2B12000  11.363   7.448   6.008  0.0051  0.0088 -0.1291
  792POPS   C3B12001  11.512   7.684   6.421  0.0770  0.1278 -0.0907
  792POPS   C4B12002  11.870   7.727   6.777 -0.0205 -0.0171  0.0030
  793POPS   CNO12003   6.682  14.102   6.408 -0.0723 -0.2372  0.1996
  793POPS   PO412004   6.183  14.081   6.401 -0.0686 -0.0911  0.0730
  793POPS   GL112005   6.014  13.607   6.622  0.0280 -0.1530 -0.1692
  793POPS   GL212006   5.771  13.595   6.458 -0.3445  0.0419 -0.3010
  793POPS   C1A12007   5.925  13.557   7.003 -0.1382 -0.3272  0.2301
  793POPS   D2A12008   5.875  13.514   7.469  0.0710  0.1273 -0.3211
  793POPS   C3A12009   5.561  13.666   7.726  0.0623 -0.0144 -0.0509
  793POPS   C4A12010   5.380  14.007   7.878  0.0633 -0.1116 -0.0463
  793POPS   C1B12011   5.792  13.204   6.722  0.1437 -0.1217 -0.0933
  793POPS   C2B12012   5.914  13.108   7.163  0.0044  0.1328 -0.0739
  793POPS   C3B12013   5.981  13.017   7.616  0.0000  0.2647  0.2621
  793POPS   C4B12014   6.201  13.149   7.984  0.1629  0.4885 -0.0446
  794POPS   CNO12015  16.903   2.911   5.944 -0.0026 -0.0642 -0.2971
  794POPS   PO412016  16.535   3.119   5.741 -0.1344 -0.0291  0.0802
  794POPS   GL112017  16.414   3.407   6.105  0.2645 -0.0048  0.0645
  794POPS   GL212018  16.520   3.719   6.031  0.0389 -0.0823  0.0449
  794POPS   C1A12019  16.562   3.598   6.500  0.2642  0.0407 -0.0131
  794POPS   D2A12020  16.676   3.538   6.888  0.5030 -0.1765  0.2104
  794POPS   C3A12021  17.091   3.615   6.958  0.3614 -0.3125  0.1535
  794POPS   C4A12022  17.438   3.845   6.955  0.1506 -0.0447 -0.0701
  794POPS   C1B12023  16.877   3.856   6.154 -0.2398  0.2755  0.2121
  794POPS   C2B12024  17.175   3.844   6.468  0.1219  0.0001 -0.0201
  794POPS   C3B12025  17.554   3.966   6.426 -0.2034  0.3229 -0.0644
  794POPS   C4B12026  17.857   3.846   6.629 -0.0987  0.4192  0.0608
  795POPS   CNO12027   4.213  17.808   5.976  0.0216 -0.1187 -0.2308
  795POPS   PO412028   4.487  18.128   6.063 -0.0057  0.0316  0.2132
  795POPS   GL112029   4.799  18.075   6.474 -0.0669  0.0923  0.1431
  795POPS   GL212030   4.779  18.295   6.741  0.1660 -0.0864 -0.0929
  795POPS   C1A12031   4.976  17.727   6.684  0.0203 -0.1166  0.1440
  795POPS   D2A12032   5.008  17.656   7.128 -0.3270 -0.1892 -0.0487
  795POPS   C3A12033   4.893  17.384   7.539 -0.1588 -0.1386 -0.3800
  795POPS   C4A12034   5.086  17.244   7.860  0.3031  0.0336 -0.1266
  795POPS   C1B12035   4.983  18.291   7.088 -0.0459 -0.0563  0.0089
  795POPS   C2B12036   4.921  18.253   7.543 -0.1824 -0.3000 -0.0660
  795POPS   C3B12037   4.652  18.268   7.868 -0.1519  0.0790  0.0959
  795POPS   C4B12038   4.530  17.943   8.198 -0.2448 -0.3161 -0.0894
  796POPS   CNO12039  14.565   6.150   5.491 -0.0974  0.2750  0.0118
  796POPS   PO412040  15.008   5.941   5.343  0.0883  0.1251  0.2807
  796POPS   GL112041  14.895   5.679   5.636  0.3502  0.1753 -0.1830
  796POPS   GL212042  14.449   5.638   5.777 -0.1378 -0.4436 -0.1589
  796POPS   C1A12043  15.148   5.536   6.077 -0.1875 -0.0100  0.0034
  796POPS   D2A12044  15.227   5.259   6.463  0.2733  0.1175 -0.2786
  796POPS   C3A12045  14.942   5.229   6.728 -0.0852 -0.0493  0.0159
  796POPS   C4A12046  14.776   5.379   7.000 -0.2975 -0.1881 -0.2796
  796POPS   C1B12047  14.219   5.772   6.168  0.0451 -0.2725 -0.4326
  796POPS   C2B12048  14.065   6.174   6.287  0.0458 -0.2196  0.4139
  796POPS   C3B12049  13.846   6.442   6.097 -0.2267 -0.4092  0.3312
  796POPS   C4B12050  13.643   6.806   5.972 -0.2072 -0.0881  0.0110
  797POPS   CNO12051   9.961  17.297   5.594 -0.0501 -0.1382  0.1136
  797POPS   PO412052  10.060  17.174   5.986 -0.1837 -0.2259 -0.2897
  797POPS   GL112053  10.153  17.363   6.344  0.0441 -0.0619 -0.0981
  797POPS   GL212054  10.445  17.495   6.454 -0.2912 -0.0499  0.2012
  797POPS   C1A12055   9.947  17.555   6.801  0.0345 -0.1579 -0.0199
  797POPS   D2A12056   9.801  17.935   6.957 -0.2465  0.1508  0.1799
  797POPS   C3A12057  10.056  18.048   7.237  0.2420 -0.0987 -0.0596
  797POPS   C4A12058  10.162  17.961   7.642  0.2451  0.0961 -0.0646
  797POPS   C1B12059  10.421  17.228   6.772 -0.0790  0.2324 -0.0026
  797POPS   C2B12060  10.334  17.041   7.207  0.0448  0.1239 -0.0588
  797POPS   C3B12061  10.397  17.180   7.657  0.1235 -0.0410 -0.0022
  797POPS   C4B12062  10.596  17.207   8.107 -0.0926 -0.2348  0.0617
  798POPS   CNO12063  15.320  11.502   5.734 -0.1757  0.0954 -0.3063
  798POPS   PO412064  15.210  11.253   5.422 -0.1863  0.0358 -0.0746
  798POPS   GL112065  14.903  11.089   5.817 -0.2116  0.1645 -0.0449
  798POPS   GL212066  14.665  10.773   5.957  0.2094  0.1725 -0.0416
  798POPS   C1A12067  15.208  11.101   6.123  0.0074 -0.2192  0.2953
  798POPS   D2A12068  15.187  11.419   6.524  0.3044 -0.3117 -0.3264
  798POPS   C3A12069  15.262  11.297   6.984  0.0681 -0.2102 -0.1179
  798POPS   C4A12070  15.062  11.249   7.399  0.1059  0.2748  0.0362
  798POPS   C1B12071  14.994  10.655   6.313 -0.0937 -0.1544  0.2255
  798POPS   C2B12072  15.078  10.565   6.736 -0.1898  0.4080 -0.0886
  798POPS   C3B12073  15.316  10.339   7.062 -0.1398 -0.0021  0.2622
  798POPS   C4B12074  15.353   9.929   7.162  0.2131  0.0239  0.1104
  799POPS   CNO12075  13.284  17.478   6.259 -0.1490  0.0116  0.0783
  799POPS   PO412076  13.198  17.033   6.188  0.0056 -0.0423 -0.0953
  799POPS   GL112077  13.139  16.908   6.557 -0.3158  0.1491 -0.0122
  799POPS   GL212078  13.305  17.093   6.673 -0.0287 -0.0948 -0.0135
  799POPS   C1A12079  12.971  16.898   6.915  0.2225  0.1364  0.0694
  799POPS   D2A12080  12.965  17.238   7.134  0.0357 -0.0246  0.1653
  799POPS   C3A12081  12.764  17.240   7.544  0.2635 -0.0496  0.0346
  799POPS   C4A12082  12.881  16.979   7.924  0.0225  0.2020 -0.0707
  799POPS   C1B12083  13.442  16.981   7.102 -0.0126 -0.4305  0.1181
  799POPS   C2B12084  13.808  16.972   7.419  0.1506 -0.2360  0.2847
  799POPS   C3B12085  14.306  17.082   7.491 -0.1316  0.1843  0.0943
  799POPS   C4B12086  14.753  16.934   7.705 -0.1090  0.0825  0.0509
  800POPS   CNO12087  14.233   6.067   5.107  0.2179 -0.1637  0.1233
  800POPS   PO412088  13.743   6.082   5.172 -0.1463  0.1558  0.0888
  800POPS   GL112089  13.550   6.060   5.597 -0.3759  0.4147 -0.0747
  800POPS   GL212090  13.416   6.331   5.712  0.0938 -0.2560  0.2211
  800POPS   C1A12091  13.285   5.894   5.959 -0.1023 -0.0385 -0.1322
  800POPS   D2A12092  12.885   5.729   6.055 -0.0223 -0.3436  0.0185
  800POPS   C3A12093  12.869   5.359   6.254 -0.0882  0.1789 -0.1866
  800POPS   C4A12094  12.831   4.976   6.562  0.3113  0.2369 -0.0056
  800POPS   C1B12095  13.375   6.384   6.153  0.2829  0.2090 -0.1651
  800POPS   C2B12096  13.577   6.548   6.491  0.2413  0.1381 -0.2183
  800POPS   C3B12097  13.518   6.542   6.917 -0.1244  0.1315  0.1321
  800POPS   C4B12098  13.389   6.653   7.311  0.1723  0.2379  0.1043
  801POPS   CNO12099  13.755  16.226   5.882 -0.0642 -0.3011 -0.1834
  801POPS   PO412100  14.150  16.254   5.867 -0.1818  0.3843 -0.2201
  801POPS   GL112101  14.322  16.191   6.319  0.2008  0.0280 -0.0338
  801POPS   GL212102  14.184  16.057   6.500 -0.1889  0.1890  0.0290
  801POPS   C1A12103  14.553  16.276   6.725 -0.1905  0.0760  0.0511
  801POPS   D2A12104  14.882  16.530   6.875 -0.2912  0.2445  0.1783
  801POPS   C3A12105  14.741  16.967   7.049 -0.0605  0.0644  0.3327
  801POPS   C4A12106  14.857  17.319   7.413 -0.0190  0.0926  0.2421
  801POPS   C1B12107  14.083  16.217   6.977  0.0798  0.0584  0.2518
  801POPS   C2B12108  14.373  16.147   7.222 -0.0012 -0.1439 -0.1347
  801POPS   C3B12109  14.695  16.488   7.375  0.0803  0.0024  0.0904
  801POPS   C4B12110  15.048  16.728   7.319 -0.2841  0.1208  0.0906
  802POPS   CNO12111  10.766  12.014   5.319 -0.1615  0.0276  0.0025
  802POPS   PO412112  11.011  12.117   5.745  0.1535  0.1408 -0.0210
  802POPS   GL112113  10.681  12.074   6.039 -0.0826 -0.2873  0.1019
  802POPS   GL212114  10.437  12.239   6.197 -0.0444  0.4132  0.1976
  802POPS   C1A12115  10.478  11.814   6.271  0.2729  0.1037  0.1067
  802POPS   D2A12116  10.223  11.636   6.662  0.0432 -0.0708 -0.3250
  802POPS   C3A12117  10.345  11.886   7.074  0.1326  0.1244 -0.0124
  802POPS   C4A12118  10.394  12.068   7.467 -0.0262 -0.1670 -0.1394
  802POPS   C1B12119  10.447  12.238   6.648  0.0425 -0.3598  0.2519
  802POPS   C2B12120  10.636  12.339   7.020 -0.1661 -0.0485  0.0978
  802POPS   C3B12121  10.858  12.323   7.381 -0.0524 -0.2434 -0.1311
  802POPS   C4B12122  10.956  12.432   7.858  0.1026  0.2408  0.2577
  803POPS   CNO12123  17.579  11.709   5.320  0.2234  0.0508  0.1584
  803POPS   PO412124  17.295  12.102   5.219  0.0913  0.1392 -0.3249
  803POPS   GL112125  17.358  11.978   5.769 -0.2539  0.1561  0.1129
  803POPS   GL212126  17.583  11.747   5.804  0.0844  0.1878 -0.1986
  803POPS   C1A12127  17.120  12.025   6.135 -0.1239  0.0791  0.0300
  803POPS   D2A12128  16.739  11.943   6.313 -0.1276  0.0643 -0.1326
  803POPS   C3A12129  16.347  12.121   6.299 -0.1597  0.0097 -0.3397
  803POPS   C4A12130  15.907  12.068   6.354  0.3398  0.0271 -0.1359
  803POPS   C1B12131  17.605  11.536   6.217  0.0091  0.2202 -0.0353
  803POPS   C2B12132  17.478  11.370   6.658 -0.0377  0.1467  0.1233
  803POPS   C3B12133  17.514  11.359   7.037 -0.0698 -0.0643 -0.0532
  803POPS   C4B12134  17.621  10.971   7.327 -0.0711 -0.0127  0.1199
  804POPS   CNO12135   8.855  14.397   5.800  0.0014 -0.1804  0.0119
  804POPS   PO412136   9.113  14.443   6.196 -0.0223  0.0741  0.0630
  804POPS   GL112137   8.947  14.226   6.558 -0.0444  0.0414  0.0806
  804POPS   GL212138   8.847  13.889   6.493  0.2314 -0.1806  0.0281
  804POPS   C1A12139   8.743  14.249   6.949  0.1311  0.1483 -0.0007
  804POPS   D2A12140   8.771  14.298   7.348  0.2902  0.0291 -0.0596
  804POPS   C3A12141   8.980  14.639   7.517  0.0098 -0.1161  0.1481
  804POPS   C4A12142   9.288  14.945   7.525 -0.1725 -0.2959 -0.2168
  804POPS   C1B12143   9.013  13.801   6.978 -0.1510 -0.0888 -0.2677
  804POPS   C2B12144   9.145  13.847   7.434 -0.0316 -0.2140 -0.0212
  804POPS   C3B12145   9.139  14.192   7.768  0.0473 -0.3604 -0.0349
  804POPS   C4B12146   8.739  14.405   7.877 -0.0102  0.3198 -0.4892
  805POPS   CNO12147  15.586  13.652   5.270 -0.3471  0.0205  0.0295
  805POPS   PO412148  15.638  13.797   5.732  0.2106  0.1230  0.2117
  805POPS   GL112149  15.572  13.843   6.121 -0.0102  0.0808  0.0258
  805POPS   GL212150  15.487  13.622   6.274 -0.3888 -0.0060 -0.5098
  805POPS   C1A12151  15.705  14.122   6.421  0.0665  0.3927  0.1181
  805POPS   D2A12152  15.947  14.237   6.802  0.1297 -0.0036 -0.1517
  805POPS   C3A12153  16.090  14.100   7.244 -0.3552 -0.0477 -0.0598
  805POPS   C4A12154  16.480  14.109   7.326 -0.3179  0.1510 -0.0250
  805POPS   C1B12155  15.700  13.377   6.501 -0.3786 -0.0331 -0.4417
  805POPS   C2B12156  15.829  13.048   6.766  0.1541  0.0442  0.0747
  805POPS   C3B12157  15.887  12.659   7.163  0.1329  0.0329  0.0235
  805POPS   C4B12158  16.051  12.331   7.338 -0.1525 -0.0799  0.1474
  806POPS   CNO12159   7.884  12.051   5.498 -0.1425  0.1562  0.1080
  806POPS   PO412160   7.808  12.381   5.784  0.2015  0.1746 -0.2593
  806POPS   GL112161   7.672  12.491   6.205  0.2501 -0.1099 -0.0423
  806POPS   GL212162   7.833  12.512   6.472 -0.0219 -0.0556 -0.0813
  806POPS   C1A12163   7.546  12.153   6.565  0.3286  0.0761 -0.2938
  806POPS   D2A12164   7.441  11.760   6.812 -0.1079  0.1748  0.2730
  806POPS   C3A12165   7.323  11.651   7.242 -0.2148 -0.4685  0.0665
  806POPS   C4A12166   7.165  11.502   7.707  0.2365 -0.2494 -0.1283
  806POPS   C1B12167   7.672  12.540   6.828 -0.1028 -0.0268 -0.3006
  806POPS   C2B12168   7.679  12.589   7.201 -0.0051  0.4375 -0.0232
  806POPS   C3B12169   7.791  12.466   7.583 -0.0681 -0.0892 -0.0121
  806POPS   C4B12170   8.117  12.406   7.954 -0.0425 -0.0734 -0.0107
  807POPS   CNO12171   0.335   9.029   5.392 -0.1684 -0.1251  0.1849
  807POPS   PO412172   0.475   9.190   5.724 -0.1710 -0.0257 -0.3485
  807POPS   GL112173   0.328   9.329   6.199  0.2344 -0.1767  0.1206
  807POPS   GL212174   0.242   9.146   6.360 -0.0532  0.4400  0.1766
  807POPS   C1A12175   0.510   9.484   6.545 -0.0318 -0.1166  0.0886
  807POPS   D2A12176   0.953   9.465   6.674 -0.0329  0.1839  0.0075
  807POPS   C3A12177   1.315   9.634   6.802 -0.2533  0.1535  0.1266
  807POPS   C4A12178   1.456   9.922   7.122 -0.5198 -0.2202  0.0499
  807POPS   C1B12179   0.075   9.034   6.649 -0.0592 -0.0541  0.0526
  807POPS   C2B12180  -0.303   8.794   6.679 -0.1479  0.0522 -0.1932
  807POPS   C3B12181  -0.710   8.588   6.773  0.1689  0.2019  0.1462
  807POPS   C4B12182  -1.063   8.329   6.943 -0.2759 -0.0859 -0.1024
  808POPS   CNO12183  12.318   1.347   5.423  0.0277 -0.3057 -0.0199
  808POPS   PO412184  12.050   1.458   5.655 -0.0247 -0.0103  0.1188
  808POPS   GL112185  12.262   1.377   5.977 -0.1872 -0.0084 -0.0895
  808POPS   GL212186  12.326   1.106   6.104  0.0406  0.1074  0.0181
  808POPS   C1A12187  12.459   1.544   6.322 -0.3671  0.3176  0.1196
  808POPS   D2A12188  12.534   1.737   6.634 -0.3494 -0.0150 -0.1098
  808POPS   C3A12189  12.352   2.079   6.871  0.0064 -0.1796 -0.0686
  808POPS   C4A12190  12.467   2.423   6.928  0.0642  0.0051  0.0956
  808POPS   C1B12191  12.735   1.191   6.469 -0.1191  0.0149  0.1159
  808POPS   C2B12192  12.837   1.441   6.814 -0.0059  0.0053 -0.2145
  808POPS   C3B12193  12.518   1.556   7.088 -0.0350 -0.3575 -0.3133
  808POPS   C4B12194  12.368   1.746   7.493 -0.1235 -0.3063  0.0538
  809POPS   CNO12195   4.617   8.324   5.814  0.0083  0.2929 -0.1009
  809POPS   PO412196   5.059   8.454   5.705  0.2278  0.0181 -0.0782
  809POPS   GL112197   5.041   8.261   6.088  0.1094  0.2300 -0.2130
  809POPS   GL212198   4.968   8.582   6.241  0.0963 -0.0652  0.1395
  809POPS   C1A12199   5.319   8.289   6.459  0.0588  0.0115  0.2260
  809POPS   D2A12200   5.503   8.094   6.726 -0.2335  0.3477 -0.0130
  809POPS   C3A12201   5.610   8.052   7.109  0.1100  0.1135  0.1411
  809POPS   C4A12202   5.702   7.982   7.636 -0.2457 -0.3995 -0.0502
  809POPS   C1B12203   5.081   8.721   6.585 -0.1096 -0.0026 -0.3369
  809POPS   C2B12204   5.160   8.435   7.004 -0.1916  0.1846 -0.0460
  809POPS   C3B12205   5.120   8.345   7.308  0.1725  0.1210 -0.1440
  809POPS   C4B12206   5.138   8.213   7.722 -0.0096  0.1244 -0.0563
  810POPS   CNO12207   0.481  16.755   6.026 -0.2426 -0.0155 -0.0756
  810POPS   PO412208   0.546  17.063   6.232  0.0219 -0.3264 -0.1322
  810POPS   GL112209   0.503  17.014   6.689 -0.0541  0.0022  0.0299
  810POPS   GL212210   0.168  16.900   6.753 -0.5022  0.2622  0.2526
  810POPS   C1A12211   0.455  17.038   7.134  0.2736 -0.0102  0.2538
  810POPS   D2A12212   0.301  17.007   7.576 -0.1844 -0.1944 -0.3218
  810POPS   C3A12213   0.192  16.902   7.951  0.1866 -0.0490  0.1875
  810POPS   C4A12214   0.424  16.719   8.375 -0.0118 -0.0675  0.0784
  810POPS   C1B12215   0.005  16.905   7.222 -0.0537  0.3391 -0.2785
  810POPS   C2B12216  -0.106  16.614   7.600 -0.1037 -0.2294  0.0121
  810POPS   C3B12217  -0.274  16.659   8.039 -0.1419 -0.1678 -0.1225
  810POPS   C4B12218  -0.642  16.702   8.235 -0.4121 -0.4210  0.1464
  811YOPS   CNO12219   6.247   7.635   5.153  0.1384 -0.2818  0.3287
  811YOPS   PO412220   6.212   7.470   5.496 -0.2253  0.2357 -0.0167
  811YOPS   GL112221   6.303   7.560   5.922  0.1118 -0.0493  0.3320
  811YOPS   GL212222   6.169   7.448   6.211 -0.1154  0.0155  0.1787
  811YOPS   C1A12223   6.323   7.900   6.280 -0.2494 -0.2745  0.1112
  811YOPS   D2A12224   6.474   8.097   6.624 -0.1321  0.1378  0.0935
  811YOPS   C3A12225   6.435   8.222   7.041  0.0936 -0.0144 -0.3271
  811YOPS   C4A12226   6.796   8.156   7.291 -0.3762  0.0615 -0.0092
  811YOPS   C1B12227   6.207   7.637   6.641  0.2513  0.1081 -0.0009
  811YOPS   C2B12228   6.508   7.652   6.882 -0.0433  0.3594 -0.0032
  811YOPS   D3B12229   6.518   7.601   7.325 -0.1169 -0.1125 -0.0197
  811YOPS   C4B12230   6.223   7.212   7.308 -0.2338  0.0972  0.0301
  812YOPS   CNO12231  13.562   0.479   6.007  0.3124  0.1014  0.0274
  812YOPS   PO412232  13.184   0.537   5.963 -0.1275 -0.1611  0.1716
  812YOPS   GL112233  13.332   0.850   6.345 -0.3782  0.0348 -0.2233
  812YOPS   GL212234  13.543   0.958   6.231 -0.1236 -0.1772 -0.2238
  812YOPS   C1A12235  13.330   1.118   6.669  0.0209 -0.0320 -0.0457
  812YOPS   D2A12236  13.312   1.483   6.925 -0.0261  0.3078 -0.0471
  812YOPS   C3A12237  13.526   1.784   7.169 -0.0984 -0.1170 -0.0332
  812YOPS   C4A12238  13.260   2.079   7.198  0.1530  0.1160 -0.0620
  812YOPS   C1B12239  13.749   0.908   6.633 -0.0030  0.0692 -0.1387
  812YOPS   C2B12240  13.754   1.046   6.964 -0.2304  0.1617  0.2955
  812YOPS   D3B12241  13.558   0.946   7.263  0.0683  0.1917 -0.2502
  812YOPS   C4B12242  13.348   1.275   7.473  0.1038 -0.2235 -0.1583
  813YOPS   CNO12243  12.680  10.082   5.757 -0.1290 -0.1017  0.1569
  813YOPS   PO412244  12.569  10.467   5.739 -0.1633  0.1734 -0.2533
  813YOPS   GL112245  12.559  10.470   6.198  0.2745 -0.0936  0.5121
  813YOPS   GL212246  12.466  10.141   6.245  0.2045 -0.0161  0.1317
  813YOPS   C1A12247  12.557  10.579   6.605  0.0850 -0.0862 -0.0313
  813YOPS   D2A12248  12.341  10.519   6.918  0.0176  0.0258 -0.3299
  813YOPS   C3A12249  11.903  10.564   6.979  0.1856 -0.1923  0.3067
  813YOPS   C4A12250  11.625  10.747   7.167  0.1401 -0.3922  0.0947
  813YOPS   C1B12251  12.135  10.197   6.569 -0.1548 -0.1819  0.2348
  813YOPS   C2B12252  12.101  10.120   6.997  0.0786  0.2177 -0.1514
  813YOPS   D3B12253  12.105  10.008   7.490  0.0488  0.0167  0.0354
  813YOPS   C4B12254  12.248   9.577   7.659 -0.0393  0.0934  0.0155
  814YOPS   CNO12255  15.021   2.082   5.349  0.1352  0.0809  0.0590
  814YOPS   PO412256  15.044   2.094   5.811 -0.4284  0.1306  0.2238
  814YOPS   GL112257  15.037   2.200   6.259  0.2760 -0.1008  0.0543
  814YOPS   GL212258  15.189   2.283   6.486 -0.0441 -0.4005 -0.1791
  814YOPS   C1A12259  15.013   1.881   6.615  0.0550  0.0998  0.1980
  814YOPS   D2A12260  15.067   1.766   7.030 -0.4431  0.1748 -0.2624
  814YOPS   C3A12261  15.352   1.618   7.252  0.1767 -0.3435  0.0365
  814YOPS   C4A12262  15.417   1.562   7.655 -0.0459  0.0390 -0.1321
  814YOPS   C1B12263  15.415   2.536   6.771  0.6554 -0.0937  0.3352
  814YOPS   C2B12264  15.616   2.549   7.099  0.0888  0.1206 -0.0742
  814YOPS   D3B12265  15.881   2.614   7.415  0.0599  0.2732 -0.1817
  814YOPS   C4B12266  15.944   2.855   7.656  0.1267 -0.0275  0.0902
  815YOPS   CNO12267  13.636  14.541   6.096 -0.2790  0.3499 -0.0417
  815YOPS   PO412268  13.959  14.438   6.278  0.0996  0.1388  0.0593
  815YOPS   GL112269  13.590  14.396   6.655 -0.3738  0.2765  0.5098
  815YOPS   GL212270  13.267  14.473   6.629 -0.2441  0.1954  0.0656
  815YOPS   C1A12271  13.386  14.246   7.061 -0.1708 -0.0132  0.1071
  815YOPS   D2A12272  13.572  14.106   7.430  0.2201 -0.1618 -0.1517
  815YOPS   C3A12273  13.412  14.155   7.955 -0.0897 -0.0715  0.2560
  815YOPS   C4A12274  12.977  14.035   8.085  0.1405 -0.0777  0.2690
  815YOPS   C1B12275  13.320  14.787   6.940 -0.1780  0.0630 -0.3062
  815YOPS   C2B12276  13.148  14.748   7.343  0.1558  0.2109 -0.0373
  815YOPS   D3B12277  13.037  14.513   7.672 -0.2303  0.0924  0.2170
  815YOPS   C4B12278  12.663  14.302   7.852  0.0625  0.0854 -0.2331
  816YOPS   CNO12279  14.069  15.388   5.773  0.3343 -0.0899  0.0425
  816YOPS   PO412280  13.702  15.536   5.956  0.0616 -0.3816 -0.2651
  816YOPS   GL112281  13.862  15.535   6.345  0.2837 -0.0250  0.3831
  816YOPS   GL212282  13.712  15.392   6.643  0.1010  0.0093 -0.0510
  816YOPS   C1A12283  14.166  15.577   6.689 -0.2499  0.0632 -0.0432
  816YOPS   D2A12284  14.195  15.683   7.128 -0.0363 -0.0612  0.0727
  816YOPS   C3A12285  14.185  15.791   7.567  0.0732 -0.0854 -0.0148
  816YOPS   C4A12286  13.940  16.062   7.498 -0.2414  0.0432  0.2659
  816YOPS   C1B12287  13.766  15.385   7.040 -0.0795 -0.2095 -0.1176
  816YOPS   C2B12288  13.833  15.432   7.480  0.1104  0.0041  0.0073
  816YOPS   D3B12289  13.939  15.547   8.048 -0.0371  0.1426  0.3578
  816YOPS   C4B12290  13.612  15.256   8.254 -0.0372 -0.0458  0.0461
  817YOPS   CNO12291  17.615   0.368   5.583 -0.1904  0.1430  0.0162
  817YOPS   PO412292  17.954   0.405   5.891  0.0872 -0.0481 -0.0494
  817YOPS   GL112293  18.062   0.223   6.348 -0.2507  0.5265 -0.1654
  817YOPS   GL212294  18.405   0.284   6.287  0.0119  0.0725 -0.1039
  817YOPS   C1A12295  18.025  -0.025   6.775  0.0595  0.0142 -0.2034
  817YOPS   D2A12296  18.057  -0.095   7.155  0.2545 -0.0175 -0.4656
  817YOPS   C3A12297  18.201   0.060   7.593  0.0124  0.0212 -0.1047
  817YOPS   C4A12298  18.508   0.360   7.519  0.2385  0.2869 -0.0617
  817YOPS   C1B12299  18.226   0.682   6.630  0.1176  0.1124  0.0689
  817YOPS   C2B12300  18.073   0.944   6.958 -0.4169 -0.0234  0.2250
  817YOPS   D3B12301  17.890   1.003   7.386  0.0320  0.0589  0.4148
  817YOPS   C4B12302  17.493   0.766   7.444  0.1188  0.1786  0.0372
  818YOPS   CNO12303   9.018  17.228   5.934  0.0417 -0.0615  0.0620
  818YOPS   PO412304   8.832  16.921   6.256  0.1728  0.1799  0.1303
  818YOPS   GL112305   8.931  16.830   6.719  0.0762  0.1654 -0.0655
  818YOPS   GL212306   9.182  16.674   6.811 -0.0894 -0.0350  0.1030
  818YOPS   C1A12307   8.789  17.061   7.111  0.2484  0.1250  0.0161
  818YOPS   D2A12308   8.572  16.959   7.496  0.0827 -0.0503  0.1104
  818YOPS   C3A12309   8.222  16.612   7.798 -0.3012 -0.1812 -0.1016
  818YOPS   C4A12310   8.185  16.173   7.706  0.0423  0.0533 -0.0149
  818YOPS   C1B12311   9.036  16.574   7.202 -0.1969 -0.2110 -0.0363
  818YOPS   C2B12312   8.771  16.504   7.451  0.0404 -0.0860 -0.0726
  818YOPS   D3B12313   8.810  16.640   7.867  0.0590 -0.0246  0.0622
  818YOPS   C4B12314   8.580  16.411   8.084 -0.0063  0.2370 -0.0923
  819YOPS   CNO12315  10.047  13.487   5.759  0.0866  0.0700  0.0821
  819YOPS   PO412316   9.627  13.718   5.924 -0.1958 -0.1039 -0.1124
  819YOPS   GL112317   9.495  13.547   6.341 -0.0338  0.1972 -0.1438
  819YOPS   GL212318   9.362  13.798   6.584  0.3619  0.1337  0.0688
  819YOPS   C1A12319   9.802  13.486   6.788 -0.0030  0.0478  0.1045
  819YOPS   D2A12320   9.783  13.726   7.200 -0.0388  0.0413  0.0408
  819YOPS   C3A12321   9.690  13.932   7.529  0.1818 -0.0231  0.1546
  819YOPS   C4A12322   9.845  13.554   7.856 -0.1092 -0.0540 -0.1278
  819YOPS   C1B12323   9.400  14.071   6.848  0.1143 -0.3309 -0.2560
  819YOPS   C2B12324   9.701  14.279   7.098  0.2309  0.2113 -0.1456
  819YOPS   D3B12325   9.942  14.550   7.312 -0.0316  0.2355 -0.1328
  819YOPS   C4B12326  10.255  14.577   7.474 -0.0703  0.3365 -0.0646
  820YOPS   CNO12327   5.977   7.042   5.232  0.0967 -0.1204 -0.3058
  820YOPS   PO412328   6.240   6.733   5.499  0.0463  0.0816 -0.1694
  820YOPS   GL112329   6.295   6.701   5.987 -0.1541 -0.3928  0.0361
  820YOPS   GL212330   6.127   6.941   6.152 -0.1194  0.0197 -0.0198
  820YOPS   C1A12331   6.427   6.645   6.459  0.1318 -0.2108 -0.0873
  820YOPS   D2A12332   6.377   6.621   6.890 -0.0591 -0.2412  0.1183
  820YOPS   C3A12333   6.491   6.735   7.278 -0.2302  0.2796 -0.1847
  820YOPS   C4A12334   6.400   6.709   7.665  0.0484  0.2213  0.2309
  820YOPS   C1B12335   6.070   7.015   6.597 -0.0126 -0.4063  0.1198
  820YOPS   C2B12336   5.965   6.887   7.041  0.1306 -0.3221  0.3609
  820YOPS   D3B12337   5.821   6.989   7.531  0.1694  0.4223  0.0572
  820YOPS   C4B12338   5.548   6.586   7.601  0.0288  0.0767 -0.1285
  821YOPS   CNO12339   7.358  15.647   5.914 -0.2351 -0.1468  0.0191
  821YOPS   PO412340   7.452  15.390   6.237  0.1709  0.0582 -0.0526
  821YOPS   GL112341   7.286  15.760   6.483  0.1883  0.3884  0.0730
  821YOPS   GL212342   7.573  16.014   6.606  0.2146  0.0516 -0.2799
  821YOPS   C1A12343   7.271  15.682   6.898 -0.6156 -0.4605  0.1247
  821YOPS   D2A12344   7.464  15.778   7.299 -0.0611 -0.0023 -0.2014
  821YOPS   C3A12345   7.552  15.591   7.714  0.1663  0.0199  0.0543
  821YOPS   C4A12346   7.957  15.684   7.870 -0.1415  0.0850  0.2302
  821YOPS   C1B12347   7.792  15.761   6.878  0.1811  0.1572  0.0312
  821YOPS   C2B12348   7.641  15.392   7.071 -0.3446 -0.0733 -0.0143
  821YOPS   D3B12349   7.272  15.223   7.164  0.1887 -0.0646 -0.2185
  821YOPS   C4B12350   7.076  15.453   7.548 -0.0814 -0.0286  0.0356
  822YOPS   CNO12351  11.662  16.757   5.878  0.0697  0.1551  0.0336
  822YOPS   PO412352  11.684  16.718   6.317 -0.2708  0.1295 -0.1332
  822YOPS   GL112353  11.621  16.722   6.772  0.1363  0.0090 -0.0616
  822YOPS   GL212354  11.723  16.396   6.725  0.0262 -0.0261  0.2167
  822YOPS   C1A12355  11.805  16.531   7.175 -0.1904 -0.1530 -0.1694
  822YOPS   D2A12356  11.886  16.184   7.312  0.0504 -0.0826 -0.1915
  822YOPS   C3A12357  11.865  15.825   7.587  0.1581  0.1932 -0.0124
  822YOPS   C4A12358  12.005  15.359   7.641  0.3262  0.1800  0.0526
  822YOPS   C1B12359  11.534  16.064   6.885 -0.1644 -0.1920  0.2751
  822YOPS   C2B12360  11.433  15.941   7.349  0.0716  0.0334  0.0531
  822YOPS   D3B12361  11.067  15.724   7.554  0.1553  0.1437  0.2564
  822YOPS   C4B12362  11.076  15.273   7.739 -0.3347 -0.1942 -0.1840
  823YOPS   CNO12363  10.210   5.034   5.223  0.0076 -0.0512 -0.3875
  823YOPS   PO412364  10.153   4.595   5.246 -0.0389 -0.2109 -0.1718
  823YOPS   GL112365  10.068   4.332   5.587  0.5186  0.0571 -0.2286
  823YOPS   GL212366   9.773   4.283   5.685 -0.1160 -0.1429  0.0629
  823YOPS   C1A12367  10.049   4.149   6.039  0.3391  0.1782  0.1657
  823YOPS   D2A12368   9.827   4.039   6.434  0.0972 -0.0675 -0.3613
  823YOPS   C3A12369   9.600   3.877   6.663  0.2916  0.2448  0.2657
  823YOPS   C4A12370   9.658   3.897   7.087  0.1686 -0.0169  0.0294
  823YOPS   C1B12371   9.528   4.140   6.060  0.0811 -0.0062  0.0160
  823YOPS   C2B12372   9.226   3.927   6.288  0.0274  0.1867  0.0279
  823YOPS   D3B12373   8.821   4.083   6.500 -0.1231 -0.0370  0.2340
  823YOPS   C4B12374   8.889   4.497   6.766  0.0248 -0.1818  0.0327
  824YOPS   CNO12375   4.812  15.971   6.425  0.3527  0.1888  0.2514
  824YOPS   PO412376   4.495  15.718   6.194 -0.0195 -0.1443 -0.2208
  824YOPS   GL112377   4.423  15.636   6.656 -0.1263  0.0280  0.0938
  824YOPS   GL212378   4.643  15.692   6.880  0.3271 -0.0388  0.1108
  824YOPS   C1A12379   4.203  15.845   7.017  0.0214 -0.0290  0.3772
  824YOPS   D2A12380   4.351  15.813   7.388 -0.0040 -0.2947  0.1666
  824YOPS   C3A12381   4.642  15.609   7.651  0.1344  0.2262 -0.0819
  824YOPS   C4A12382   4.853  15.725   8.065 -0.1970 -0.0246 -0.1452
  824YOPS   C1B12383   4.857  15.785   7.249 -0.1973 -0.2807  0.0697
  824YOPS   C2B12384   5.182  15.810   7.616  0.3427 -0.0538  0.1903
  824YOPS   D3B12385   5.411  15.812   7.925 -0.1194 -0.3146 -0.1420
  824YOPS   C4B12386   5.417  15.583   8.253  0.0158  0.2000 -0.0957
  825YOPS   CNO12387  10.661  14.044   5.585  0.1083 -0.2571  0.1184
  825YOPS   PO412388  10.636  13.671   5.721 -0.0783  0.0304  0.0910
  825YOPS   GL112389  10.574  13.817   6.117 -0.3412 -0.0185 -0.3258
  825YOPS   GL212390  10.721  14.116   6.251  0.3114  0.0532  0.1549
  825YOPS   C1A12391  10.516  13.635   6.512 -0.2693  0.2980 -0.1680
  825YOPS   D2A12392  10.629  13.416   6.906 -0.2380  0.0735 -0.1438
  825YOPS   C3A12393  10.906  13.251   7.162 -0.1244 -0.3525 -0.2010
  825YOPS   C4A12394  11.281  13.035   7.101  0.0162 -0.1736  0.1006
  825YOPS   C1B12395  10.593  14.172   6.567 -0.1156 -0.0983 -0.2467
  825YOPS   C2B12396  10.418  13.914   6.942 -0.2461  0.0313  0.1548
  825YOPS   D3B12397  10.209  13.971   7.189 -0.1278  0.0911 -0.0391
  825YOPS   C4B12398  10.213  13.852   7.651  0.1661  0.2002 -0.0708
  826YOPS   CNO12399  16.292   5.262   4.987 -0.2900  0.1377 -0.0294
  826YOPS   PO412400  16.519   5.129   5.315  0.0932 -0.1240  0.1901
  826YOPS   GL112401  16.120   4.991   5.593  0.1186 -0.0901 -0.1332
  826YOPS   GL212402  16.319   4.932   5.830  0.3045 -0.2776  0.0874
  826YOPS   C1A12403  15.823   5.221   5.760 -0.3306 -0.2174 -0.0720
  826YOPS   D2A12404  15.664   5.174   6.152  0.2234 -0.0007  0.0351
  826YOPS   C3A12405  15.655   5.454   6.464 -0.2459 -0.0731  0.2622
  826YOPS   C4A12406  15.499   5.279   6.937  0.1466 -0.2240 -0.0645
  826YOPS   C1B12407  16.622   4.731   6.132 -0.0021  0.1336  0.1010
  826YOPS   C2B12408  16.786   4.726   6.464 -0.1706  0.1612 -0.3513
  826YOPS   D3B12409  16.766   4.658   6.882  0.0439  0.3307  0.1297
  826YOPS   C4B12410  16.359   4.592   6.959 -0.3530 -0.0070 -0.3956
  827YOPS   CNO12411   9.713   2.962   5.465 -0.0676 -0.2636  0.1495
  827YOPS   PO412412   9.844   2.757   5.861 -0.0768 -0.0751 -0.1714
  827YOPS   GL112413   9.892   3.034   6.241 -0.0407 -0.1199  0.0955
  827YOPS   GL212414  10.189   3.102   6.280  0.0012  0.1063  0.0073
  827YOPS   C1A12415   9.727   3.329   6.569 -0.4343  0.1920  0.1328
  827YOPS   D2A12416   9.717   3.399   7.051 -0.2293 -0.3638  0.1796
  827YOPS   C3A12417   9.650   3.513   7.464  0.1375  0.0463  0.5159
  827YOPS   C4A12418   9.873   3.834   7.677 -0.0571  0.1349 -0.2667
  827YOPS   C1B12419  10.164   3.174   6.671  0.0784  0.1301  0.0255
  827YOPS   C2B12420  10.187   3.198   7.075 -0.1452  0.2483 -0.1781
  827YOPS   D3B12421   9.862   3.018   7.313  0.1259  0.1666 -0.2414
  827YOPS   C4B12422   9.685   2.578   7.346  0.1365  0.0971  0.2707
  828YOPS   CNO12423  12.889  16.037   6.217 -0.3918  0.0113  0.3271
  828YOPS   PO412424  12.527  16.217   6.436 -0.1184 -0.4986 -0.2282
  828YOPS   GL112425  12.475  16.424   6.861  0.1192  0.1016 -0.1756
  828YOPS   GL212426  12.227  16.496   6.856  0.1490  0.1087 -0.1290
  828YOPS   C1A12427  12.786  16.512   7.226  0.0490 -0.0205 -0.3863
  828YOPS   D2A12428  13.073  16.762   7.420 -0.1066 -0.0148  0.0991
  828YOPS   C3A12429  13.267  17.214   7.519 -0.0006 -0.0519 -0.2138
  828YOPS   C4A12430  13.565  17.387   7.613  0.3009  0.2144 -0.4037
  828YOPS   C1B12431  12.235  16.585   7.288  0.1543 -0.1032 -0.0184
  828YOPS   C2B12432  12.036  16.587   7.726  0.1675 -0.0058 -0.2716
  828YOPS   D3B12433  11.777  16.251   7.835  0.4241 -0.0358 -0.1675
  828YOPS   C4B12434  11.557  16.308   8.197 -0.0185  0.1441 -0.1246
  829YOPS   CNO12435   2.035   4.532   5.472 -0.1357  0.2088 -0.0230
  829YOPS   PO412436   2.067   4.735   5.731 -0.1758 -0.0627 -0.0908
  829YOPS   GL112437   2.229   4.751   6.066 -0.0405  0.0755  0.0924
  829YOPS   GL212438   2.341   5.107   6.132 -0.1764 -0.1343  0.3514
  829YOPS   C1A12439   2.109   4.557   6.523  0.2387 -0.2551 -0.1590
  829YOPS   D2A12440   2.062   4.380   6.932 -0.4993 -0.1311  0.2339
  829YOPS   C3A12441   1.871   4.453   7.343 -0.0990 -0.0570  0.0246
  829YOPS   C4A12442   1.622   4.663   7.620  0.0938  0.1146  0.1616
  829YOPS   C1B12443   2.336   5.386   6.525  0.1320 -0.2362  0.2869
  829YOPS   C2B12444   2.338   5.626   6.817 -0.1893  0.0207 -0.1252
  829YOPS   D3B12445   2.410   5.773   7.284  0.2383 -0.1098  0.1469
  829YOPS   C4B12446   2.286   5.440   7.414 -0.0115  0.0102 -0.0982
  830YOPS   CNO12447  18.325   3.254   5.891 -0.1906  0.0430  0.0586
  830YOPS   PO412448  18.012   2.950   5.954 -0.0705  0.1801 -0.1287
  830YOPS   GL112449  18.096   3.083   6.380  0.0985  0.1114 -0.0508
  830YOPS   GL212450  18.463   3.098   6.384  0.3431 -0.4071 -0.1985
  830YOPS   C1A12451  17.931   3.352   6.722 -0.0247 -0.1787 -0.0883
  830YOPS   D2A12452  17.913   3.382   7.235  0.1400 -0.0186  0.2873
  830YOPS   C3A12453  17.511   3.224   7.561 -0.1002 -0.1811  0.0615
  830YOPS   C4A12454  17.394   2.749   7.631 -0.3199  0.1775  0.2471
  830YOPS   C1B12455  18.385   3.189   6.778  0.1730 -0.0232 -0.0443
  830YOPS   C2B12456  18.350   3.146   7.192  0.1769 -0.1801  0.0235
  830YOPS   D3B12457  18.460   3.399   7.473  0.1478 -0.2850 -0.2288
  830YOPS   C4B12458  18.873   3.534   7.539  0.3745  0.0433 -0.0060
  831YOPS   CNO12459   4.635   3.597   5.590  0.2945 -0.1615  0.1031
  831YOPS   PO412460   4.749   4.028   5.846  0.2434  0.0888  0.0984
  831YOPS   GL112461   4.852   4.189   6.287  0.1348 -0.4603 -0.1856
  831YOPS   GL212462   4.516   4.301   6.448 -0.0018 -0.0119  0.2673
  831YOPS   C1A12463   5.209   4.275   6.617  0.3129  0.0858 -0.3364
  831YOPS   D2A12464   5.521   4.200   6.880 -0.1325 -0.2520  0.2123
  831YOPS   C3A12465   5.692   3.852   6.989 -0.0008  0.1488  0.0243
  831YOPS   C4A12466   5.669   3.861   7.422 -0.2955 -0.2150  0.3090
  831YOPS   C1B12467   4.280   4.032   6.780  0.1831  0.1035 -0.2216
  831YOPS   C2B12468   3.990   3.843   6.877  0.0092 -0.1227  0.0728
  831YOPS   D3B12469   3.969   3.629   7.301 -0.0111  0.2236 -0.3178
  831YOPS   C4B12470   3.790   3.780   7.615  0.0754  0.0612  0.0618
  832YOPS   CNO12471  18.124   2.144   5.545  0.1141  0.2326 -0.1660
  832YOPS   PO412472  18.290   2.462   5.734 -0.2359 -0.1462  0.0045
  832YOPS   GL112473  18.272   2.437   6.178  0.2968 -0.3190 -0.3574
  832YOPS   GL212474  18.103   2.149   6.363 -0.0034  0.0353 -0.0288
  832YOPS   C1A12475  18.354   2.548   6.520 -0.0326  0.2661  0.0787
  832YOPS   D2A12476  18.322   2.467   7.025 -0.0314 -0.0165 -0.0316
  832YOPS   C3A12477  18.343   2.740   7.412 -0.2015 -0.0228  0.0217
  832YOPS   C4A12478  18.230   3.062   7.721 -0.0515  0.2328  0.0103
  832YOPS   C1B12479  17.805   2.293   6.751  0.3683  0.1598  0.1178
  832YOPS   C2B12480  17.830   2.409   7.227  0.1259  0.2081  0.0440
  832YOPS   D3B12481  17.773   2.430   7.704  0.1268 -0.0896  0.0631
  832YOPS   C4B12482  17.409   2.267   7.669  0.0241  0.0797 -0.1964
  833YOPS   CNO12483  12.425  18.008   6.232 -0.0662  0.1823 -0.1421
  833YOPS   PO412484  12.046  18.199   5.926 -0.0585 -0.1995  0.3878
  833YOPS   GL112485  12.057  18.536   6.223 -0.0729  0.0595 -0.0290
  833YOPS   GL212486  11.805  18.638   6.363 -0.2711  0.0076 -0.0668
  833YOPS   C1A12487  12.015  18.312   6.634 -0.1786  0.1229 -0.2548
  833YOPS   D2A12488  11.747  18.241   7.023 -0.2839  0.0091 -0.2098
  833YOPS   C3A12489  11.603  18.354   7.463  0.0179  0.1004 -0.2066
  833YOPS   C4A12490  11.657  18.700   7.790  0.1089 -0.3728  0.2392
  833YOPS   C1B12491  11.712  18.714   6.823 -0.0809  0.1458  0.1469
  833YOPS   C2B12492  11.850  18.806   7.244 -0.0355  0.0706 -0.0719
  833YOPS   D3B12493  11.742  19.152   7.508  0.1025  0.1568 -0.0975
  833YOPS   C4B12494  12.136  19.363   7.572 -0.3414  0.1596 -0.0955
  834YOPS   CNO12495   2.830  15.794   5.869 -0.2103 -0.2451 -0.0010
  834YOPS   PO412496   2.711  16.214   5.880 -0.2082 -0.1346 -0.1464
  834YOPS   GL112497   2.647  16.022   6.265  0.0444 -0.0592 -0.0475
  834YOPS   GL212498   2.695  16.177   6.590 -0.2562 -0.0516  0.0996
  834YOPS   C1A12499   2.643  15.704   6.663 -0.0024 -0.4433  0.0225
  834YOPS   D2A12500   2.606  15.650   7.084 -0.1844 -0.0439  0.0057
  834YOPS   C3A12501   2.372  15.975   7.464  0.1142  0.2682  0.0104
  834YOPS   C4A12502   2.460  16.003   7.790 -0.0816 -0.2591  0.0796
  834YOPS   C1B12503   2.430  16.155   6.931 -0.1503 -0.1127  0.2513
  834YOPS   C2B12504   2.089  16.314   6.977 -0.2483 -0.0466 -0.2214
  834YOPS   D3B12505   1.780  16.695   6.954  0.0007  0.0255  0.1772
  834YOPS   C4B12506   1.658  16.813   7.354 -0.1077 -0.1034 -0.1942
  835YOPS   CNO12507  13.885  13.010   6.045 -0.0388 -0.0564  0.1177
  835YOPS   PO412508  13.562  12.698   5.870 -0.2738  0.1257 -0.2479
  835YOPS   GL112509  13.419  12.536   6.244 -0.2870  0.0002  0.3012
  835YOPS   GL212510  13.641  12.307   6.409 -0.0818 -0.0085  0.3011
  835YOPS   C1A12511  13.383  12.650   6.701  0.1107 -0.0241 -0.1421
  835YOPS   D2A12512  13.344  12.409   7.027 -0.1270  0.2870  0.2245
  835YOPS   C3A12513  13.278  12.598   7.427 -0.1015  0.0399 -0.0455
  835YOPS   C4A12514  13.141  12.467   7.759  0.1899  0.1687  0.1818
  835YOPS   C1B12515  13.762  12.120   6.724 -0.2661  0.1989 -0.0803
  835YOPS   C2B12516  13.859  11.906   7.187  0.0594 -0.0528  0.0314
  835YOPS   D3B12517  13.846  12.042   7.545  0.3091 -0.0623  0.4689
  835YOPS   C4B12518  13.686  11.716   7.878 -0.0671  0.1552 -0.2580
  836YOPS   CNO12519   8.241  11.088   5.686 -0.0339  0.2634  0.1723
  836YOPS   PO412520   7.898  10.954   5.830  0.2961  0.0454 -0.1391
  836YOPS   GL112521   7.879  10.915   6.263 -0.3884 -0.0661  0.2140
  836YOPS   GL212522   7.653  10.810   6.429 -0.2205 -0.4024  0.3282
  836YOPS   C1A12523   7.916  11.322   6.441 -0.1568 -0.0125  0.2274
  836YOPS   D2A12524   7.934  11.691   6.735  0.2115 -0.1160  0.0507
  836YOPS   C3A12525   7.876  11.927   7.053  0.1275  0.0091  0.3503
  836YOPS   C4A12526   8.085  12.344   7.184  0.1951 -0.1317 -0.2797
  836YOPS   C1B12527   7.479  10.728   6.807 -0.2731 -0.4493 -0.2246
  836YOPS   C2B12528   7.378  10.721   7.216 -0.1280  0.1135 -0.1190
  836YOPS   D3B12529   7.304  10.390   7.476 -0.0566 -0.1092  0.2059
  836YOPS   C4B12530   7.006  10.512   7.666  0.0144 -0.0950 -0.0456
  837YOPS   CNO12531   2.387  18.326   5.902 -0.0457 -0.0975  0.0495
  837YOPS   PO412532   2.378  18.658   6.183  0.2088 -0.1828 -0.2582
  837YOPS   GL112533   2.012  18.738   6.476  0.2429 -0.0697  0.0162
  837YOPS   GL212534   1.767  18.621   6.301 -0.2149  0.1854  0.0248
  837YOPS   C1A12535   2.048  18.759   6.867  0.2494  0.0980  0.0898
  837YOPS   D2A12536   2.458  18.866   7.121 -0.0030 -0.1725 -0.0834
  837YOPS   C3A12537   2.691  19.076   7.513  0.2742 -0.2290  0.1911
  837YOPS   C4A12538   2.367  19.140   7.925 -0.1538 -0.0291 -0.0002
  837YOPS   C1B12539   1.556  18.650   6.712 -0.0029 -0.2034 -0.2618
  837YOPS   C2B12540   1.578  18.883   6.988  0.0955  0.2231 -0.0872
  837YOPS   D3B12541   1.765  19.082   7.325 -0.0127 -0.1827 -0.0789
  837YOPS   C4B12542   2.069  18.929   7.444 -0.2056  0.1016 -0.1747
  838YOPS   CNO12543   3.181   4.021   5.320 -0.1967 -0.0336 -0.3764
  838YOPS   PO412544   2.888   4.372   5.507 -0.0416  0.2493 -0.2117
  838YOPS   GL112545   2.939   4.400   6.013  0.0996 -0.0433  0.2395
  838YOPS   GL212546   2.687   4.462   6.165 -0.0324 -0.1137  0.2072
  838YOPS   C1A12547   3.092   4.504   6.490 -0.0728  0.1469 -0.0801
  838YOPS   D2A12548   3.105   4.577   6.850 -0.2000  0.2578 -0.1753
  838YOPS   C3A12549   3.500   4.662   7.140  0.0341  0.0578 -0.2035
  838YOPS   C4A12550   3.912   4.649   7.277 -0.0024  0.0777  0.0521
  838YOPS   C1B12551   2.558   4.486   6.589 -0.2306 -0.1234 -0.1110
  838YOPS   C2B12552   2.592   4.480   6.957 -0.2705 -0.0339  0.0621
  838YOPS   D3B12553   2.762   4.681   7.260  0.1441  0.2415 -0.1234
  838YOPS   C4B12554   2.623   5.049   7.583  0.2305 -0.1691 -0.1038
  839YOPS   CNO12555  17.932   4.372   6.426 -0.0891 -0.0252 -0.0884
  839YOPS   PO412556  18.129   4.475   5.974  0.1057  0.0716  0.1864
  839YOPS   GL112557  18.334   4.749   6.307 -0.1404 -0.2249 -0.1660
  839YOPS   GL212558  18.668   4.920   6.113 -0.0888 -0.2540  0.0257
  839YOPS   C1A12559  18.430   4.742   6.654 -0.0038 -0.1163 -0.1046
  839YOPS   D2A12560  18.813   4.690   6.835  0.2078 -0.0110 -0.2900
  839YOPS   C3A12561  19.219   4.622   7.051 -0.0523  0.1122  0.2808
  839YOPS   C4A12562  19.543   4.589   6.801  0.2278  0.1726  0.0640
  839YOPS   C1B12563  18.793   5.370   6.117  0.0953  0.0417 -0.1881
  839YOPS   C2B12564  19.014   5.589   6.471 -0.2565  0.1057 -0.3234
  839YOPS   D3B12565  19.068   5.807   6.814 -0.1126 -0.1940 -0.4029
  839YOPS   C4B12566  19.217   5.619   7.228  0.0388 -0.1400 -0.6535
  840YOPS   CNO12567  16.162   8.252   5.300 -0.2899  0.0600  0.1297
  840YOPS   PO412568  16.564   8.303   5.514 -0.3230 -0.2108  0.1139
  840YOPS   GL112569  16.728   8.075   5.816 -0.2240  0.1388  0.0895
  840YOPS   GL212570  16.775   8.309   6.046 -0.1400  0.0844 -0.0859
  840YOPS   C1A12571  16.788   7.827   6.316  0.1701  0.1009  0.0711
  840YOPS   D2A12572  17.067   8.005   6.590  0.1121  0.1925 -0.1986
  840YOPS   C3A12573  17.252   7.829   6.995 -0.0162 -0.1080  0.2305
  840YOPS   C4A12574  16.784   7.697   7.187 -0.1821  0.0503 -0.2674
  840YOPS   C1B12575  16.467   8.194   6.450  0.0084 -0.1377 -0.2752
  840YOPS   C2B12576  16.315   8.465   6.707  0.0585 -0.2176 -0.1423
  840YOPS   D3B12577  16.397   8.599   7.160 -0.3090 -0.0128 -0.0064
  840YOPS   C4B12578  16.402   9.017   7.321 -0.1859  0.2300  0.2659
  841POPE   NH312579   0.510  17.494   6.043 -0.0461 -0.0206 -0.3403
  841POPE   PO412580   0.775  17.859   5.935 -0.3159  0.3940  0.2955
  841POPE   GL112581   0.829  18.003   6.329  0.3539  0.0815 -0.3829
  841POPE   GL212582   0.970  18.011   6.423 -0.0468 -0.0567 -0.0293
  841POPE   C1A12583   0.826  17.852   6.829 -0.4068 -0.0192  0.0124
  841POPE   D2A12584   0.509  17.899   7.138  0.3193  0.2363 -0.2105
  841POPE   C3A12585   0.574  18.029   7.514 -0.0355  0.1326  0.0199
  841POPE   C4A12586   0.473  17.786   7.946  0.0745 -0.0122  0.0682
  841POPE   C1B12587   1.178  18.165   6.851 -0.1220 -0.1572 -0.2962
  841POPE   C2B12588   1.035  18.177   7.308 -0.0776 -0.0558 -0.2358
  841POPE   C3B12589   1.125  18.381   7.652  0.2115  0.1453  0.0953
  841POPE   C4B12590   1.243  18.527   8.076 -0.2496  0.1878  0.2660
  842POPE   NH312591  10.820  11.151   5.738  0.1058  0.0075  0.0530
  842POPE   PO412592  10.621  10.807   5.758  0.3690 -0.0398 -0.3075
  842POPE   GL112593  10.828  10.907   6.197 -0.2521  0.2054 -0.0230
  842POPE   GL212594  11.164  11.006   6.289 -0.2661 -0.2867  0.2884
  842POPE   C1A12595  10.673  10.993   6.631 -0.2124 -0.0847 -0.2109
  842POPE   D2A12596  10.296  11.004   6.951  0.0813  0.0038 -0.0397
  842POPE   C3A12597   9.836  11.261   6.820  0.2806 -0.4253 -0.1751
  842POPE   C4A12598   9.695  11.639   6.725  0.1426  0.2758 -0.0954
  842POPE   C1B12599  11.242  11.165   6.758  0.1135  0.2967  0.0679
  842POPE   C2B12600  11.046  11.129   7.123  0.2126  0.1039  0.1435
  842POPE   C3B12601  10.697  11.080   7.403 -0.2255 -0.0220  0.1788
  842POPE   C4B12602  10.573  11.014   7.837 -0.3694 -0.1696  0.1188
  843POPE   NH312603  18.170   7.892   5.709  0.2720  0.2189  0.3521
  843POPE   PO412604  18.521   7.709   5.728 -0.2654  0.1574 -0.2238
  843POPE   GL112605  18.338   7.577   6.081 -0.0541  0.3044  0.0136
  843POPE   GL212606  18.080   7.370   5.903  0.0337 -0.0430  0.1327
  843POPE   C1A12607  18.456   7.363   6.505 -0.2611 -0.0085 -0.1224
  843POPE   D2A12608  18.496   7.307   6.999 -0.0072  0.0123 -0.2466
  843POPE   C3A12609  18.243   7.231   7.261 -0.1002  0.1667 -0.1245
  843POPE   C4A12610  18.188   6.956   7.542 -0.0638  0.3102 -0.2035
  843POPE   C1B12611  17.979   7.260   6.399 -0.0582  0.2029 -0.1741
  843POPE   C2B12612  17.906   7.088   6.870 -0.2895 -0.1488 -0.0829
  843POPE   C3B12613  17.832   6.849   7.165 -0.1561 -0.1175  0.1823
  843POPE   C4B12614  17.715   6.759   7.593  0.0090 -0.2089  0.0466
  844POPE   NH312615   4.128  10.548   5.395 -0.0904 -0.0190 -0.0097
  844POPE   PO412616   4.005  10.355   5.754  0.0887 -0.0366  0.3946
  844POPE   GL112617   3.864  10.445   6.239 -0.0164 -0.0219 -0.1339
  844POPE   GL212618   4.083  10.337   6.536  0.2149  0.1915 -0.2254
  844POPE   C1A12619   3.505  10.459   6.573 -0.1856 -0.1983 -0.1678
  844POPE   D2A12620   3.279  10.744   6.742  0.1543  0.0196  0.2047
  844POPE   C3A12621   3.372  11.211   6.629  0.2101  0.0071 -0.0590
  844POPE   C4A12622   3.453  11.651   6.573 -0.3839 -0.1799 -0.2322
  844POPE   C1B12623   3.856  10.353   6.948  0.0392  0.1347 -0.0854
  844POPE   C2B12624   3.488  10.408   7.254  0.1245 -0.2056 -0.2599
  844POPE   C3B12625   3.147  10.360   7.543 -0.0185 -0.2472 -0.1560
  844POPE   C4B12626   2.751  10.164   7.504  0.0482 -0.1098  0.0631
  845POPE   NH312627   6.140   8.714   5.606  0.1414 -0.0527 -0.4149
  845POPE   PO412628   5.874   8.352   5.647 -0.1478  0.0320  0.0805
  845POPE   GL112629   6.078   8.427   6.074 -0.1726 -0.1223 -0.1528
  845POPE   GL212630   6.448   8.483   6.014 -0.0706 -0.0061 -0.0892
  845POPE   C1A12631   6.129   8.546   6.503  0.2025 -0.0452  0.1385
  845POPE   D2A12632   6.080   8.996   6.667  0.1290 -0.1609  0.1558
  845POPE   C3A12633   5.839   9.305   7.067 -0.0919  0.0607 -0.0793
  845POPE   C4A12634   5.693   9.608   7.420  0.0679 -0.2954  0.0392
  845POPE   C1B12635   6.750   8.424   6.325  0.1173  0.0435  0.2219
  845POPE   C2B12636   6.786   8.474   6.849 -0.1090  0.3269 -0.0956
  845POPE   C3B12637   7.186   8.435   7.163  0.2638 -0.0100  0.1439
  845POPE   C4B12638   7.530   8.559   7.558  0.1293 -0.0346  0.0127
  846POPE   NH312639   2.922  16.863   6.115 -0.0146 -0.0775 -0.2895
  846POPE   PO412640   3.020  16.458   6.305 -0.1747 -0.1658  0.0333
  846POPE   GL112641   2.921  16.726   6.623  0.0987  0.1260 -0.1071
  846POPE   GL212642   2.719  16.936   6.604  0.2085 -0.0483  0.2172
  846POPE   C1A12643   2.729  16.594   7.006 -0.1887 -0.3556  0.0224
  846POPE   D2A12644   2.328  16.472   7.369  0.0771  0.0039  0.1107
  846POPE   C3A12645   2.027  16.676   7.617 -0.1582  0.0785  0.1700
  846POPE   C4A12646   1.693  16.738   7.850  0.4145  0.2286 -0.1517
  846POPE   C1B12647   2.640  17.101   7.004  0.2522 -0.1326  0.1231
  846POPE   C2B12648   2.452  16.952   7.470 -0.0741 -0.0222  0.0372
  846POPE   C3B12649   2.615  16.865   7.834 -0.1668 -0.0115  0.1018
  846POPE   C4B12650   2.879  16.876   8.224  0.0290  0.2972 -0.1279
  847POPE   NH312651   7.218  10.525   6.098 -0.0722  0.0030 -0.1998
  847POPE   PO412652   7.582  10.457   5.947 -0.0184  0.0383 -0.1123
  847POPE   GL112653   7.716  10.333   6.283 -0.0839  0.1978 -0.0143
  847POPE   GL212654   8.031  10.415   6.376  0.1395 -0.0253 -0.1777
  847POPE   C1A12655   7.645  10.283   6.681 -0.2963 -0.1640  0.0595
  847POPE   D2A12656   7.585  10.298   7.077 -0.0989  0.0700 -0.0095
  847POPE   C3A12657   7.769  10.006   7.315  0.1324 -0.1772  0.0617
  847POPE   C4A12658   7.955   9.772   7.591  0.1344  0.2010  0.0821
  847POPE   C1B12659   7.980  10.673   6.737 -0.3359  0.3435  0.2353
  847POPE   C2B12660   7.864  10.759   7.132  0.0518 -0.2180  0.1740
  847POPE   C3B12661   7.747  10.565   7.525 -0.3245 -0.0868 -0.0182
  847POPE   C4B12662   7.681  10.300   7.785  0.0178  0.1006  0.3413
  848POPE   NH312663  10.493   6.359   5.323  0.2231 -0.3151 -0.0735
  848POPE   PO412664  10.591   5.965   5.333  0.1084 -0.0756  0.2273
  848POPE   GL112665  10.638   5.948   5.664  0.1468 -0.1541 -0.0583
  848POPE   GL212666  10.827   5.809   5.791 -0.2048  0.1912  0.2803
  848POPE   C1A12667  10.574   5.874   6.203 -0.0575  0.2300  0.0545
  848POPE   D2A12668  10.581   5.812   6.700  0.0507 -0.0348  0.3452
  848POPE   C3A12669  10.907   5.557   6.886 -0.2120  0.2677 -0.1439
  848POPE   C4A12670  11.110   5.721   7.313 -0.0459  0.0722 -0.1718
  848POPE   C1B12671  10.794   5.437   6.015  0.0054 -0.2792  0.0913
  848POPE   C2B12672  10.855   5.199   6.369  0.0364 -0.1872 -0.2687
  848POPE   C3B12673  11.225   4.949   6.451  0.2055 -0.0327  0.0356
  848POPE   C4B12674  11.063   4.659   6.801 -0.0936 -0.1571 -0.0195
  849POPE   NH312675  15.481   0.752   6.201 -0.2003  0.0824  0.1554
  849POPE   PO412676  15.583   0.399   6.146 -0.1183  0.2575 -0.1316
  849POPE   GL112677  15.424   0.305   6.487 -0.0761  0.0709 -0.1023
  849POPE   GL212678  15.322   0.581   6.709 -0.0034  0.1224  0.0136
  849POPE   C1A12679  15.507   0.169   6.867 -0.1045 -0.1775 -0.1309
  849POPE   D2A12680  15.878   0.120   7.082  0.3647  0.4291  0.0643
  849POPE   C3A12681  16.062  -0.236   7.274  0.1982 -0.0067  0.0854
  849POPE   C4A12682  16.051  -0.530   7.519 -0.1290 -0.0757 -0.1956
  849POPE   C1B12683  15.144   0.731   7.147 -0.2025  0.1486 -0.2563
  849POPE   C2B12684  14.952   0.767   7.496  0.2991  0.1637 -0.0862
  849POPE   C3B12685  14.656   0.787   7.798  0.0350 -0.2861  0.2527
  849POPE   C4B12686  14.580   1.041   8.019 -0.0129 -0.1637 -0.1800
  850POPE   NH312687  10.412  14.444   5.978 -0.1512  0.1965  0.0289
  850POPE   PO412688  10.904  14.408   5.893 -0.1730  0.0571 -0.0393
  850POPE   GL112689  10.785  14.682   6.176 -0.2683 -0.3950 -0.2825
  850POPE   GL212690  10.949  14.501   6.451  0.3916  0.3581  0.1477
  850POPE   C1A12691  10.504  14.684   6.578  0.0961  0.2198  0.1548
  850POPE   D2A12692  10.556  14.571   6.943  0.1117  0.1618  0.0107
  850POPE   C3A12693  10.601  14.355   7.220 -0.1499  0.3326  0.0987
  850POPE   C4A12694  10.672  14.000   7.452  0.5406 -0.0597 -0.2888
  850POPE   C1B12695  10.998  14.344   6.797 -0.0879  0.2837  0.1366
  850POPE   C2B12696  11.167  14.504   7.100 -0.3821 -0.1569 -0.1669
  850POPE   C3B12697  11.542  14.360   7.393  0.3828  0.0316 -0.0740
  850POPE   C4B12698  11.702  14.442   7.716 -0.0414 -0.0686  0.0832
  851POPE   NH312699   5.496  10.567   6.126 -0.0816 -0.3457 -0.1463
  851POPE   PO412700   5.883  10.478   5.882  0.1090 -0.0130 -0.0051
  851POPE   GL112701   5.943  10.797   6.213 -0.3312 -0.1088  0.0350
  851POPE   GL212702   5.890  10.540   6.420 -0.1691 -0.3935  0.0082
  851POPE   C1A12703   6.011  10.938   6.744  0.2265 -0.0884  0.0443
  851POPE   D2A12704   6.015  10.989   7.165 -0.1406 -0.0617  0.1134
  851POPE   C3A12705   6.352  11.153   7.486  0.1032  0.0338  0.0772
  851POPE   C4A12706   6.786  11.183   7.766 -0.3517 -0.0270 -0.0664
  851POPE   C1B12707   5.878  10.484   6.819  0.1685  0.4293 -0.0174
  851POPE   C2B12708   5.990  10.511   7.252  0.0615  0.3388 -0.1154
  851POPE   C3B12709   5.865  10.301   7.575  0.1625 -0.0552  0.1381
  851POPE   C4B12710   5.879  10.014   7.876  0.1192  0.0260  0.4095
  852POPE   NH312711  14.727  16.722   5.985  0.0776  0.3009  0.2285
  852POPE   PO412712  14.894  16.694   6.402 -0.3025 -0.2288  0.2669
  852POPE   GL112713  15.109  16.913   6.696 -0.0052  0.5204 -0.0862
  852POPE   GL212714  15.242  17.172   6.502  0.0961  0.2075 -0.1248
  852POPE   C1A12715  15.261  17.132   7.103 -0.0367 -0.1355 -0.0098
  852POPE   D2A12716  15.315  17.069   7.553  0.0761 -0.1665 -0.1510
  852POPE   C3A12717  15.628  17.177   7.847 -0.0837 -0.2346 -0.1900
  852POPE   C4A12718  16.046  17.211   7.931  0.3652 -0.4052  0.1046
  852POPE   C1B12719  15.641  16.965   6.864  0.1311 -0.2687 -0.0738
  852POPE   C2B12720  16.035  17.088   6.913 -0.0087 -0.0016  0.0158
  852POPE   C3B12721  16.425  16.995   7.096  0.0289  0.1927  0.0725
  852POPE   C4B12722  16.921  17.084   7.107  0.1235  0.2157 -0.0433
  853POPE   NH312723   5.743  13.377   5.960  0.2389  0.2508 -0.0931
  853POPE   PO412724   5.322  13.279   6.169  0.1436  0.0004  0.3092
  853POPE   GL112725   5.467  13.009   6.434  0.0129 -0.0516  0.2788
  853POPE   GL212726   5.256  12.760   6.573 -0.1344  0.0630  0.0932
  853POPE   C1A12727   5.801  12.786   6.498  0.0560 -0.1507  0.2052
  853POPE   D2A12728   6.006  12.606   6.968  0.1329  0.0246 -0.1815
  853POPE   C3A12729   6.286  12.752   7.289  0.1379 -0.1026 -0.3927
  853POPE   C4A12730   6.438  12.746   7.714 -0.4004 -0.2475 -0.0918
  853POPE   C1B12731   5.439  12.892   6.900  0.1111 -0.4730  0.1186
  853POPE   C2B12732   5.558  12.818   7.300  0.0903 -0.2222 -0.0494
  853POPE   C3B12733   5.494  12.697   7.620  0.2723  0.1175  0.1432
  853POPE   C4B12734   5.458  12.452   7.999 -0.1683 -0.4333  0.1190
  854POPE   NH312735   6.750   7.331   5.466 -0.1255 -0.5116  0.1385
  854POPE   PO412736   7.164   7.512   5.512 -0.0389  0.1771  0.5105
  854POPE   GL112737   7.053   7.294   5.872  0.1578 -0.1147 -0.0228
  854POPE   GL212738   6.758   7.474   6.002  0.0657 -0.1588 -0.0832
  854POPE   C1A12739   7.111   7.237   6.316 -0.1488  0.1077  0.1130
  854POPE   D2A12740   7.037   7.312   6.779  0.0620  0.0371  0.0655
  854POPE   C3A12741   7.435   7.268   7.100  0.0813  0.1232 -0.0729
  854POPE   C4A12742   7.454   6.963   7.356 -0.0199  0.1777  0.0599
  854POPE   C1B12743   6.829   7.725   6.334  0.0242  0.0107 -0.1680
  854POPE   C2B12744   6.999   7.871   6.747  0.2929 -0.1260  0.1527
  854POPE   C3B12745   7.117   7.799   7.236  0.2219 -0.1331  0.1740
  854POPE   C4B12746   7.130   8.032   7.725 -0.0352  0.1807 -0.1600
  855POPE   NH312747   3.663   0.098   6.123  0.0688  0.1030  0.0433
  855POPE   PO412748   3.971   0.245   6.531  0.1939 -0.5399 -0.2771
  855POPE   GL112749   4.210   0.042   6.866  0.0637  0.0211 -0.0211
  855POPE   GL212750   3.999  -0.243   7.022 -0.1294  0.1666  0.3516
  855POPE   C1A12751   4.360  -0.099   7.379  0.0425  0.0589 -0.1078
  855POPE   D2A12752   4.175  -0.250   7.737  0.0515 -0.0032 -0.3834
  855POPE   C3A12753   4.003  -0.157   8.080  0.0070  0.1818 -0.0267
  855POPE   C4A12754   3.788   0.063   8.231 -0.3555 -0.0862  0.3303
  855POPE   C1B12755   3.859  -0.069   7.319 -0.1946 -0.1320  0.0954
  855POPE   C2B12756   3.775   0.061   7.750 -0.1559 -0.0956  0.1431
  855POPE   C3B12757   3.397  -0.012   7.853 -0.2002  0.1074  0.1085
  855POPE   C4B12758   3.405  -0.301   8.241 -0.3265  0.0224  0.0896
  856POPE   NH312759  17.042  15.011   5.731 -0.1240 -0.1100 -0.2298
  856POPE   PO412760  17.230  14.638   5.858  0.1533 -0.3303 -0.1462
  856POPE   GL112761  17.015  14.847   6.204  0.0015 -0.0354  0.1615
  856POPE   GL212762  16.756  14.929   6.145 -0.0363  0.1642  0.0519
  856POPE   C1A12763  17.067  14.913   6.631 -0.2204 -0.0508  0.2848
  856POPE   D2A12764  16.898  14.935   6.999  0.0617  0.2769  0.2698
  856POPE   C3A12765  16.942  15.243   7.267 -0.1944  0.2197  0.1117
  856POPE   C4A12766  17.110  15.530   7.470  0.1321  0.0060  0.3838
  856POPE   C1B12767  16.543  14.778   6.548 -0.3734  0.1371  0.0106
  856POPE   C2B12768  16.366  14.609   6.871  0.0806 -0.3145 -0.0306
  856POPE   C3B12769  15.991  14.641   7.157 -0.3940 -0.1105 -0.1838
  856POPE   C4B12770  15.806  14.550   7.651  0.0904  0.0567 -0.1467
  857POPE   NH312771  16.097  14.096   5.850 -0.0908 -0.1703  0.3704
  857POPE   PO412772  16.018  14.488   5.748  0.1578 -0.1296  0.0390
  857POPE   GL112773  15.890  14.591   6.127  0.0544 -0.0179 -0.0072
  857POPE   GL212774  15.598  14.567   6.307  0.3077  0.0100 -0.0128
  857POPE   C1A12775  15.959  14.694   6.568  0.0870  0.2622 -0.1459
  857POPE   D2A12776  16.171  15.071   6.616  0.1435 -0.1492  0.1728
  857POPE   C3A12777  16.273  15.109   6.974  0.1835  0.2947 -0.0040
  857POPE   C4A12778  16.520  14.959   7.295  0.0171 -0.2518 -0.0717
  857POPE   C1B12779  15.453  14.421   6.744 -0.0170 -0.3116  0.0519
  857POPE   C2B12780  15.524  14.227   7.147  0.1518 -0.2850  0.0132
  857POPE   C3B12781  15.648  13.999   7.485 -0.1533 -0.0836 -0.4374
  857POPE   C4B12782  15.677  13.999   7.956  0.2218  0.0403 -0.1700
  858POPE   NH312783  14.108   9.473   5.553  0.0714  0.0448  0.1536
  858POPE   PO412784  13.702   9.235   5.579  0.0790 -0.1738  0.0303
  858POPE   GL112785  13.878   9.335   5.977  0.0747 -0.2963 -0.1921
  858POPE   GL212786  13.936   9.048   6.051 -0.1158  0.3435 -0.2040
  858POPE   C1A12787  13.836   9.488   6.441  0.0743 -0.0047  0.0621
  858POPE   D2A12788  13.443   9.471   6.666  0.1008 -0.0907 -0.1049
  858POPE   C3A12789  13.476   9.578   7.090  0.1295  0.2477 -0.1811
  858POPE   C4A12790  13.252   9.764   7.475  0.0497  0.1146 -0.0487
  858POPE   C1B12791  14.398   8.857   6.197  0.3773  0.1314  0.0138
  858POPE   C2B12792  14.500   8.895   6.584  0.0798  0.1747 -0.2183
  858POPE   C3B12793  14.464   8.844   6.969  0.1277 -0.2776  0.0279
  858POPE   C4B12794  14.346   8.698   7.395 -0.1921  0.4055  0.2252
  859POPE   NH312795  15.441   8.299   5.779 -0.1765  0.2451 -0.1555
  859POPE   PO412796  15.701   8.603   5.486  0.2171 -0.3274 -0.1479
  859POPE   GL112797  15.652   8.736   5.900  0.0293  0.2972 -0.1410
  859POPE   GL212798  15.340   8.740   5.917 -0.2031  0.0135 -0.0651
  859POPE   C1A12799  15.742   8.787   6.276  0.3045 -0.2949  0.3340
  859POPE   D2A12800  15.910   8.772   6.740  0.2767 -0.1113 -0.0295
  859POPE   C3A12801  16.169   9.150   6.864  0.0602 -0.3009 -0.1298
  859POPE   C4A12802  16.441   9.391   6.687  0.1309 -0.4768 -0.3874
  859POPE   C1B12803  15.242   8.916   6.330 -0.3003  0.2507  0.1558
  859POPE   C2B12804  15.058   9.040   6.677 -0.0464  0.1218  0.0140
  859POPE   C3B12805  14.964   9.047   7.034 -0.1268  0.1031 -0.2698
  859POPE   C4B12806  14.844   8.885   7.368 -0.0065  0.1092 -0.0583
  860POPE   NH312807   7.988   9.648   5.670  0.1082  0.3630  0.1371
  860POPE   PO412808   8.153   9.247   5.955 -0.1380  0.0796 -0.1357
  860POPE   GL112809   8.113   9.320   6.329  0.0648  0.0094 -0.2174
  860POPE   GL212810   8.447   9.389   6.439 -0.1633  0.1568 -0.1662
  860POPE   C1A12811   8.049   9.284   6.746 -0.2049  0.0941 -0.2006
  860POPE   D2A12812   8.096   9.455   7.187  0.2722 -0.0916  0.1102
  860POPE   C3A12813   8.474   9.721   7.330 -0.1923  0.0641 -0.4960
  860POPE   C4A12814   8.705  10.039   7.479  0.2744  0.1056  0.0779
  860POPE   C1B12815   8.519   9.544   6.876  0.0408  0.2614  0.0491
  860POPE   C2B12816   8.628   9.183   7.241  0.2701 -0.3216 -0.0257
  860POPE   C3B12817   8.703   8.914   7.602  0.0598 -0.0971  0.1987
  860POPE   C4B12818   9.139   8.768   7.631 -0.1143 -0.0375 -0.2216
  861POPE   NH312819  14.996   6.446   5.594 -0.0321 -0.1189  0.2312
  861POPE   PO412820  15.384   6.574   5.640  0.1081 -0.1094 -0.3665
  861POPE   GL112821  15.666   6.532   5.926 -0.1198  0.1257  0.0832
  861POPE   GL212822  15.940   6.366   5.751 -0.2321  0.1280  0.1139
  861POPE   C1A12823  15.734   6.462   6.296  0.1848 -0.1300 -0.0410
  861POPE   D2A12824  16.000   6.328   6.703 -0.0100  0.0817  0.2790
  861POPE   C3A12825  15.850   6.280   7.009  0.1210 -0.3104  0.0157
  861POPE   C4A12826  15.986   6.377   7.439 -0.1966  0.0210 -0.2907
  861POPE   C1B12827  16.157   6.323   6.014 -0.2896 -0.1838 -0.1892
  861POPE   C2B12828  15.959   5.969   6.182 -0.1794 -0.0269  0.2449
  861POPE   C3B12829  16.145   5.801   6.515  0.0498  0.1127 -0.0232
  861POPE   C4B12830  16.128   5.353   6.662  0.4558 -0.0838 -0.1571
  862POPE   NH312831   9.547  17.144   5.870  0.1649  0.1059 -0.0987
  862POPE   PO412832   9.463  17.367   6.351 -0.0068  0.0926 -0.0883
  862POPE   GL112833   9.417  17.463   6.800  0.0139 -0.4074 -0.2667
  862POPE   GL212834   9.362  17.284   6.909  0.0521  0.0712  0.0083
  862POPE   C1A12835   9.566  17.579   7.244  0.3468  0.4469 -0.1043
  862POPE   D2A12836   9.450  17.430   7.738 -0.0583 -0.5434  0.0824
  862POPE   C3A12837   9.696  17.206   8.071 -0.4758  0.0421 -0.2016
  862POPE   C4A12838  10.051  17.371   8.237  0.0533  0.0184 -0.0549
  862POPE   C1B12839   9.197  17.188   7.274  0.0290 -0.2928 -0.1832
  862POPE   C2B12840   8.992  17.135   7.583 -0.1359  0.0689 -0.1155
  862POPE   C3B12841   8.595  17.241   7.862 -0.3664  0.0070 -0.0165
  862POPE   C4B12842   8.199  17.069   7.997  0.0900  0.1071  0.1645
  863POPE   NH312843   2.999   2.685   5.791 -0.3221  0.3457  0.0310
  863POPE   PO412844   2.738   2.950   6.052 -0.0822  0.0917 -0.0700
  863POPE   GL112845   2.739   3.109   6.414 -0.0004  0.1217 -0.1894
  863POPE   GL212846   2.979   3.119   6.518 -0.3936 -0.2256  0.3832
  863POPE   C1A12847   2.624   3.193   6.852  0.5978  0.0934 -0.1908
  863POPE   D2A12848   2.618   3.289   7.206 -0.3713 -0.0874 -0.1347
  863POPE   C3A12849   2.357   3.541   7.456 -0.1505  0.0392  0.1053
  863POPE   C4A12850   2.360   3.933   7.626 -0.1370 -0.1506 -0.1909
  863POPE   C1B12851   3.161   3.183   6.879 -0.1090  0.0774 -0.0615
  863POPE   C2B12852   3.217   3.184   7.246 -0.1388 -0.2160 -0.3028
  863POPE   C3B12853   3.318   3.074   7.630 -0.0671 -0.0649 -0.0180
  863POPE   C4B12854   3.252   2.851   8.078  0.1141 -0.1433 -0.1100
  864POPE   NH312855  15.077   7.391   5.731 -0.2500 -0.1160 -0.5651
  864POPE   PO412856  15.054   7.095   5.888 -0.3577  0.0702  0.0789
  864POPE   GL112857  15.216   6.835   6.151  0.0299  0.2841 -0.0565
  864POPE   GL212858  15.131   6.624   6.063 -0.3019 -0.2081  0.3486
  864POPE   C1A12859  15.294   6.760   6.583 -0.0433  0.1263 -0.1584
  864POPE   D2A12860  15.425   6.545   6.939  0.1266  0.2379 -0.1357
  864POPE   C3A12861  15.544   6.606   7.276 -0.1869 -0.1891  0.0844
  864POPE   C4A12862  15.785   6.841   7.591 -0.0529 -0.0184 -0.0215
  864POPE   C1B12863  14.966   6.481   6.380  0.0267 -0.2644  0.2085
  864POPE   C2B12864  15.040   6.188   6.764 -0.2353 -0.1898  0.0769
  864POPE   C3B12865  14.868   6.076   7.103 -0.0576  0.0088  0.2518
  864POPE   C4B12866  14.804   6.006   7.540  0.4695 -0.0499 -0.2412
  865POPE   NH312867   1.928  10.800   5.946 -0.1569  0.1201  0.0306
  865POPE   PO412868   2.337  10.997   5.893  0.1843  0.0328 -0.0836
  865POPE   GL112869   2.267  10.996   6.298 -0.0492  0.0584  0.1841
  865POPE   GL212870   2.237  10.728   6.505 -0.1400  0.0854  0.0042
  865POPE   C1A12871   2.258  11.259   6.641 -0.3330 -0.2176 -0.0803
  865POPE   D2A12872   2.412  11.214   7.070  0.0070  0.0339  0.1000
  865POPE   C3A12873   2.340  11.147   7.493 -0.5049  0.1139  0.1670
  865POPE   C4A12874   2.418  11.391   7.849  0.0959  0.0874  0.3769
  865POPE   C1B12875   2.261  10.745   6.994  0.3167 -0.0059  0.0661
  865POPE   C2B12876   1.988  10.756   7.336 -0.2293 -0.3330 -0.0019
  865POPE   C3B12877   1.750  10.721   7.602  0.1607  0.0660 -0.2660
  865POPE   C4B12878   1.938  10.406   7.821  0.1988  0.2204  0.0643
  866POPE   NH312879  12.681  13.774   6.134  0.0535  0.0349  0.0552
  866POPE   PO412880  12.988  13.340   5.956 -0.3620  0.0712  0.0445
  866POPE   GL112881  13.171  13.577   6.329  0.0994  0.2106 -0.0861
  866POPE   GL212882  13.465  13.623   6.440  0.2007  0.2377  0.1541
  866POPE   C1A12883  13.175  13.384   6.769  0.1252 -0.3141  0.1527
  866POPE   D2A12884  13.429  13.543   7.072 -0.1613  0.1299  0.0029
  866POPE   C3A12885  13.320  13.655   7.524  0.1656 -0.0956 -0.0482
  866POPE   C4A12886  13.055  14.029   7.562 -0.1776 -0.1408  0.2841
  866POPE   C1B12887  13.736  13.285   6.704 -0.0550 -0.3638 -0.1420
  866POPE   C2B12888  13.546  13.063   6.936  0.1811 -0.0765 -0.0205
  866POPE   C3B12889  13.120  12.957   7.058 -0.1491 -0.1655  0.1584
  866POPE   C4B12890  12.828  12.721   7.258 -0.1858 -0.1097  0.2220
  867POPE   NH312891  11.902   5.384   5.423 -0.2576  0.2866  0.0894
  867POPE   PO412892  11.575   5.083   5.440  0.1158 -0.0352 -0.2044
  867POPE   GL112893  11.481   5.296   5.893  0.2210  0.4700 -0.1316
  867POPE   GL212894  11.485   5.604   5.872 -0.3322  0.1724 -0.2735
  867POPE   C1A12895  11.685   5.099   6.370 -0.2212 -0.2168 -0.1317
  867POPE   D2A12896  11.809   5.246   6.740 -0.0666  0.0251 -0.0839
  867POPE   C3A12897  11.708   5.026   7.149  0.0860 -0.0639 -0.0136
  867POPE   C4A12898  11.559   4.820   7.558  0.2941 -0.0652  0.0848
  867POPE   C1B12899  11.337   5.540   6.281  0.0203 -0.0700  0.3078
  867POPE   C2B12900  11.351   5.428   6.611  0.2290  0.2253 -0.3577
  867POPE   C3B12901  11.249   5.147   6.914  0.0850  0.1614 -0.1402
  867POPE   C4B12902  11.009   4.920   7.277  0.0656 -0.4775  0.0460
  868POPE   NH312903  14.800  18.024   6.438 -0.0746  0.2325  0.0321
  868POPE   PO412904  14.657  18.446   6.425  0.1321 -0.0890 -0.0843
  868POPE   GL112905  14.607  18.384   6.811  0.4068 -0.0180  0.2201
  868POPE   GL212906  14.766  18.230   6.890 -0.2479  0.1036 -0.1873
  868POPE   C1A12907  14.524  18.507   7.229  0.2049  0.0141  0.1353
  868POPE   D2A12908  14.586  18.773   7.507  0.0410 -0.0689 -0.0186
  868POPE   C3A12909  14.538  18.707   7.950  0.3226 -0.3541 -0.1674
  868POPE   C4A12910  14.325  18.527   8.227  0.0005 -0.1261  0.0449
  868POPE   C1B12911  14.880  17.772   7.095 -0.3737  0.3833  0.1528
  868POPE   C2B12912  15.177  17.637   7.270 -0.0640 -0.0952 -0.0404
  868POPE   C3B12913  15.379  17.551   7.593  0.0985  0.2464 -0.2170
  868POPE   C4B12914  15.468  17.618   7.995  0.3309  0.5028  0.0774
  869POPE   NH312915   0.077   1.174   6.141 -0.0885  0.0925 -0.3519
  869POPE   PO412916   0.362   0.778   5.846  0.1550  0.0200  0.2366
  869POPE   GL112917   0.313   0.704   6.360 -0.0911 -0.1658 -0.0101
  869POPE   GL212918   0.307   0.972   6.554 -0.2458 -0.1963 -0.0257
  869POPE   C1A12919   0.304   0.409   6.698  0.0933  0.1779  0.2669
  869POPE   D2A12920   0.108   0.221   7.067 -0.2275 -0.1081 -0.3978
  869POPE   C3A12921  -0.319   0.345   7.155 -0.1204 -0.0749 -0.1898
  869POPE   C4A12922  -0.447   0.530   7.511  0.2967  0.0102 -0.0201
  869POPE   C1B12923   0.282   0.851   6.935 -0.0949 -0.2396 -0.0756
  869POPE   C2B12924   0.071   0.848   7.353  0.1688 -0.2291 -0.0503
  869POPE   C3B12925  -0.102   0.978   7.699 -0.1434 -0.1391 -0.2855
  869POPE   C4B12926   0.049   1.173   8.058 -0.2494  0.0022 -0.2130
  870POPE   NH312927  11.321  14.701   6.121  0.1958  0.0661  0.1797
  870POPE   PO412928  11.347  14.199   6.176  0.0527  0.0938  0.0822
  870POPE   GL112929  11.584  14.296   6.482  0.1259 -0.2976 -0.0993
  870POPE   GL212930  11.853  14.169   6.560 -0.1629 -0.1254 -0.2131
  870POPE   C1A12931  11.701  14.558   6.931  0.1150 -0.1355 -0.3754
  870POPE   D2A12932  11.833  14.770   7.316  0.2445  0.1509 -0.1282
  870POPE   C3A12933  11.726  14.945   7.733  0.1795 -0.1672 -0.1103
  870POPE   C4A12934  11.851  14.707   8.187  0.3092 -0.1777  0.1607
  870POPE   C1B12935  11.949  14.020   6.923  0.1568  0.4388 -0.1617
  870POPE   C2B12936  12.117  14.189   7.313  0.1905 -0.1797 -0.0227
  870POPE   C3B12937  12.113  14.123   7.811 -0.0297  0.1285  0.4478
  870POPE   C4B12938  12.128  14.196   8.227  0.2334  0.3041  0.1420
  871YOPE   NH312939  11.986   9.529   5.568 -0.3790  0.1899  0.2861
  871YOPE   PO412940  11.839   9.245   5.330  0.0982 -0.1230 -0.2381
  871YOPE   GL112941  11.656   8.954   5.597  0.0696 -0.0339  0.2581
  871YOPE   GL212942  11.760   8.645   5.702 -0.0399 -0.1458 -0.0777
  871YOPE   C1A12943  11.464   8.921   5.997  0.2615 -0.0444 -0.0385
  871YOPE   D2A12944  11.668   9.092   6.413  0.1513 -0.3306  0.1140
  871YOPE   C3A12945  11.801   8.864   6.788 -0.0379 -0.2009  0.2435
  871YOPE   C4A12946  11.548   8.850   7.172  0.0211 -0.0190 -0.2650
  871YOPE   C1B12947  11.830   8.191   5.963  0.0122  0.2266  0.3004
  871YOPE   C2B12948  12.057   8.050   6.276 -0.2064  0.0326 -0.0448
  871YOPE   D3B12949  12.260   8.160   6.651  0.1617 -0.0668 -0.0560
  871YOPE   C4B12950  12.251   8.606   6.778  0.1592 -0.2337  0.1931
  872YOPE   NH312951  10.651   8.237   5.232  0.0479 -0.0090 -0.0770
  872YOPE   PO412952  10.209   8.321   5.223  0.2062  0.0033  0.0035
  872YOPE   GL112953  10.099   8.487   5.677 -0.0656 -0.1270  0.1777
  872YOPE   GL212954   9.812   8.240   5.795 -0.1760  0.1313 -0.0923
  872YOPE   C1A12955  10.508   8.662   5.942  0.0767 -0.1087 -0.0626
  872YOPE   D2A12956  10.666   8.938   6.385 -0.0469 -0.1022  0.1874
  872YOPE   C3A12957  10.500   8.829   6.801  0.1737  0.0098 -0.1879
  872YOPE   C4A12958  10.675   8.468   7.055  0.0465 -0.1701  0.0182
  872YOPE   C1B12959   9.819   8.401   6.161 -0.3479 -0.1034  0.3915
  872YOPE   C2B12960   9.730   8.376   6.624  0.0865  0.0017  0.0740
  872YOPE   D3B12961   9.905   8.278   6.996  0.1377 -0.1864  0.0473
  872YOPE   C4B12962  10.227   8.578   7.124 -0.1850  0.0154  0.1704
  873YOPE   NH312963   2.611   4.880   5.808 -0.0195  0.1926 -0.0604
  873YOPE   PO412964   3.027   5.042   5.876 -0.1026  0.0156  0.1333
  873YOPE   GL112965   2.834   5.370   6.125  0.1054 -0.0127  0.0818
  873YOPE   GL212966   3.103   5.316   6.256 -0.2477 -0.0683 -0.1963
  873YOPE   C1A12967   2.769   5.691   6.555 -0.1670  0.3192  0.2687
  873YOPE   D2A12968   2.818   5.845   6.954  0.1492 -0.1923  0.1443
  873YOPE   C3A12969   2.865   6.245   6.973  0.3650 -0.2472  0.4018
  873YOPE   C4A12970   2.835   6.685   7.182 -0.2160  0.0528 -0.0825
  873YOPE   C1B12971   3.281   5.061   6.587 -0.0012  0.0256 -0.3040
  873YOPE   C2B12972   3.244   5.078   7.051  0.1663 -0.0225 -0.1849
  873YOPE   D3B12973   3.132   4.972   7.442 -0.0590 -0.2837 -0.0458
  873YOPE   C4B12974   3.210   5.323   7.694  0.0760  0.2007  0.1936
  874YOPE   NH312975   1.639  14.431   6.267 -0.0249  0.0611  0.2330
  874YOPE   PO412976   1.956  14.104   6.210  0.1441  0.0793  0.3106
  874YOPE   GL112977   2.136  14.101   6.578 -0.2154 -0.1753 -0.0486
  874YOPE   GL212978   2.524  13.928   6.587 -0.0519 -0.0411 -0.0255
  874YOPE   C1A12979   2.168  14.168   6.926  0.0186 -0.1676 -0.3254
  874YOPE   D2A12980   2.185  14.269   7.274  0.1814 -0.1056 -0.0712
  874YOPE   C3A12981   2.067  14.190   7.629 -0.0329 -0.0751  0.4165
  874YOPE   C4A12982   1.882  14.306   7.952  0.0299  0.2230  0.1515
  874YOPE   C1B12983   2.343  13.702   6.921  0.0748  0.0368  0.1348
  874YOPE   C2B12984   2.224  13.724   7.344  0.2888  0.1447  0.0903
  874YOPE   D3B12985   2.229  13.734   7.797 -0.1093 -0.1003 -0.0395
  874YOPE   C4B12986   2.043  13.877   8.168 -0.0904 -0.0856  0.1002
  875YOPE   NH312987   9.158  17.765   6.471 -0.0632 -0.1317  0.0003
  875YOPE   PO412988   8.916  17.344   6.502  0.2442 -0.2343  0.1078
  875YOPE   GL112989   8.904  17.512   6.891 -0.2573  0.1402 -0.2584
  875YOPE   GL212990   8.626  17.500   7.084 -0.0768  0.3114 -0.1143
  875YOPE   C1A12991   9.064  17.647   7.295 -0.0178  0.4260  0.1105
  875YOPE   D2A12992   9.245  17.937   7.577  0.2418  0.2408  0.2994
  875YOPE   C3A12993   9.171  18.086   7.975 -0.1034  0.0545  0.2340
  875YOPE   C4A12994   9.487  18.146   8.197 -0.0346 -0.0799 -0.0522
  875YOPE   C1B12995   8.511  17.561   7.476  0.2626  0.3782  0.0598
  875YOPE   C2B12996   8.544  17.723   7.873  0.0103 -0.1172 -0.1766
  875YOPE   D3B12997   8.748  17.761   8.245 -0.0205  0.1823 -0.0630
  875YOPE   C4B12998   8.730  17.919   8.588  0.2740  0.1842  0.2454
  876YOPE   NH312999   3.347   7.236   5.942 -0.4387 -0.0250 -0.0930
  876YOPE   PO413000   3.703   7.270   5.669  0.2951  0.1019  0.0163
  876YOPE   GL113001   3.818   7.060   6.046 -0.0370  0.1495  0.1486
  876YOPE   GL213002   3.772   7.243   6.279 -0.0821 -0.1120  0.1369
  876YOPE   C1A13003   3.741   6.710   6.232  0.0776 -0.0472  0.0667
  876YOPE   D2A13004   3.427   6.535   6.404 -0.2909  0.1924 -0.1623
  876YOPE   C3A13005   3.045   6.587   6.634  0.1399 -0.3374  0.2348
  876YOPE   C4A13006   2.633   6.637   6.727 -0.1016  0.1039 -0.4191
  876YOPE   C1B13007   3.868   7.048   6.603 -0.0847  0.1764 -0.0396
  876YOPE   C2B13008   4.046   6.904   6.952 -0.3749  0.5117 -0.1596
  876YOPE   D3B13009   3.849   6.968   7.399 -0.2182  0.0901  0.1384
  876YOPE   C4B13010   3.662   6.756   7.767 -0.1789  0.1447 -0.2187
  877YOPE   NH313011  14.578  10.616   5.058  0.0317 -0.1544 -0.0072
  877YOPE   PO413012  14.348  10.707   5.511 -0.0960 -0.2439  0.0838
  877YOPE   GL113013  14.190  10.863   5.820  0.1056 -0.1801  0.0632
  877YOPE   GL213014  14.341  11.098   6.035  0.1024  0.0706  0.2565
  877YOPE   C1A13015  13.827  10.879   6.158 -0.3400  0.5350 -0.3404
  877YOPE   D2A13016  13.586  10.881   6.495 -0.1266 -0.0165 -0.2068
  877YOPE   C3A13017  13.672  10.700   6.780 -0.1672 -0.0080 -0.1251
  877YOPE   C4A13018  13.775  10.315   6.829  0.1864 -0.0514  0.1387
  877YOPE   C1B13019  14.298  10.805   6.290 -0.1470 -0.1554 -0.1529
  877YOPE   C2B13020  14.572  10.448   6.570 -0.2664 -0.2259  0.1719
  877YOPE   D3B13021  14.738  10.319   6.987  0.0484  0.3292 -0.1477
  877YOPE   C4B13022  14.899  10.285   7.434  0.1528  0.5201 -0.0913
  878YOPE   NH313023   8.191  10.662   5.377  0.0644 -0.1549  0.2081
  878YOPE   PO413024   8.507  10.466   5.597  0.1973 -0.1524  0.3777
  878YOPE   GL113025   8.599  10.400   5.992  0.0320  0.4384  0.2323
  878YOPE   GL213026   8.520  10.294   6.217 -0.2276  0.1330 -0.4245
  878YOPE   C1A13027   8.839  10.640   6.184 -0.0511 -0.1694  0.5423
  878YOPE   D2A13028   8.957  11.088   6.305 -0.1797 -0.0462  0.3041
  878YOPE   C3A13029   8.964  11.324   6.721  0.0195 -0.1337  0.0687
  878YOPE   C4A13030   9.342  11.482   7.057 -0.1299  0.3063  0.2240
  878YOPE   C1B13031   8.559  10.348   6.615  0.1130  0.3107  0.3991
  878YOPE   C2B13032   8.438  10.601   6.850  0.0476  0.0053 -0.0814
  878YOPE   D3B13033   8.380  10.683   7.284  0.1012  0.0877  0.2735
  878YOPE   C4B13034   8.520  10.643   7.777  0.1329 -0.2077  0.2872
  879YOPE   NH313035  12.096  13.015   5.318  0.0480 -0.2588  0.0822
  879YOPE   PO413036  12.277  12.797   5.597  0.1703  0.0826 -0.1841
  879YOPE   GL113037  12.271  12.834   5.988  0.3844 -0.4160  0.0777
  879YOPE   GL213038  11.974  12.918   6.074  0.1986 -0.0475 -0.1725
  879YOPE   C1A13039  12.397  12.750   6.458  0.2727 -0.2500 -0.0337
  879YOPE   D2A13040  12.368  12.673   6.871 -0.1729  0.0668  0.1826
  879YOPE   C3A13041  12.338  12.439   7.191  0.1217 -0.0357  0.2020
  879YOPE   C4A13042  12.283  12.020   7.426 -0.3516 -0.2030  0.0539
  879YOPE   C1B13043  11.917  12.544   6.200 -0.3464 -0.2667  0.0015
  879YOPE   C2B13044  12.082  12.405   6.511  0.4632 -0.3086 -0.0021
  879YOPE   D3B13045  11.909  12.501   6.872 -0.0693 -0.2437  0.2272
  879YOPE   C4B13046  11.588  12.653   7.007  0.1461 -0.0127  0.0437
  880YOPE   NH313047   6.267   5.549   5.702 -0.1146  0.3155 -0.3261
  880YOPE   PO413048   6.076   5.930   5.742 -0.0210  0.0643  0.2614
  880YOPE   GL113049   5.901   5.703   6.015 -0.0092 -0.1691 -0.3486
  880YOPE   GL213050   5.594   5.558   6.159  0.1255 -0.1731 -0.0321
  880YOPE   C1A13051   6.067   5.611   6.537 -0.2596  0.1312  0.2739
  880YOPE   D2A13052   6.109   5.548   6.888 -0.2987  0.1517  0.1241
  880YOPE   C3A13053   6.261   5.755   7.183 -0.3509 -0.0985  0.0601
  880YOPE   C4A13054   6.345   6.243   7.216  0.1752  0.2661  0.0774
  880YOPE   C1B13055   5.572   5.588   6.583 -0.1171  0.1442  0.1812
  880YOPE   C2B13056   5.564   5.352   6.984 -0.1760 -0.1823 -0.3695
  880YOPE   D3B13057   5.419   5.142   7.389 -0.2341 -0.1724  0.2254
  880YOPE   C4B13058   5.684   5.136   7.728  0.0628  0.1192 -0.0067
  881YOPE   NH313059  15.551   7.067   5.837  0.0848  0.0360 -0.2083
  881YOPE   PO413060  15.535   7.449   6.038 -0.2106  0.1078  0.1725
  881YOPE   GL113061  15.408   7.457   6.485 -0.2130  0.0151  0.2026
  881YOPE   GL213062  15.236   7.222   6.542 -0.0466  0.4756  0.1990
  881YOPE   C1A13063  15.508   7.371   6.912  0.1756  0.0196 -0.1983
  881YOPE   D2A13064  15.393   7.068   7.041  0.1235  0.3523  0.2145
  881YOPE   C3A13065  15.013   6.818   7.166  0.4108 -0.0395  0.4047
  881YOPE   C4A13066  14.800   6.649   6.839  0.1656 -0.4254 -0.0235
  881YOPE   C1B13067  14.930   7.129   6.809  0.0422 -0.1142 -0.0713
  881YOPE   C2B13068  14.827   7.283   7.190  0.1347  0.0911 -0.1552
  881YOPE   D3B13069  14.756   7.537   7.628  0.0258  0.2887 -0.0168
  881YOPE   C4B13070  14.709   7.533   8.081  0.1320  0.1479  0.2071
  882YOPE   NH313071   9.167  13.474   5.902  0.0815 -0.1278 -0.0313
  882YOPE   PO413072   8.941  13.373   6.250  0.1196 -0.2878 -0.3138
  882YOPE   GL113073   8.598  13.393   6.628 -0.1088 -0.2337  0.1641
  882YOPE   GL213074   8.423  13.194   6.827 -0.0374  0.2051 -0.0374
  882YOPE   C1A13075   8.650  13.523   7.084  0.1870  0.1520 -0.0276
  882YOPE   D2A13076   8.478  13.835   7.283 -0.2390  0.0110 -0.1309
  882YOPE   C3A13077   8.618  13.849   7.703  0.3560  0.1115  0.1863
  882YOPE   C4A13078   8.869  13.789   8.045 -0.1678  0.1813 -0.2557
  882YOPE   C1B13079   8.529  12.810   7.068 -0.0667  0.0809  0.0891
  882YOPE   C2B13080   8.827  12.617   7.320  0.0120 -0.3405 -0.0076
  882YOPE   D3B13081   8.964  12.485   7.773  0.0298 -0.1993  0.0777
  882YOPE   C4B13082   9.038  12.471   8.174  0.0469  0.0408  0.0138
  883YOPE   NH313083  17.059   8.112   5.302 -0.1439 -0.1104 -0.3426
  883YOPE   PO413084  17.125   8.563   5.564  0.0242 -0.0754  0.0371
  883YOPE   GL113085  17.251   8.406   5.987  0.0526  0.1101  0.2988
  883YOPE   GL213086  17.320   8.143   6.158  0.1722  0.2175 -0.3914
  883YOPE   C1A13087  17.364   8.578   6.442  0.2500  0.0818 -0.1125
  883YOPE   D2A13088  17.199   8.806   6.777 -0.0137 -0.2341 -0.2857
  883YOPE   C3A13089  17.289   8.884   7.202  0.0757  0.1057 -0.1543
  883YOPE   C4A13090  17.690   9.008   7.280 -0.1238  0.0081  0.1338
  883YOPE   C1B13091  17.534   8.122   6.541  0.0484  0.0737  0.0738
  883YOPE   C2B13092  17.775   8.042   6.967  0.2007 -0.1211  0.0988
  883YOPE   D3B13093  17.990   8.225   7.334  0.1661  0.0095 -0.5145
  883YOPE   C4B13094  18.195   8.626   7.326 -0.1534 -0.0264  0.1651
  884YOPE   NH313095  16.420  17.715   6.309 -0.1629  0.3899  0.0134
  884YOPE   PO413096  16.071  17.949   6.338 -0.1312 -0.1848  0.3377
  884YOPE   GL113097  16.170  18.163   6.806  0.0669 -0.5261  0.4066
  884YOPE   GL213098  16.431  17.916   6.936  0.2802  0.2005  0.0774
  884YOPE   C1A13099  16.377  18.460   7.067  0.2381 -0.2420 -0.2062
  884YOPE   D2A13100  16.724  18.721   7.141 -0.1305  0.0957 -0.0678
  884YOPE   C3A13101  16.872  18.727   7.546 -0.0236 -0.4320  0.3442
  884YOPE   C4A13102  16.766  18.592   7.927  0.0750  0.2340  0.0195
  884YOPE   C1B13103  16.516  17.931   7.284  0.1442  0.3517 -0.1987
  884YOPE   C2B13104  16.593  17.938   7.633 -0.0714 -0.4459 -0.0602
  884YOPE   D3B13105  16.823  17.730   7.918 -0.3416  0.0983  0.2111
  884YOPE   C4B13106  17.049  17.843   8.196  0.4204  0.0939 -0.0854
  885YOPE   NH313107   2.952   3.561   6.127  0.4358  0.0816 -0.0293
  885YOPE   PO413108   3.439   3.605   6.061 -0.1753 -0.2777 -0.0030
  885YOPE   GL113109   3.373   3.533   6.521  0.1096 -0.2656  0.0800
  885YOPE   GL213110   3.043   3.669   6.662 -0.1009  0.1716  0.2176
  885YOPE   C1A13111   3.466   3.618   6.950 -0.0104 -0.1915 -0.2664
  885YOPE   D2A13112   3.390   3.583   7.374 -0.1103 -0.0923 -0.1595
  885YOPE   C3A13113   3.259   4.011   7.584 -0.1753 -0.1119  0.1664
  885YOPE   C4A13114   3.216   4.503   7.567 -0.0012 -0.1406 -0.0634
  885YOPE   C1B13115   2.984   3.623   7.059 -0.2507 -0.2295  0.1049
  885YOPE   C2B13116   2.869   3.744   7.490 -0.1551  0.1504  0.0958
  885YOPE   D3B13117   2.761   3.726   7.862  0.0615  0.0579 -0.1672
  885YOPE   C4B13118   2.736   3.538   8.213 -0.1835 -0.0031  0.1065
  886YOPE   NH313119  10.557   1.589   5.878 -0.0438 -0.2712 -0.3589
  886YOPE   PO413120  10.131   1.740   5.855 -0.2133  0.0359 -0.0201
  886YOPE   GL113121  10.273   1.678   6.353  0.1235 -0.0588 -0.0588
  886YOPE   GL213122  10.378   1.913   6.431  0.3931  0.0710 -0.1948
  886YOPE   C1A13123  10.294   1.462   6.757  0.0446 -0.2288  0.0305
  886YOPE   D2A13124   9.990   1.422   7.075 -0.0016  0.2980  0.1121
  886YOPE   C3A13125  10.115   1.811   7.268  0.1369  0.2331 -0.0344
  886YOPE   C4A13126  10.566   2.045   7.267 -0.0932  0.1126  0.2528
  886YOPE   C1B13127  10.671   2.140   6.611  0.4046 -0.1856  0.0912
  886YOPE   C2B13128  10.877   2.485   6.579 -0.4812 -0.3798 -0.4016
  886YOPE   D3B13129  11.267   2.814   6.450  0.3675 -0.0811 -0.3786
  886YOPE   C4B13130  11.583   2.742   6.267  0.1904 -0.1005 -0.1518
  887YOPE   NH313131   0.123  12.335   5.625  0.1041  0.0222 -0.2473
  887YOPE   PO413132   0.376  12.740   5.773  0.0551 -0.0576  0.0662
  887YOPE   GL113133   0.304  12.958   6.220 -0.1607  0.3671  0.1045
  887YOPE   GL213134   0.544  13.075   6.334 -0.0532 -0.2161 -0.0450
  887YOPE   C1A13135   0.069  13.011   6.631  0.1365  0.1204 -0.2312
  887YOPE   D2A13136  -0.021  13.094   7.007 -0.0788 -0.0055 -0.0555
  887YOPE   C3A13137  -0.422  13.356   7.131 -0.2315 -0.4230 -0.2263
  887YOPE   C4A13138  -0.735  13.270   7.331  0.0235  0.0337  0.1490
  887YOPE   C1B13139   0.437  13.320   6.610 -0.0206  0.1705  0.3096
  887YOPE   C2B13140   0.421  13.355   6.994 -0.0783  0.0132  0.1652
  887YOPE   D3B13141   0.397  13.347   7.447  0.2738  0.0317 -0.2008
  887YOPE   C4B13142   0.532  13.081   7.728 -0.0380 -0.3510  0.0313
  888YOPE   NH313143  11.883   0.985   5.792 -0.2417  0.0433 -0.1103
  888YOPE   PO413144  12.228   0.689   5.829  0.0038  0.0341  0.1237
  888YOPE   GL113145  12.267   0.581   6.180  0.0671  0.1196  0.0628
  888YOPE   GL213146  11.948   0.735   6.322 -0.0208 -0.1998  0.0995
  888YOPE   C1A13147  12.177   0.455   6.616  0.0714 -0.2654  0.0880
  888YOPE   D2A13148  12.208   0.614   6.974  0.0932 -0.0026 -0.0689
  888YOPE   C3A13149  12.041   0.981   6.988  0.1265  0.0827 -0.1839
  888YOPE   C4A13150  11.980   1.340   7.296 -0.0085 -0.1403  0.0449
  888YOPE   C1B13151  11.798   0.825   6.612 -0.0447 -0.2517  0.0784
  888YOPE   C2B13152  11.560   0.753   6.994 -0.0718 -0.1493  0.0798
  888YOPE   D3B13153  11.216   0.816   7.067  0.1691  0.2743 -0.1207
  888YOPE   C4B13154  10.949   0.799   7.414  0.4209  0.1040  0.0269
  889YOPE   NH313155  11.633  10.941   5.409 -0.2012 -0.0434  0.0552
  889YOPE   PO413156  11.699  10.654   5.747  0.2565 -0.3546  0.0553
  889YOPE   GL113157  11.668  10.621   6.136 -0.3624  0.0807 -0.0443
  889YOPE   GL213158  11.926  10.542   6.303 -0.3713 -0.0682  0.2817
  889YOPE   C1A13159  11.523  10.702   6.636  0.2912  0.2209  0.2827
  889YOPE   D2A13160  11.150  10.677   6.887 -0.0934  0.3750  0.1485
  889YOPE   C3A13161  10.979  10.305   7.098 -0.1022  0.0626  0.2249
  889YOPE   C4A13162  11.012   9.970   7.405 -0.0004  0.0667 -0.1494
  889YOPE   C1B13163  12.046  10.818   6.473 -0.0059  0.1203 -0.1191
  889YOPE   C2B13164  12.306  11.057   6.867 -0.2055 -0.0244  0.0053
  889YOPE   D3B13165  12.610  10.911   7.152  0.1596 -0.0565 -0.0835
  889YOPE   C4B13166  12.603  10.824   7.579  0.3516 -0.1134 -0.1842
  890YOPE   NH313167   7.324   7.030   5.537 -0.0393 -0.0861 -0.2786
  890YOPE   PO413168   7.731   6.892   5.257  0.2989 -0.2153 -0.0908
  890YOPE   GL113169   7.773   6.718   5.699  0.2313  0.0297 -0.0642
  890YOPE   GL213170   7.805   6.987   5.741  0.0614  0.2627 -0.4522
  890YOPE   C1A13171   8.008   6.530   6.026  0.1289  0.5869  0.1290
  890YOPE   D2A13172   8.274   6.494   6.289 -0.0791  0.4331  0.1763
  890YOPE   C3A13173   8.226   6.733   6.693 -0.0675  0.3097 -0.0461
  890YOPE   C4A13174   8.173   6.653   7.084  0.0595 -0.1541 -0.2432
  890YOPE   C1B13175   7.569   7.027   6.173  0.0716  0.1896 -0.0057
  890YOPE   C2B13176   7.414   6.962   6.585 -0.1079  0.0723 -0.0249
  890YOPE   D3B13177   7.204   6.884   6.965  0.3598 -0.0982  0.0789
  890YOPE   C4B13178   6.980   6.809   7.329  0.2282 -0.3249 -0.2555
  891YOPE   NH313179   6.418   6.309   5.726  0.0756  0.1307  0.1713
  891YOPE   PO413180   6.531   5.933   5.387 -0.1606  0.0427 -0.1489
  891YOPE   GL113181   6.616   5.893   5.882 -0.2773  0.0183 -0.0971
  891YOPE   GL213182   6.746   6.032   6.065 -0.2486  0.2121  0.1321
  891YOPE   C1A13183   6.934   5.606   5.972  0.2678  0.1365  0.0777
  891YOPE   D2A13184   7.041   5.444   6.365  0.0480  0.3250 -0.0365
  891YOPE   C3A13185   6.861   5.321   6.719 -0.2384  0.1268  0.4384
  891YOPE   C4A13186   6.597   5.278   7.097  0.0059 -0.0906 -0.1899
  891YOPE   C1B13187   6.773   6.296   6.470 -0.2052 -0.1216  0.1572
  891YOPE   C2B13188   6.893   6.439   6.958  0.1797  0.4099 -0.0539
  891YOPE   D3B13189   6.873   6.347   7.361 -0.2833  0.0469 -0.1471
  891YOPE   C4B13190   6.679   6.192   7.763  0.1706 -0.0894  0.3181
  892YOPE   NH313191   8.093   8.953   5.576  0.0304 -0.0523 -0.0243
  892YOPE   PO413192   7.692   9.234   5.657  0.0370 -0.1360 -0.0191
  892YOPE   GL113193   7.704   9.079   6.093 -0.3181 -0.0782  0.2982
  892YOPE   GL213194   7.480   8.904   6.246  0.0177  0.3491  0.3605
  892YOPE   C1A13195   7.871   8.644   6.332 -0.3719 -0.2648 -0.0467
  892YOPE   D2A13196   8.042   8.374   6.568 -0.0503 -0.0519 -0.1518
  892YOPE   C3A13197   8.130   8.560   6.866 -0.0381  0.1411 -0.2388
  892YOPE   C4A13198   8.433   8.653   7.226  0.2250  0.0479 -0.2260
  892YOPE   C1B13199   7.698   8.932   6.671 -0.1127  0.0319  0.1106
  892YOPE   C2B13200   7.845   8.996   7.144 -0.2824  0.0726  0.1386
  892YOPE   D3B13201   8.166   8.924   7.473  0.2755 -0.0645 -0.0332
  892YOPE   C4B13202   8.272   8.864   7.970 -0.1934 -0.1599  0.1258
  893YOPE   NH313203  12.102   4.434   5.265 -0.0314 -0.0131  0.3793
  893YOPE   PO413204  11.658   4.130   5.181 -0.0295  0.0341  0.0245
  893YOPE   GL113205  11.713   4.174   5.595 -0.2145 -0.0120  0.4107
  893YOPE   GL213206  11.354   3.973   5.705 -0.1243 -0.0054  0.0318
  893YOPE   C1A13207  11.855   4.361   5.988  0.1764 -0.1269  0.1432
  893YOPE   D2A13208  12.172   4.515   6.177 -0.4236  0.1511  0.2325
  893YOPE   C3A13209  12.066   4.475   6.670  0.0006  0.2628  0.1391
  893YOPE   C4A13210  12.035   4.647   7.111 -0.3010  0.0841  0.1594
  893YOPE   C1B13211  11.763   3.846   5.982  0.0274  0.1085 -0.0536
  893YOPE   C2B13212  11.980   3.486   5.932 -0.0907 -0.0552 -0.1363
  893YOPE   D3B13213  11.894   3.067   5.783  0.4840 -0.0983 -0.1554
  893YOPE   C4B13214  12.094   2.706   5.849 -0.1232 -0.0678  0.2066
  894YOPE   NH313215  14.519   7.251   5.821 -0.0082  0.4577  0.2103
  894YOPE   PO413216  14.651   7.647   5.756  0.1621  0.2807  0.1808
  894YOPE   GL113217  14.738   7.547   6.172 -0.0653 -0.0973  0.0956
  894YOPE   GL213218  15.020   7.581   6.242 -0.0398  0.1657  0.0297
  894YOPE   C1A13219  14.545   7.564   6.570  0.2511 -0.3394  0.1629
  894YOPE   D2A13220  14.419   7.500   6.965 -0.1342  0.2387 -0.2439
  894YOPE   C3A13221  14.680   7.779   7.116  0.2479 -0.2521 -0.3139
  894YOPE   C4A13222  14.947   8.017   7.403  0.0995  0.0251  0.1094
  894YOPE   C1B13223  15.043   7.647   6.732  0.0023  0.1529 -0.1841
  894YOPE   C2B13224  15.207   7.632   7.224 -0.2529 -0.1923 -0.0479
  894YOPE   D3B13225  15.386   7.737   7.441  0.0873  0.1353  0.1935
  894YOPE   C4B13226  15.730   7.987   7.525 -0.1497  0.0375  0.1421
  895YOPE   NH313227  13.357  18.379   5.928 -0.0159  0.0424  0.2683
  895YOPE   PO413228  13.437  17.966   6.047  0.0262  0.3911  0.0528
  895YOPE   GL113229  13.352  17.942   6.442 -0.3423 -0.0223 -0.1061
  895YOPE   GL213230  13.257  18.141   6.456  0.0548  0.0578  0.0422
  895YOPE   C1A13231  13.329  18.043   6.979 -0.3987 -0.0006 -0.2543
  895YOPE   D2A13232  13.219  18.156   7.481  0.1035 -0.2892 -0.0394
  895YOPE   C3A13233  13.044  18.260   7.819  0.0091  0.1154 -0.2087
  895YOPE   C4A13234  12.903  17.955   8.157 -0.0480  0.3529 -0.4635
  895YOPE   C1B13235  12.978  18.318   6.690 -0.3233 -0.2674  0.0865
  895YOPE   C2B13236  13.166  18.571   7.000  0.1967  0.1116  0.2821
  895YOPE   D3B13237  13.288  18.926   7.228  0.1819  0.0555 -0.1123
  895YOPE   C4B13238  13.116  19.407   7.086  0.4036 -0.0858  0.0051
  896YOPE   NH313239   7.869  12.856   5.555 -0.1479  0.1420  0.0655
  896YOPE   PO413240   7.972  12.914   5.961  0.1646  0.0083  0.1273
  896YOPE   GL113241   7.984  12.985   6.363 -0.0670  0.3491  0.0981
  896YOPE   GL213242   7.743  13.030   6.366  0.0542 -0.2201 -0.2177
  896YOPE   C1A13243   8.006  12.947   6.708  0.1631 -0.0770  0.1153
  896YOPE   D2A13244   8.027  12.993   7.187 -0.2294 -0.0082  0.0754
  896YOPE   C3A13245   8.415  12.922   7.522  0.1462  0.1597  0.1136
  896YOPE   C4A13246   8.516  12.717   7.824  0.0101  0.3987 -0.1011
  896YOPE   C1B13247   7.653  13.435   6.752  0.0425 -0.0073 -0.1183
  896YOPE   C2B13248   7.622  13.444   7.047  0.0648  0.0613 -0.1560
  896YOPE   D3B13249   7.724  13.297   7.456  0.1877 -0.1422  0.1612
  896YOPE   C4B13250   7.627  13.319   7.891  0.2250  0.2320 -0.1877
  897YOPE   NH313251  18.176  16.989   5.530  0.0345 -0.0795 -0.0792
  897YOPE   PO413252  18.154  16.743   5.846 -0.1830 -0.1404  0.0714
  897YOPE   GL113253  17.934  16.805   6.249  0.2941 -0.1171  0.1650
  897YOPE   GL213254  17.703  16.574   6.302 -0.0523  0.0560 -0.1189
  897YOPE   C1A13255  17.839  17.054   6.600  0.1308 -0.1080  0.0247
  897YOPE   D2A13256  17.751  17.118   7.036  0.1705 -0.0096 -0.0622
  897YOPE   C3A13257  17.964  17.029   7.495  0.2084  0.3704  0.1902
  897YOPE   C4A13258  18.224  17.300   7.793 -0.1748 -0.1148 -0.1674
  897YOPE   C1B13259  17.566  16.504   6.735 -0.0912  0.1960  0.1336
  897YOPE   C2B13260  17.383  16.327   7.075  0.4159  0.0724  0.0400
  897YOPE   D3B13261  17.454  16.379   7.519  0.3369  0.0975 -0.2159
  897YOPE   C4B13262  17.575  16.688   7.729 -0.0626  0.0048 -0.1897
  898YOPE   NH313263   7.575   2.792   6.135 -0.1327 -0.0289  0.0857
  898YOPE   PO413264   7.888   2.341   6.028  0.0117  0.2827  0.1818
  898YOPE   GL113265   8.129   2.662   6.280 -0.1686  0.1716  0.4149
  898YOPE   GL213266   7.915   2.836   6.553  0.0230  0.2512 -0.2140
  898YOPE   C1A13267   8.446   2.754   6.621  0.3147  0.0378 -0.1820
  898YOPE   D2A13268   8.591   2.812   7.011  0.1108  0.1718 -0.1674
  898YOPE   C3A13269   8.702   2.612   7.353 -0.0372 -0.1030 -0.2694
  898YOPE   C4A13270   8.677   2.334   7.707 -0.0507  0.3224 -0.3914
  898YOPE   C1B13271   8.044   2.751   6.887 -0.2537 -0.0072  0.2677
  898YOPE   C2B13272   8.078   2.867   7.226 -0.0852  0.2513  0.1721
  898YOPE   D3B13273   8.312   2.891   7.586  0.1340 -0.0248  0.0130
  898YOPE   C4B13274   8.540   2.823   7.986  0.1803  0.0585  0.2445
  899YOPE   NH313275  11.026  15.503   6.181 -0.0321 -0.0001 -0.2558
  899YOPE   PO413276  11.019  15.079   5.971  0.2576 -0.0492  0.0297
  899YOPE   GL113277  10.692  15.148   6.336  0.3039 -0.5065 -0.1952
  899YOPE   GL213278  10.381  15.274   6.329 -0.1035  0.3792 -0.0751
  899YOPE   C1A13279  10.482  15.113   6.802  0.2201 -0.0951 -0.1198
  899YOPE   D2A13280  10.116  14.839   6.879  0.3951  0.2008 -0.3255
  899YOPE   C3A13281  10.095  14.404   6.727 -0.5150 -0.0281  0.0676
  899YOPE   C4A13282   9.924  13.974   6.738  0.0791 -0.5383  0.1640
  899YOPE   C1B13283  10.103  15.502   6.502 -0.1946  0.1621 -0.3084
  899YOPE   C2B13284   9.866  15.518   6.948 -0.1220 -0.1033  0.0262
  899YOPE   D3B13285   9.661  15.826   7.105  0.0380  0.1592  0.0180
  899YOPE   C4B13286   9.579  15.938   7.432 -0.0645 -0.2687 -0.3379
  900YOPE   NH313287  16.511  10.662   5.143  0.0844  0.1752  0.0448
  900YOPE   PO413288  16.691  11.062   5.411  0.0753 -0.0806  0.2271
  900YOPE   GL113289  16.774  11.335   5.795  0.0064 -0.3630 -0.1869
  900YOPE   GL213290  17.132  11.561   5.863 -0.0667  0.1560 -0.1441
  900YOPE   C1A13291  16.591  11.489   6.252  0.0430  0.0986 -0.2470
  900YOPE   D2A13292  16.409  11.684   6.580 -0.2786  0.0066  0.0403
  900YOPE   C3A13293  16.161  11.671   6.851 -0.1285 -0.2052 -0.4043
  900YOPE   C4A13294  15.958  11.731   7.225  0.2900 -0.0185  0.2430
  900YOPE   C1B13295  17.114  11.620   6.409 -0.0289 -0.0204  0.1853
  900YOPE   C2B13296  16.930  11.468   6.845 -0.2579  0.1500 -0.0240
  900YOPE   D3B13297  17.015  11.307   7.232 -0.0265  0.0233 -0.0939
  900YOPE   C4B13298  16.935  11.304   7.673 -0.3322 -0.0665 -0.1266
  901YOPE   NH313299   7.436  16.493   6.279 -0.1759  0.0230  0.2597
  901YOPE   PO413300   7.875  16.368   6.320  0.0923  0.0017 -0.0156
  901YOPE   GL113301   7.750  16.492   6.691  0.0716  0.2078 -0.0213
  901YOPE   GL213302   7.916  16.312   6.851 -0.0997  0.3386 -0.0364
  901YOPE   C1A13303   7.641  16.697   7.080 -0.1830  0.1540 -0.2236
  901YOPE   D2A13304   7.435  16.694   7.336  0.2062 -0.0907 -0.1854
  901YOPE   C3A13305   7.574  16.474   7.651 -0.3342  0.3324  0.1068
  901YOPE   C4A13306   7.645  16.096   7.769  0.2311  0.3109 -0.2442
  901YOPE   C1B13307   7.866  16.114   7.269  0.1648  0.1581  0.3498
  901YOPE   C2B13308   7.978  15.728   7.395  0.1145 -0.0714  0.1477
  901YOPE   D3B13309   7.918  15.281   7.533  0.1152 -0.0545  0.0850
  901YOPE   C4B13310   7.880  14.975   7.843  0.0637 -0.3063  0.0512
  902YOPE   NH313311   0.663  15.084   5.674 -0.0762 -0.2496  0.2878
  902YOPE   PO413312   0.769  15.409   5.880  0.0996  0.1795  0.0625
  902YOPE   GL113313   0.936  15.407   6.254  0.0888 -0.0098 -0.2799
  902YOPE   GL213314   0.915  15.102   6.422 -0.0036 -0.0754  0.3064
  902YOPE   C1A13315   1.121  15.646   6.661  0.1541 -0.2778 -0.1164
  902YOPE   D2A13316   1.152  15.853   7.061 -0.1538  0.0166  0.2369
  902YOPE   C3A13317   0.896  16.174   7.197 -0.4279 -0.0424 -0.0377
  902YOPE   C4A13318   0.758  16.430   7.631  0.0580  0.3096  0.0082
  902YOPE   C1B13319   0.985  15.236   6.874  0.1124  0.1557 -0.2102
  902YOPE   C2B13320   1.047  15.441   7.287 -0.0514  0.0241 -0.3411
  902YOPE   D3B13321   1.051  15.841   7.541  0.2248  0.1086 -0.3307
  902YOPE   C4B13322   1.002  16.006   7.879 -0.1192  0.0555 -0.2344
  903YOPE   NH313323   5.572  11.322   5.522  0.3304 -0.1428  0.6605
  903YOPE   PO413324   5.121  11.460   5.553  0.0081 -0.0310 -0.1699
  903YOPE   GL113325   4.972  11.471   6.048 -0.2221 -0.1613 -0.1702
  903YOPE   GL213326   4.766  11.742   6.028  0.0359  0.2054 -0.1244
  903YOPE   C1A13327   5.168  11.411   6.447  0.0928  0.3244 -0.1008
  903YOPE   D2A13328   5.394  11.336   6.804  0.1683  0.1340  0.0771
  903YOPE   C3A13329   5.873  11.431   6.903 -0.0761  0.2697  0.1302
  903YOPE   C4A13330   6.129  11.541   7.291  0.1130  0.1676  0.0957
  903YOPE   C1B13331   4.793  11.811   6.476  0.0307  0.3850  0.0678
  903YOPE   C2B13332   4.688  12.021   6.784  0.1210  0.2941  0.3673
  903YOPE   D3B13333   4.909  12.038   7.209  0.4587 -0.0751 -0.3641
  903YOPE   C4B13334   5.017  11.830   7.586  0.0927  0.1913 -0.1444
  904YOPE   NH313335   1.406  15.522   6.014 -0.2274  0.0851 -0.2457
  904YOPE   PO413336   1.818  15.737   6.015  0.2342  0.0453  0.0816
  904YOPE   GL113337   1.802  15.650   6.391  0.0414  0.2196 -0.1678
  904YOPE   GL213338   1.999  15.406   6.540  0.0042 -0.2867  0.0412
  904YOPE   C1A13339   1.590  15.681   6.761  0.0959 -0.2234 -0.0091
  904YOPE   D2A13340   1.498  15.391   7.129 -0.0252 -0.1330  0.0821
  904YOPE   C3A13341   1.823  15.173   7.435  0.2541 -0.0647  0.1209
  904YOPE   C4A13342   1.906  15.015   7.858  0.2114  0.0513  0.0978
  904YOPE   C1B13343   1.955  15.197   6.897  0.0701 -0.1285  0.1510
  904YOPE   C2B13344   2.277  15.150   7.225 -0.2017  0.0157  0.2390
  904YOPE   D3B13345   2.310  15.045   7.646 -0.1385 -0.0156  0.1779
  904YOPE   C4B13346   2.593  15.105   8.025 -0.2508 -0.5048 -0.4106
  905YOPE   NH313347   4.128   6.864   5.618 -0.4635 -0.1446 -0.0446
  905YOPE   PO413348   4.485   6.883   5.523 -0.1192 -0.0263 -0.1050
  905YOPE   GL113349   4.536   6.818   5.884 -0.2983 -0.4731  0.2264
  905YOPE   GL213350   4.346   6.560   5.959  0.0284 -0.2405 -0.4252
  905YOPE   C1A13351   4.729   6.652   6.243  0.1871  0.0419  0.1441
  905YOPE   D2A13352   4.647   6.334   6.392 -0.3717  0.2113  0.3018
  905YOPE   C3A13353   4.419   6.104   6.709  0.0289 -0.1485 -0.0082
  905YOPE   C4A13354   4.362   6.171   7.131  0.0944  0.1082  0.0795
  905YOPE   C1B13355   4.219   6.635   6.379 -0.1409 -0.0387  0.0110
  905YOPE   C2B13356   4.476   6.655   6.803 -0.0133  0.0921 -0.0636
  905YOPE   D3B13357   4.702   6.775   7.216 -0.2278 -0.0545 -0.0202
  905YOPE   C4B13358   5.084   6.710   7.503 -0.1689 -0.1083  0.3193
  906YOPE   NH313359   2.130  18.266   6.392 -0.0949  0.1049  0.2905
  906YOPE   PO413360   1.793  17.924   6.415  0.1994  0.0134 -0.1562
  906YOPE   GL113361   1.656  18.016   6.754 -0.3289  0.0014 -0.1675
  906YOPE   GL213362   2.005  18.288   6.875 -0.2492  0.2402 -0.0833
  906YOPE   C1A13363   1.527  18.138   7.198 -0.0111 -0.0867  0.0527
  906YOPE   D2A13364   1.438  18.532   7.349 -0.2243 -0.1265  0.0515
  906YOPE   C3A13365   1.514  18.746   7.721  0.0758  0.0885 -0.4815
  906YOPE   C4A13366   1.820  19.009   7.903 -0.4900  0.3297  0.1316
  906YOPE   C1B13367   1.965  18.458   7.328 -0.1728 -0.2285  0.0796
  906YOPE   C2B13368   1.766  18.243   7.610 -0.1999 -0.3175 -0.0124
  906YOPE   D3B13369   1.475  18.055   7.766 -0.2532  0.3519  0.0599
  906YOPE   C4B13370   1.479  17.924   8.091  0.2981 -0.1168  0.1813
  907YOPE   NH313371  16.280   3.594   5.585  0.0737  0.1194  0.0336
  907YOPE   PO413372  16.416   4.056   5.581  0.0882  0.1161 -0.1119
  907YOPE   GL113373  16.092   3.914   5.944  0.0287  0.0487 -0.0874
  907YOPE   GL213374  15.825   4.162   5.923 -0.1146  0.0326 -0.0115
  907YOPE   C1A13375  16.105   3.734   6.373  0.0811  0.2864 -0.0147
  907YOPE   D2A13376  16.123   3.832   6.774 -0.0145  0.0947 -0.0996
  907YOPE   C3A13377  16.103   3.618   7.060 -0.1168  0.1618  0.3401
  907YOPE   C4A13378  16.017   3.203   7.213  0.0118  0.1712 -0.1532
  907YOPE   C1B13379  15.855   4.193   6.361  0.1290  0.1562 -0.0440
  907YOPE   C2B13380  16.068   4.303   6.707 -0.0289  0.1662  0.2330
  907YOPE   D3B13381  16.256   4.194   7.162 -0.1145 -0.3622  0.0798
  907YOPE   C4B13382  16.363   4.275   7.535 -0.2013 -0.0898  0.1140
  908YOPE   NH313383   0.018   1.972   5.948 -0.1386 -0.1152  0.2793
  908YOPE   PO413384   0.172   1.651   6.211  0.1500 -0.0294  0.2413
  908YOPE   GL113385   0.516   1.693   6.506 -0.2389 -0.0422 -0.1252
  908YOPE   GL213386   0.754   1.736   6.421 -0.0081 -0.2412  0.2802
  908YOPE   C1A13387   0.605   1.756   6.916  0.0066 -0.0631 -0.1523
  908YOPE   D2A13388   0.533   1.751   7.343  0.2413  0.1173 -0.1872
  908YOPE   C3A13389   0.656   2.097   7.685 -0.2226  0.0354  0.0718
  908YOPE   C4A13390   0.759   2.567   7.712  0.0037  0.1982  0.0652
  908YOPE   C1B13391   1.069   1.746   6.673  0.0170 -0.0096  0.0240
  908YOPE   C2B13392   1.134   1.897   6.986  0.0093  0.2105  0.0310
  908YOPE   D3B13393   1.081   1.777   7.431 -0.0919 -0.1594 -0.2099
  908YOPE   C4B13394   1.329   2.012   7.742  0.2144  0.1901 -0.1850
  909YOPE   NH313395   2.322   2.684   6.224  0.0468 -0.6763 -0.4588
  909YOPE   PO413396   2.683   2.424   6.153 -0.1902 -0.0925 -0.0782
  909YOPE   GL113397   2.803   2.257   6.537 -0.0974 -0.1885  0.0548
  909YOPE   GL213398   3.076   2.199   6.551 -0.0468 -0.1644 -0.0761
  909YOPE   C1A13399   2.860   2.091   7.018 -0.0314 -0.2281  0.0524
  909YOPE   D2A13400   2.903   2.073   7.412  0.0665 -0.1247  0.1919
  909YOPE   C3A13401   2.646   2.125   7.832 -0.0764 -0.1652  0.1598
  909YOPE   C4A13402   2.529   2.153   8.304  0.2482 -0.2865  0.1772
  909YOPE   C1B13403   3.261   2.429   6.825 -0.3126 -0.1130 -0.1027
  909YOPE   C2B13404   3.366   2.319   7.240 -0.1171 -0.1195 -0.1144
  909YOPE   D3B13405   3.448   2.152   7.563 -0.1547 -0.1358 -0.3038
  909YOPE   C4B13406   3.151   2.029   7.888  0.1213  0.2149 -0.0682
  910YOPE   NH313407  17.212  12.931   5.617  0.6063  0.1503  0.0510
  910YOPE   PO413408  16.835  12.926   5.860  0.1983 -0.1304  0.1116
  910YOPE   GL113409  16.922  12.840   6.315 -0.0896 -0.0094 -0.0132
  910YOPE   GL213410  17.167  12.701   6.172 -0.1979 -0.1589 -0.2356
  910YOPE   C1A13411  16.899  12.699   6.748  0.2209  0.1543 -0.1170
  910YOPE   D2A13412  16.931  12.620   7.166 -0.0119  0.1597  0.0569
  910YOPE   C3A13413  17.028  12.196   7.327 -0.0740  0.1155 -0.0764
  910YOPE   C4A13414  17.111  11.813   7.389 -0.0550  0.0842  0.2050
  910YOPE   C1B13415  17.281  12.395   6.402  0.0721  0.1543  0.2227
  910YOPE   C2B13416  17.139  12.178   6.737  0.2681  0.2921  0.1200
  910YOPE   D3B13417  16.822  11.957   6.892 -0.0696 -0.0892 -0.0329
  910YOPE   C4B13418  16.387  12.090   7.162 -0.0359  0.1252 -0.0346
  911YOPE   NH313419   0.306  11.795   5.754 -0.1707  0.1436 -0.0823
  911YOPE   PO413420   0.617  12.193   5.831  0.2140 -0.2130 -0.1289
  911YOPE   GL113421   0.261  12.161   6.109 -0.1718 -0.1197 -0.0341
  911YOPE   GL213422   0.156  12.441   6.138 -0.0758  0.1275  0.0172
  911YOPE   C1A13423   0.140  11.909   6.358  0.3033 -0.2154 -0.0533
  911YOPE   D2A13424   0.127  11.681   6.754 -0.2580  0.1914 -0.0072
  911YOPE   C3A13425  -0.256  11.689   6.974  0.1456  0.0671  0.4512
  911YOPE   C4A13426  -0.491  11.447   7.287  0.0351 -0.3806 -0.4268
  911YOPE   C1B13427   0.194  12.347   6.566  0.1740  0.2096  0.0881
  911YOPE   C2B13428   0.220  12.139   6.967 -0.4969  0.1750 -0.1083
  911YOPE   D3B13429   0.123  11.828   7.244  0.0753 -0.0650  0.1102
  911YOPE   C4B13430   0.162  11.995   7.662 -0.0124 -0.1136  0.1050
  912YOPE   NH313431  14.515  13.640   5.863  0.0358 -0.2623  0.3264
  912YOPE   PO413432  14.613  14.033   5.922 -0.1516  0.1409 -0.1710
  912YOPE   GL113433  14.735  13.909   6.297  0.1040  0.4704 -0.1483
  912YOPE   GL213434  14.392  13.723   6.374  0.0329 -0.1279 -0.1642
  912YOPE   C1A13435  14.698  13.822   6.771 -0.0689 -0.2241 -0.2512
  912YOPE   D2A13436  14.731  14.030   7.252  0.0025  0.1651 -0.0551
  912YOPE   C3A13437  14.928  14.230   7.448 -0.0908 -0.1225 -0.0591
  912YOPE   C4A13438  15.280  14.397   7.594 -0.0122  0.1922  0.0331
  912YOPE   C1B13439  14.620  13.350   6.659  0.2218 -0.1041  0.0498
  912YOPE   C2B13440  14.744  13.462   7.095 -0.0382 -0.1447 -0.1569
  912YOPE   D3B13441  15.071  13.177   7.424  0.0025  0.1617  0.1910
  912YOPE   C4B13442  15.509  12.946   7.408 -0.0320 -0.0741  0.0716
  913YOPE   NH313443   6.399   1.287   6.401 -0.3539 -0.1356  0.0294
  913YOPE   PO413444   6.244   0.955   6.286 -0.0862 -0.1509  0.1244
  913YOPE   GL113445   5.980   1.096   6.629 -0.0201 -0.0701 -0.0630
  913YOPE   GL213446   6.035   1.435   6.676  0.0006  0.1605  0.0354
  913YOPE   C1A13447   6.186   1.146   7.104  0.1043 -0.4406 -0.1722
  913YOPE   D2A13448   6.145   1.320   7.494  0.0385 -0.0822 -0.0767
  913YOPE   C3A13449   6.358   1.416   7.996  0.1539 -0.0826  0.1658
  913YOPE   C4A13450   6.202   1.318   8.411  0.0190  0.3168  0.0345
  913YOPE   C1B13451   5.844   1.501   7.086 -0.0271  0.1895 -0.1887
  913YOPE   C2B13452   5.615   1.678   7.457  0.0276  0.1007  0.0836
  913YOPE   D3B13453   5.551   2.049   7.598  0.3217 -0.1182  0.0464
  913YOPE   C4B13454   5.951   2.282   7.879 -0.1034  0.2236 -0.0369
  914YOPE   NH313455   1.365  16.925   6.095 -0.2398 -0.0698  0.2428
  914YOPE   PO413456   1.517  17.371   6.180 -0.4955  0.1044 -0.2205
  914YOPE   GL113457   1.343  17.124   6.512 -0.3128  0.1312  0.0362
  914YOPE   GL213458   1.014  16.915   6.457 -0.3084  0.3033 -0.1844
  914YOPE   C1A13459   1.211  17.023   6.913 -0.4936 -0.1162  0.1590
  914YOPE   D2A13460   1.297  17.165   7.341  0.1258  0.0032  0.3200
  914YOPE   C3A13461   1.202  16.959   7.817  0.0427  0.2688  0.1430
  914YOPE   C4A13462   1.505  17.037   8.202  0.0032  0.1890 -0.0052
  914YOPE   C1B13463   0.909  16.635   6.765  0.0397  0.2422  0.0598
  914YOPE   C2B13464   0.771  16.665   7.141 -0.1027 -0.0403 -0.2773
  914YOPE   D3B13465   0.826  16.975   7.484  0.0509 -0.1384  0.2744
  914YOPE   C4B13466   0.916  17.315   7.674 -0.2413 -0.1128 -0.0276
  915YOPE   NH313467   7.333   4.876   5.565 -0.0075 -0.2469  0.3072
  915YOPE   PO413468   6.881   4.836   5.526 -0.0442  0.1565  0.3288
  915YOPE   GL113469   6.890   4.688   5.814 -0.1395 -0.2289 -0.1697
  915YOPE   GL213470   7.055   4.475   6.083 -0.0104  0.0698 -0.0208
  915YOPE   C1A13471   6.976   4.890   6.255  0.1647 -0.0102  0.1858
  915YOPE   D2A13472   6.727   4.818   6.599  0.1369  0.4308  0.0214
  915YOPE   C3A13473   6.822   4.864   7.065 -0.1389 -0.2254 -0.1678
  915YOPE   C4A13474   7.191   4.937   7.343 -0.3651 -0.0412 -0.3481
  915YOPE   C1B13475   7.044   4.355   6.433 -0.1055 -0.0980 -0.2210
  915YOPE   C2B13476   6.823   4.367   6.904 -0.1724  0.0142  0.1774
  915YOPE   D3B13477   7.059   4.378   7.322 -0.0826  0.1072  0.1142
  915YOPE   C4B13478   6.903   4.473   7.593 -0.1277  0.0579 -0.1323
  916YOPE   NH313479   4.577   7.303   5.759 -0.0818  0.1860  0.2558
  916YOPE   PO413480   4.281   7.375   5.531 -0.0632  0.1921 -0.0534
  916YOPE   GL113481   4.129   7.455   5.946  0.1387 -0.0776 -0.0091
  916YOPE   GL213482   4.246   7.231   6.125 -0.1185 -0.2571 -0.1569
  916YOPE   C1A13483   4.117   7.520   6.509 -0.0756  0.3354  0.1334
  916YOPE   D2A13484   3.821   7.585   6.742  0.0263  0.0680 -0.0646
  916YOPE   C3A13485   3.723   7.802   7.138  0.1018  0.0219 -0.1624
  916YOPE   C4A13486   3.362   7.582   7.252 -0.1606 -0.1381 -0.0348
  916YOPE   C1B13487   4.450   7.098   6.363 -0.1709  0.2927  0.0318
  916YOPE   C2B13488   4.748   6.976   6.651 -0.2176 -0.0545  0.4181
  916YOPE   D3B13489   5.097   6.850   6.885  0.1621  0.0730  0.1185
  916YOPE   C4B13490   5.384   6.625   7.016 -0.2195 -0.3325 -0.0756
  917YOPE   NH313491  12.890  16.586   6.239  0.2784  0.3162 -0.2812
  917YOPE   PO413492  12.495  16.558   6.021  0.2055  0.2682 -0.0124
  917YOPE   GL113493  12.515  16.787   6.516 -0.1155  0.5123 -0.1711
  917YOPE   GL213494  12.193  16.915   6.597 -0.2534  0.1209 -0.3307
  917YOPE   C1A13495  12.506  16.894   7.043 -0.2276 -0.0993  0.1070
  917YOPE   D2A13496  12.344  17.040   7.477  0.1791  0.1285  0.1589
  917YOPE   C3A13497  12.263  17.449   7.704 -0.2149 -0.0655 -0.4572
  917YOPE   C4A13498  12.296  17.857   7.933  0.2064  0.1303 -0.2098
  917YOPE   C1B13499  12.012  16.951   7.036 -0.2284 -0.1228  0.1295
  917YOPE   C2B13500  11.816  16.962   7.441  0.3796  0.2792 -0.2093
  917YOPE   D3B13501  11.803  17.091   7.840 -0.2421 -0.0085  0.0356
  917YOPE   C4B13502  11.936  17.399   8.149  0.1591  0.1067  0.0967
  918YOPE   NH313503   0.552   1.974   6.058  0.2464 -0.0968  0.2360
  918YOPE   PO413504   0.391   2.344   6.004  0.2323 -0.1978 -0.2110
  918YOPE   GL113505   0.285   2.139   6.446  0.0772  0.0183  0.2165
  918YOPE   GL213506   0.080   1.975   6.628 -0.0863  0.2418  0.3557
  918YOPE   C1A13507   0.330   2.222   6.954 -0.1490  0.0736 -0.2667
  918YOPE   D2A13508   0.338   2.339   7.383 -0.1563  0.0583 -0.1027
  918YOPE   C3A13509   0.280   2.535   7.753  0.0201  0.3026 -0.0197
  918YOPE   C4A13510   0.203   2.870   7.918  0.1812 -0.4596 -0.0346
  918YOPE   C1B13511  -0.045   1.939   7.062  0.0661  0.1359 -0.0688
  918YOPE   C2B13512   0.073   1.751   7.502 -0.1960 -0.0447 -0.0429
  918YOPE   D3B13513  -0.122   1.528   7.764  0.0310  0.0713  0.1203
  918YOPE   C4B13514  -0.436   1.334   7.816  0.1816 -0.2531 -0.1240
  919YOPE   NH313515   0.452  15.266   6.189  0.1836  0.3004  0.0021
  919YOPE   PO413516   0.383  14.884   6.116 -0.2499  0.0910 -0.2046
  919YOPE   GL113517   0.402  14.844   6.665  0.0343 -0.0949 -0.0957
  919YOPE   GL213518   0.801  14.759   6.834 -0.3330 -0.0995  0.1727
  919YOPE   C1A13519   0.462  14.938   7.127 -0.0495  0.1699  0.1094
  919YOPE   D2A13520   0.657  15.136   7.249 -0.0578  0.3634 -0.1706
  919YOPE   C3A13521   0.861  15.116   7.618  0.1933 -0.1558  0.1321
  919YOPE   C4A13522   1.083  14.963   8.024  0.3246  0.1394 -0.3427
  919YOPE   C1B13523   0.883  14.698   7.272  0.0423  0.0579 -0.1359
  919YOPE   C2B13524   1.105  14.606   7.673  0.1254 -0.0870 -0.2576
  919YOPE   D3B13525   1.501  14.657   7.784 -0.0852 -0.0474 -0.1119
  919YOPE   C4B13526   1.588  14.655   8.268  0.0331  0.2629 -0.0616
  920YOPE   NH313527   4.233  13.013   5.986 -0.1883 -0.2540 -0.5269
  920YOPE   PO413528   4.457  13.402   6.052 -0.2066 -0.1841 -0.3584
  920YOPE   GL113529   4.329  13.250   6.443  0.2285  0.0030 -0.1182
  920YOPE   GL213530   4.382  13.050   6.487  0.0827 -0.1039  0.1225
  920YOPE   C1A13531   4.348  13.375   6.842 -0.2082  0.0241  0.0268
  920YOPE   D2A13532   4.454  13.310   7.276  0.1188 -0.1876  0.1113
  920YOPE   C3A13533   4.609  13.101   7.703 -0.0049 -0.0991 -0.2304
  920YOPE   C4A13534   4.650  13.101   8.127 -0.1841 -0.1867  0.6159
  920YOPE   C1B13535   4.245  12.874   6.797  0.0690  0.1666  0.2382
  920YOPE   C2B13536   4.260  12.862   7.230  0.0110  0.2669 -0.0300
  920YOPE   D3B13537   4.267  12.760   7.559  0.0117 -0.1180 -0.2727
  920YOPE   C4B13538   4.149  12.415   7.880 -0.0276  0.2478  0.0177
  921YOPE   NH313539  14.155  12.833   5.690 -0.2689 -0.1939  0.0200
  921YOPE   PO413540  14.245  13.231   5.753 -0.2482 -0.0802  0.0652
  921YOPE   GL113541  14.475  13.228   6.181  0.1714 -0.0659  0.1092
  921YOPE   GL213542  14.254  13.133   6.360 -0.0255 -0.2840 -0.4657
  921YOPE   C1A13543  14.677  12.844   6.557 -0.0047 -0.0387 -0.0776
  921YOPE   D2A13544  14.658  12.698   6.961 -0.1315 -0.2996  0.1901
  921YOPE   C3A13545  14.421  12.875   7.197 -0.0506 -0.4526 -0.3789
  921YOPE   C4A13546  14.576  13.138   7.535  0.2464  0.0267 -0.0264
  921YOPE   C1B13547  14.190  13.098   6.762  0.0179  0.0558  0.0863
  921YOPE   C2B13548  14.003  13.181   7.190  0.0607 -0.1662 -0.2490
  921YOPE   D3B13549  13.659  12.949   7.427  0.0423 -0.1136 -0.1101
  921YOPE   C4B13550  13.493  12.869   7.811 -0.1207 -0.0057 -0.2164
  922YOPE   NH313551   4.603  12.237   6.073 -0.2072 -0.1869 -0.0511
  922YOPE   PO413552   4.644  12.708   6.030 -0.3311 -0.2630 -0.1047
  922YOPE   GL113553   4.325  12.625   6.304 -0.1295  0.0540 -0.4666
  922YOPE   GL213554   3.959  12.758   6.336 -0.1900  0.2849 -0.0392
  922YOPE   C1A13555   4.224  12.354   6.608 -0.2739  0.0402 -0.0243
  922YOPE   D2A13556   4.171  12.448   6.998 -0.0630 -0.2230  0.0795
  922YOPE   C3A13557   4.257  12.207   7.419  0.1698 -0.3498  0.0847
  922YOPE   C4A13558   4.510  11.947   7.622  0.0399  0.1827 -0.2011
  922YOPE   C1B13559   3.810  12.677   6.657  0.0236 -0.2595  0.0288
  922YOPE   C2B13560   3.692  12.552   7.128  0.1074 -0.0067 -0.0418
  922YOPE   D3B13561   3.807  12.400   7.514  0.0868 -0.1346 -0.2824
  922YOPE   C4B13562   3.815  12.762   7.890  0.2337 -0.1309  0.2815
  923YOPE   NH313563  13.887  15.038   6.244  0.0871 -0.2882 -0.3629
  923YOPE   PO413564  14.216  14.936   6.050 -0.1375 -0.0382  0.1099
  923YOPE   GL113565  14.343  14.808   6.461  0.1439 -0.0684  0.0785
  923YOPE   GL213566  14.092  14.819   6.665 -0.1537 -0.1356  0.1061
  923YOPE   C1A13567  14.591  14.751   6.868  0.1597  0.1670 -0.0484
  923YOPE   D2A13568  14.563  14.548   7.197 -0.1420  0.0458  0.2457
  923YOPE   C3A13569  14.352  14.611   7.520 -0.0727  0.1569 -0.0005
  923YOPE   C4A13570  14.389  14.774   7.962 -0.1064  0.1827  0.0990
  923YOPE   C1B13571  14.027  14.654   7.054  0.1283  0.2358  0.3378
  923YOPE   C2B13572  13.834  14.555   7.382  0.1829 -0.1785  0.3185
  923YOPE   D3B13573  13.534  14.611   7.668  0.1200 -0.0582  0.2834
  923YOPE   C4B13574  13.455  14.738   8.099 -0.1175 -0.0962 -0.1996
  924YOPE   NH313575  15.397   9.033   5.500 -0.2519  0.0303 -0.0170
  924YOPE   PO413576  15.581   9.431   5.653  0.4923  0.1013  0.1353
  924YOPE   GL113577  15.609   9.198   6.048  0.1423  0.0326  0.0593
  924YOPE   GL213578  15.896   9.368   6.110 -0.1098  0.3794 -0.2787
  924YOPE   C1A13579  15.616   9.207   6.503 -0.0700  0.1662 -0.0169
  924YOPE   D2A13580  15.598   9.108   6.888 -0.2297  0.1383 -0.3489
  924YOPE   C3A13581  15.706   9.297   7.276 -0.0423  0.0755  0.2914
  924YOPE   C4A13582  15.918   9.724   7.454  0.0918  0.2111 -0.1210
  924YOPE   C1B13583  16.106   9.073   6.355 -0.2143  0.1875  0.0946
  924YOPE   C2B13584  16.512   8.905   6.452 -0.1001  0.0100  0.0863
  924YOPE   D3B13585  16.660   8.909   6.802  0.1526 -0.1284 -0.0981
  924YOPE   C4B13586  16.899   8.586   7.089 -0.0121 -0.3708 -0.0447
  925YOPE   NH313587   1.405  13.035   6.025  0.0511 -0.0841  0.0581
  925YOPE   PO413588   1.853  13.241   6.013  0.2530 -0.0723  0.1736
  925YOPE   GL113589   1.593  13.466   6.377 -0.2324 -0.1244  0.1619
  925YOPE   GL213590   1.708  13.668   6.427 -0.0205 -0.1027  0.1147
  925YOPE   C1A13591   1.398  13.444   6.814  0.1127  0.2396  0.0003
  925YOPE   D2A13592   1.417  13.611   7.178 -0.0805 -0.1613  0.0998
  925YOPE   C3A13593   1.238  14.048   7.072  0.0580 -0.0298  0.1839
  925YOPE   C4A13594   1.203  14.471   7.001  0.0220 -0.1170  0.2161
  925YOPE   C1B13595   1.821  13.735   6.829 -0.1511 -0.2001  0.2672
  925YOPE   C2B13596   1.812  13.891   7.112 -0.0270  0.3051  0.1061
  925YOPE   D3B13597   1.698  13.836   7.537 -0.1513  0.1960 -0.0953
  925YOPE   C4B13598   1.647  13.785   7.939 -0.1746 -0.0131  0.1523
  926YOPE   NH313599  11.061  13.890   5.870  0.1650  0.1429  0.2751
  926YOPE   PO413600  11.350  13.538   6.007 -0.1560  0.0141  0.0785
  926YOPE   GL113601  11.244  13.717   6.343 -0.2483  0.2389  0.2091
  926YOPE   GL213602  11.600  13.762   6.618  0.1217 -0.0463 -0.0492
  926YOPE   C1A13603  11.028  13.895   6.606 -0.0167 -0.1460  0.0766
  926YOPE   D2A13604  10.932  13.892   6.974  0.4735  0.0559 -0.1880
  926YOPE   C3A13605  11.056  14.260   7.496 -0.0796 -0.1332 -0.0227
  926YOPE   C4A13606  11.205  14.387   7.875  0.1328 -0.5777  0.0994
  926YOPE   C1B13607  11.691  13.597   6.998  0.2508 -0.1966  0.0402
  926YOPE   C2B13608  11.724  13.277   7.320 -0.0520 -0.0216 -0.0123
  926YOPE   D3B13609  11.765  13.274   7.666  0.0921 -0.0675 -0.2349
  926YOPE   C4B13610  11.714  13.115   8.028  0.1045  0.1451  0.0761
  927YOPE   NH313611  14.537   8.696   5.298  0.1167 -0.4279 -0.1439
  927YOPE   PO413612  14.100   8.480   5.474  0.1867 -0.0194 -0.1192
  927YOPE   GL113613  14.113   8.508   5.956  0.4147 -0.3221 -0.1216
  927YOPE   GL213614  14.080   8.171   5.958  0.0643  0.0878  0.0983
  927YOPE   C1A13615  13.965   8.595   6.275  0.3941  0.0306 -0.2885
  927YOPE   D2A13616  13.985   8.939   6.589  0.0178  0.2194  0.0097
  927YOPE   C3A13617  14.003   8.798   7.059  0.1705 -0.0034  0.0313
  927YOPE   C4A13618  13.918   8.894   7.473 -0.0384 -0.0605  0.0974
  927YOPE   C1B13619  14.037   7.954   6.416 -0.0313 -0.2343 -0.2274
  927YOPE   C2B13620  14.108   7.858   6.838  0.1277  0.1593  0.1774
  927YOPE   D3B13621  14.136   7.784   7.270  0.2021  0.2656 -0.1955
  927YOPE   C4B13622  13.917   7.910   7.646 -0.1890 -0.1102  0.2692
  928YOPE   NH313623   3.647  10.672   5.894 -0.3912 -0.0142  0.1234
  928YOPE   PO413624   3.629  11.113   5.923 -0.1084  0.1106 -0.1612
  928YOPE   GL113625   3.814  11.204   6.267  0.2186  0.0012  0.2721
  928YOPE   GL213626   3.756  10.919   6.471  0.0180 -0.0013 -0.1931
  928YOPE   C1A13627   3.915  11.429   6.638  0.2150 -0.1228 -0.0041
  928YOPE   D2A13628   3.750  11.481   7.051 -0.0385  0.0061 -0.2067
  928YOPE   C3A13629   3.993  11.731   7.420 -0.0550 -0.1497  0.2034
  928YOPE   C4A13630   3.993  11.508   7.822 -0.0864 -0.2514  0.4006
  928YOPE   C1B13631   3.770  10.853   6.898 -0.1804  0.1307  0.0543
  928YOPE   C2B13632   3.795  10.846   7.274  0.3440 -0.4393 -0.2662
  928YOPE   D3B13633   3.707  11.089   7.659 -0.1947  0.1973  0.0818
  928YOPE   C4B13634   3.834  11.004   8.065  0.1735  0.0498  0.0043
  929YOPE   NH313635   5.586   8.776   5.645 -0.0129 -0.1664 -0.0464
  929YOPE   PO413636   5.827   9.121   5.657 -0.1535 -0.1005 -0.1993
  929YOPE   GL113637   5.795   8.988   6.051  0.3002  0.0967  0.1482
  929YOPE   GL213638   6.085   8.940   6.064 -0.1710  0.0329 -0.1351
  929YOPE   C1A13639   5.705   8.659   6.363  0.1944 -0.2328 -0.1252
  929YOPE   D2A13640   5.676   8.560   6.738 -0.3163 -0.1317 -0.2408
  929YOPE   C3A13641   5.677   8.530   7.122 -0.1426  0.0900  0.1242
  929YOPE   C4A13642   5.836   8.764   7.547 -0.1060 -0.2195  0.2071
  929YOPE   C1B13643   6.374   8.900   6.341  0.0186 -0.0895  0.1418
  929YOPE   C2B13644   6.642   9.009   6.738 -0.2108  0.0325 -0.3150
  929YOPE   D3B13645   6.734   8.866   7.156  0.0390 -0.1159  0.0246
  929YOPE   C4B13646   6.881   8.707   7.517 -0.2567  0.0973 -0.0044
  930YOPE   NH313647   3.064   9.891   5.869  0.3182 -0.0873 -0.0447
  930YOPE   PO413648   3.312   9.502   5.935  0.1683  0.0566 -0.4902
  930YOPE   GL113649   3.651   9.512   6.353  0.2645 -0.3896  0.1543
  930YOPE   GL213650   3.925   9.619   6.360  0.0689 -0.1387 -0.2518
  930YOPE   C1A13651   3.567   9.541   6.770 -0.1265  0.0148 -0.0283
  930YOPE   D2A13652   3.582   9.691   7.185  0.1302  0.1577 -0.1203
  930YOPE   C3A13653   3.363   9.736   7.528  0.0096  0.0213 -0.0938
  930YOPE   C4A13654   3.265   9.617   7.881 -0.0281  0.0039  0.2195
  930YOPE   C1B13655   4.017   9.793   6.750 -0.0065 -0.1075  0.2728
  930YOPE   C2B13656   4.015   9.971   7.223 -0.3539 -0.1433 -0.1265
  930YOPE   D3B13657   3.717  10.043   7.520 -0.1985  0.0712  0.1364
  930YOPE   C4B13658   3.496  10.107   7.868 -0.2587  0.2441 -0.1886
  931YOPE   NH313659  15.747   6.517   5.317  0.1163 -0.2640 -0.1878
  931YOPE   PO413660  15.977   6.858   5.629 -0.4736 -0.0828 -0.1367
  931YOPE   GL113661  16.154   7.044   5.908  0.7077 -0.0387 -0.0016
  931YOPE   GL213662  16.263   6.866   6.052 -0.1049 -0.0405  0.0252
  931YOPE   C1A13663  16.213   7.391   6.243  0.1397 -0.0668  0.1357
  931YOPE   D2A13664  16.042   7.510   6.656  0.3309 -0.2674 -0.1009
  931YOPE   C3A13665  16.232   7.326   7.052  0.3950 -0.1101 -0.3563
  931YOPE   C4A13666  16.458   7.246   7.415 -0.1692 -0.2108 -0.1122
  931YOPE   C1B13667  16.246   6.766   6.442 -0.1331 -0.1592  0.0308
  931YOPE   C2B13668  16.403   6.693   6.884 -0.0800 -0.1618 -0.0898
  931YOPE   D3B13669  16.534   6.412   7.268  0.0669 -0.1471 -0.1561
  931YOPE   C4B13670  16.453   6.032   7.480  0.2189  0.0443 -0.2088
  932YOPE   NH313671   0.731   3.326   5.728  0.2010  0.0442 -0.0778
  932YOPE   PO413672   0.400   3.268   5.980  0.0154  0.1932  0.1671
  932YOPE   GL113673   0.391   3.448   6.276 -0.0329 -0.0315 -0.3438
  932YOPE   GL213674   0.445   3.937   6.315  0.0785  0.2148 -0.1360
  932YOPE   C1A13675   0.458   3.292   6.672  0.1845  0.1099  0.0387
  932YOPE   D2A13676   0.353   3.395   7.069  0.2889 -0.4717 -0.1129
  932YOPE   C3A13677   0.257   3.823   7.141  0.0514 -0.1016 -0.0211
  932YOPE   C4A13678   0.043   4.171   7.213  0.5269 -0.0103  0.0892
  932YOPE   C1B13679   0.218   4.100   6.733  0.1636 -0.0408  0.0756
  932YOPE   C2B13680   0.520   4.230   7.167 -0.2215 -0.3695 -0.1293
  932YOPE   D3B13681   0.428   4.130   7.481 -0.1191  0.0212  0.0660
  932YOPE   C4B13682   0.303   4.267   7.812 -0.1023 -0.0408 -0.1181
  933YOPE   NH313683   3.875   3.849   6.161 -0.2014  0.0177  0.0248
  933YOPE   PO413684   3.696   4.363   6.029  0.2718 -0.1512  0.0261
  933YOPE   GL113685   3.938   4.453   6.309 -0.0517  0.2241 -0.2541
  933YOPE   GL213686   4.101   4.614   6.164 -0.0562  0.2295  0.2043
  933YOPE   C1A13687   4.216   4.601   6.771  0.0696  0.1566 -0.3275
  933YOPE   D2A13688   4.380   4.474   7.178  0.0755 -0.0840 -0.2539
  933YOPE   C3A13689   4.253   4.400   7.584  0.0467 -0.0436  0.2527
  933YOPE   C4A13690   4.463   4.296   7.968 -0.3221  0.0965 -0.0521
  933YOPE   C1B13691   4.501   4.853   6.413 -0.0682 -0.0766  0.2487
  933YOPE   C2B13692   4.668   5.073   6.732 -0.0850  0.0457 -0.0315
  933YOPE   D3B13693   4.569   5.462   7.034 -0.6151  0.0120  0.0606
  933YOPE   C4B13694   4.263   5.724   7.299 -0.1658 -0.0202 -0.3173
  934YOPE   NH313695  11.214  16.482   6.172  0.0061 -0.2568  0.0293
  934YOPE   PO413696  11.095  16.053   6.169  0.0392 -0.0290 -0.0221
  934YOPE   GL113697  11.044  15.872   6.653  0.0874  0.0013 -0.1811
  934YOPE   GL213698  11.037  15.474   6.768 -0.0175  0.0382 -0.0280
  934YOPE   C1A13699  11.032  15.967   7.082  0.3104  0.0146 -0.2482
  934YOPE   D2A13700  10.950  16.210   7.470  0.1517 -0.1749  0.1910
  934YOPE   C3A13701  11.222  16.243   7.755 -0.1196 -0.0343  0.0048
  934YOPE   C4A13702  11.081  16.150   8.195 -0.1317  0.2717 -0.2780
  934YOPE   C1B13703  11.393  15.546   7.049 -0.0309 -0.0136 -0.0819
  934YOPE   C2B13704  11.547  15.462   7.421 -0.3230 -0.2994  0.2751
  934YOPE   D3B13705  11.545  15.438   7.865 -0.0818 -0.2136  0.4721
  934YOPE   C4B13706  11.808  15.282   8.149 -0.0179 -0.0781 -0.1367
  935YOPE   NH313707   0.698   5.738   5.256  0.0432  0.1958  0.2704
  935YOPE   PO413708   0.506   5.833   5.687  0.1030  0.0906  0.0390
  935YOPE   GL113709   0.397   5.912   6.111 -0.1483 -0.1121 -0.3494
  935YOPE   GL213710   0.512   6.248   6.211  0.0406  0.2159  0.1611
  935YOPE   C1A13711   0.197   5.914   6.470 -0.0773 -0.1272 -0.1378
  935YOPE   D2A13712   0.156   5.636   6.786 -0.2481  0.1351 -0.0122
  935YOPE   C3A13713   0.500   5.286   6.845  0.0337  0.0362  0.0286
  935YOPE   C4A13714   0.825   5.062   6.708 -0.1595 -0.3495  0.0395
  935YOPE   C1B13715   0.510   6.212   6.637  0.1611 -0.2754 -0.1648
  935YOPE   C2B13716   0.401   6.233   7.110 -0.0655 -0.1001  0.2964
  935YOPE   D3B13717   0.635   6.290   7.513 -0.0672 -0.0979 -0.1230
  935YOPE   C4B13718   1.151   6.259   7.763  0.0071  0.0532 -0.0896
  936YOPE   NH313719  11.325  15.240   5.618  0.1541  0.0697 -0.1868
  936YOPE   PO413720  11.477  15.212   6.016 -0.1156 -0.0988  0.2301
  936YOPE   GL113721  11.300  15.103   6.424 -0.1228  0.0348  0.1481
  936YOPE   GL213722  11.508  14.888   6.687 -0.1186 -0.2465 -0.1866
  936YOPE   C1A13723  11.009  14.888   6.758 -0.0745 -0.1825 -0.0915
  936YOPE   D2A13724  10.829  14.904   7.101 -0.0213 -0.1488  0.0539
  936YOPE   C3A13725  10.817  15.344   7.181  0.0951  0.1113  0.0437
  936YOPE   C4A13726  10.618  15.351   7.606 -0.1131  0.1172  0.2851
  936YOPE   C1B13727  11.433  14.993   7.087  0.1547 -0.3633  0.0772
  936YOPE   C2B13728  11.241  14.819   7.590 -0.0392  0.2203 -0.2315
  936YOPE   D3B13729  11.304  14.844   8.095  0.4656 -0.0276  0.3968
  936YOPE   C4B13730  11.135  15.319   8.262 -0.0312 -0.2737  0.1720
  937YOPE   NH313731   7.120  14.933   6.265  0.2380  0.1493 -0.0262
  937YOPE   PO413732   7.301  14.570   6.016 -0.0584  0.3144 -0.0820
  937YOPE   GL113733   7.099  14.331   6.382 -0.2368 -0.1324 -0.1863
  937YOPE   GL213734   7.247  14.015   6.554  0.2587 -0.0707 -0.1007
  937YOPE   C1A13735   6.845  14.359   6.826 -0.0341  0.2372  0.0523
  937YOPE   D2A13736   6.679  14.412   7.285 -0.0584  0.1418  0.0057
  937YOPE   C3A13737   6.984  14.388   7.643  0.3025 -0.0550  0.1279
  937YOPE   C4A13738   7.134  14.089   7.978  0.1697  0.0703  0.2332
  937YOPE   C1B13739   7.289  13.799   6.883 -0.0410 -0.0922 -0.1427
  937YOPE   C2B13740   7.164  13.488   7.287 -0.0150 -0.1757 -0.2034
  937YOPE   D3B13741   6.752  13.417   7.326  0.2716 -0.3272 -0.0702
  937YOPE   C4B13742   6.370  13.457   7.596 -0.1805  0.4593  0.1291
  938YOPE   NH313743   6.732   3.296   5.968  0.0887  0.0495 -0.1983
  938YOPE   PO413744   7.083   3.139   6.165  0.1396  0.0779  0.0318
  938YOPE   GL113745   7.107   2.998   6.543 -0.2381  0.0335  0.1162
  938YOPE   GL213746   7.387   2.833   6.648  0.0388 -0.1019  0.0299
  938YOPE   C1A13747   7.077   3.001   7.040 -0.0754  0.1937  0.1117
  938YOPE   D2A13748   7.227   2.857   7.442  0.0112 -0.0998 -0.0388
  938YOPE   C3A13749   7.366   2.830   7.872 -0.2187  0.2032  0.2410
  938YOPE   C4A13750   7.603   2.998   8.211  0.0510  0.1635  0.2369
  938YOPE   C1B13751   7.566   2.745   7.088 -0.2000 -0.4407  0.3563
  938YOPE   C2B13752   7.689   2.607   7.494 -0.3537  0.2533  0.2219
  938YOPE   D3B13753   7.689   2.433   7.877  0.0973 -0.0962  0.1289
  938YOPE   C4B13754   7.784   2.496   8.349 -0.0017 -0.0114  0.0037
  939YOPE   NH313755   3.219  13.284   6.236 -0.2712  0.0562 -0.0810
  939YOPE   PO413756   3.077  13.766   6.405  0.1767 -0.0291  0.0086
  939YOPE   GL113757   3.123  13.825   6.756  0.1242  0.0134  0.1043
  939YOPE   GL213758   3.095  14.013   6.951 -0.0862 -0.0416  0.3084
  939YOPE   C1A13759   2.781  13.596   7.106  0.0594 -0.0254 -0.1575
  939YOPE   D2A13760   2.654  13.492   7.508  0.1451  0.0850  0.0874
  939YOPE   C3A13761   2.485  13.258   7.803  0.1915  0.1278  0.0239
  939YOPE   C4A13762   2.313  13.416   8.212  0.1470 -0.0788  0.3201
  939YOPE   C1B13763   3.188  13.981   7.368  0.0483  0.2820 -0.0024
  939YOPE   C2B13764   3.122  13.824   7.740  0.1190 -0.6715  0.5555
  939YOPE   D3B13765   3.378  13.996   8.081  0.1992  0.0619  0.2043
  939YOPE   C4B13766   3.669  14.200   8.420 -0.0464 -0.0073 -0.1022
  940YOPE   NH313767   4.005  13.590   6.254  0.1086  0.0523  0.1200
  940YOPE   PO413768   3.585  13.831   6.288 -0.1095  0.1590  0.1300
  940YOPE   GL113769   3.631  14.016   6.651  0.2144  0.1908 -0.1418
  940YOPE   GL213770   3.973  13.871   6.731  0.0467  0.0874  0.0643
  940YOPE   C1A13771   3.728  14.248   7.052 -0.0114  0.2236  0.0813
  940YOPE   D2A13772   3.633  14.059   7.531 -0.2764  0.5773  0.1094
  940YOPE   C3A13773   3.724  13.757   7.792  0.0650  0.0584 -0.1703
  940YOPE   C4A13774   3.782  13.720   8.228 -0.2925 -0.0957 -0.0773
  940YOPE   C1B13775   3.866  13.739   7.251 -0.0021 -0.2839  0.1986
  940YOPE   C2B13776   4.176  13.728   7.591 -0.0780  0.2093 -0.0287
  940YOPE   D3B13777   4.619  13.636   7.865  0.0886 -0.3677  0.4461
  940YOPE   C4B13778   4.884  13.714   8.146 -0.3208 -0.4153  0.0612
  941POPC   NC313779  12.705   6.853   4.715  0.2260  0.0132  0.1593
  941POPC   PO413780  12.969   6.466   4.976 -0.0072 -0.0885 -0.0621
  941POPC   GL113781  12.776   6.461   5.369  0.0248 -0.0197 -0.0843
  941POPC   GL213782  12.807   6.722   5.604 -0.0395 -0.2103 -0.0279
  941POPC   C1A13783  12.921   6.200   5.811  0.2326 -0.2446  0.2130
  941POPC   D2A13784  12.951   6.168   6.258  0.0393 -0.0592  0.0555
  941POPC   C3A13785  13.130   5.819   6.525 -0.3708  0.2728 -0.0061
  941POPC   C4A13786  12.969   5.412   6.750  0.0870 -0.1692 -0.2947
  941POPC   C1B13787  12.642   6.608   5.914 -0.1016 -0.0752  0.1770
  941POPC   C2B13788  12.581   6.656   6.341  0.0978  0.0944  0.1551
  941POPC   C3B13789  12.388   6.632   6.613  0.0266  0.0132  0.0171
  941POPC   C4B13790  12.253   6.255   6.912 -0.2345  0.0824  0.0878
  942POPC   NC313791   1.321   6.400   5.201  0.0489  0.1353  0.3645
  942POPC   PO413792   1.148   5.937   5.288 -0.1685  0.1572  0.0060
  942POPC   GL113793   1.036   6.033   5.737 -0.0014 -0.1274 -0.0020
  942POPC   GL213794   1.376   6.106   5.857  0.0948 -0.2496 -0.4632
  942POPC   C1A13795   1.006   6.180   6.180  0.3619 -0.0997 -0.0369
  942POPC   D2A13796   0.846   6.526   6.469  0.4106 -0.0083 -0.0903
  942POPC   C3A13797   0.996   6.503   6.916 -0.0971 -0.0738  0.0625
  942POPC   C4A13798   1.002   6.099   7.241  0.0911 -0.0676  0.0246
  942POPC   C1B13799   1.469   5.930   6.268  0.0089  0.0910  0.1515
  942POPC   C2B13800   1.617   5.929   6.681 -0.1426 -0.0964  0.1258
  942POPC   C3B13801   1.457   6.023   6.994 -0.0222 -0.4191 -0.1547
  942POPC   C4B13802   1.499   6.121   7.379 -0.0240  0.0041 -0.0677
  943POPC   NC313803  17.426  13.535   4.900  0.1402  0.2698 -0.1044
  943POPC   PO413804  17.316  13.372   5.479 -0.0572 -0.1862 -0.0676
  943POPC   GL113805  17.431  13.273   5.909  0.1093  0.1771 -0.0463
  943POPC   GL213806  17.188  13.215   6.173  0.3195 -0.1825  0.3938
  943POPC   C1A13807  17.626  12.920   6.173  0.1913  0.1286  0.1305
  943POPC   D2A13808  17.709  12.541   6.272  0.0255 -0.2164 -0.1628
  943POPC   C3A13809  17.602  12.498   6.736  0.1511 -0.2049  0.1969
  943POPC   C4A13810  17.533  12.479   7.157  0.0695  0.2803 -0.2134
  943POPC   C1B13811  17.243  13.048   6.581  0.0790 -0.0291  0.1131
  943POPC   C2B13812  17.394  12.951   6.991  0.1901 -0.1139 -0.3279
  943POPC   C3B13813  17.256  12.937   7.393 -0.0406  0.2291 -0.2111
  943POPC   C4B13814  17.028  12.942   7.752 -0.1972  0.1825 -0.1181
  944POPC   NC313815  15.107  15.240   5.829  0.2461 -0.0070  0.3283
  944POPC   PO413816  15.320  15.334   6.226  0.1633 -0.1444 -0.3208
  944POPC   GL113817  15.364  15.534   6.482 -0.0261  0.0226  0.0841
  944POPC   GL213818  15.325  15.821   6.503 -0.2475 -0.0474  0.0618
  944POPC   C1A13819  15.206  15.520   6.871 -0.3141  0.3790  0.0896
  944POPC   D2A13820  15.317  15.375   7.310 -0.0023  0.0466 -0.3385
  944POPC   C3A13821  15.021  15.293   7.531  0.0923 -0.2044 -0.1366
  944POPC   C4A13822  14.756  15.292   7.890 -0.1086  0.1171  0.2366
  944POPC   C1B13823  15.098  16.010   6.790  0.0173  0.0492  0.1969
  944POPC   C2B13824  15.081  16.196   7.264  0.3331  0.1916  0.0780
  944POPC   C3B13825  15.045  16.178   7.698  0.1749 -0.3399  0.0117
  944POPC   C4B13826  15.110  16.580   7.863  0.1675  0.1216 -0.0412
  945POPC   NC313827   7.983   5.492   5.244 -0.2749 -0.0986  0.1365
  945POPC   PO413828   7.736   5.025   5.281 -0.2363  0.0884  0.2173
  945POPC   GL113829   7.600   5.352   5.656 -0.1619  0.2955 -0.0077
  945POPC   GL213830   7.322   5.612   5.600 -0.0578  0.1845 -0.0041
  945POPC   C1A13831   7.812   5.351   6.024 -0.1422  0.1056  0.0631
  945POPC   D2A13832   8.034   5.512   6.347  0.1927 -0.2836  0.1635
  945POPC   C3A13833   8.064   5.561   6.739 -0.1747 -0.1380 -0.0815
  945POPC   C4A13834   8.190   5.592   7.234 -0.1463 -0.3154  0.3151
  945POPC   C1B13835   7.418   5.654   6.120  0.0261 -0.1290 -0.0363
  945POPC   C2B13836   7.509   5.656   6.498  0.0739 -0.4130  0.0972
  945POPC   C3B13837   7.241   5.600   6.811  0.1939 -0.0592  0.0166
  945POPC   C4B13838   7.112   5.419   7.103  0.1563  0.2437  0.1696
  946POPC   NC313839   2.588  10.630   5.560 -0.1271  0.1512  0.0125
  946POPC   PO413840   2.809  10.333   5.818 -0.1617  0.0079 -0.0242
  946POPC   GL113841   2.820  10.246   6.190  0.0399  0.3133  0.2018
  946POPC   GL213842   2.473  10.285   6.391 -0.4814  0.1168  0.1645
  946POPC   C1A13843   2.969  10.351   6.560 -0.2632 -0.0957  0.0244
  946POPC   D2A13844   3.062  10.422   7.010 -0.2789  0.3238 -0.0496
  946POPC   C3A13845   3.208  10.792   7.205  0.1389 -0.3196 -0.1159
  946POPC   C4A13846   3.435  11.149   7.120 -0.0089  0.1469  0.2234
  946POPC   C1B13847   2.226  10.169   6.634 -0.0789  0.1521 -0.0582
  946POPC   C2B13848   2.038  10.171   7.081  0.1016 -0.2325 -0.1197
  946POPC   C3B13849   1.761   9.992   7.479 -0.2665 -0.1187  0.2437
  946POPC   C4B13850   1.630   9.825   7.813  0.0441 -0.0543  0.3182
  947POPC   NC313851   5.317  14.712   6.210  0.1316  0.0079  0.1750
  947POPC   PO413852   5.678  15.066   6.225  0.1179 -0.0701 -0.1030
  947POPC   GL113853   5.969  15.114   6.615  0.0905 -0.0732 -0.2720
  947POPC   GL213854   6.066  15.460   6.755 -0.1374 -0.2297  0.2581
  947POPC   C1A13855   6.095  15.088   7.110  0.0552  0.1767  0.0631
  947POPC   D2A13856   5.825  14.737   7.287 -0.0274 -0.0018  0.3158
  947POPC   C3A13857   5.808  14.653   7.700  0.1141  0.0636 -0.0251
  947POPC   C4A13858   5.966  14.565   8.114 -0.4535  0.3906 -0.0976
  947POPC   C1B13859   6.242  15.586   7.138 -0.1540  0.1578 -0.1187
  947POPC   C2B13860   6.446  15.278   7.450 -0.0665  0.0922 -0.0146
  947POPC   C3B13861   6.663  15.281   7.886 -0.3218  0.0339 -0.1843
  947POPC   C4B13862   6.732  15.373   8.360 -0.1840  0.0098  0.2255
  948POPC   NC313863  13.077   1.604   5.177  0.0683  0.0103 -0.0637
  948POPC   PO413864  13.307   1.738   5.596  0.4100  0.1594 -0.1150
  948POPC   GL113865  13.170   1.729   6.016 -0.2598  0.0421  0.0891
  948POPC   GL213866  12.914   1.529   6.131 -0.1025 -0.0829  0.1156
  948POPC   C1A13867  13.425   1.513   6.408 -0.2988  0.0342 -0.0014
  948POPC   D2A13868  13.770   1.434   6.629  0.0013 -0.0808 -0.1206
  948POPC   C3A13869  13.925   1.721   6.878 -0.3637  0.0079 -0.1932
  948POPC   C4A13870  14.155   1.987   7.211  0.1773 -0.2153 -0.1647
  948POPC   C1B13871  13.031   1.793   6.480 -0.0711  0.1112  0.1817
  948POPC   C2B13872  13.025   1.954   6.811  0.2243  0.1368 -0.1669
  948POPC   C3B13873  12.755   2.032   7.187  0.1415  0.3050 -0.1082
  948POPC   C4B13874  12.872   2.011   7.534 -0.0556 -0.0426  0.0948
  949POPC   NC313875   7.740   6.447   5.270 -0.0707  0.0956  0.0463
  949POPC   PO413876   7.951   5.982   5.321  0.0375 -0.1303 -0.0341
  949POPC   GL113877   7.671   5.967   5.655 -0.4026 -0.1031 -0.0619
  949POPC   GL213878   7.455   6.153   5.563 -0.2332  0.0178  0.3746
  949POPC   C1A13879   7.770   6.015   6.097  0.1663  0.2663  0.0743
  949POPC   D2A13880   7.570   6.206   6.489 -0.1690 -0.4072  0.0120
  949POPC   C3A13881   7.184   6.503   6.497 -0.0235 -0.2243 -0.3114
  949POPC   C4A13882   6.868   6.793   6.621  0.2320  0.0977 -0.1291
  949POPC   C1B13883   7.223   6.092   5.955 -0.1462  0.1703  0.0021
  949POPC   C2B13884   7.103   5.955   6.369 -0.0515  0.0768  0.2116
  949POPC   C3B13885   7.197   6.109   6.808  0.0066  0.0516  0.1116
  949POPC   C4B13886   7.242   5.946   7.202 -0.0362  0.0811  0.2480
  950POPC   NC313887   4.384   9.203   5.723 -0.1694 -0.0212 -0.1725
  950POPC   PO413888   4.449   9.583   5.881  0.3481  0.0516  0.2949
  950POPC   GL113889   4.472   9.672   6.337  0.0672  0.3381  0.0673
  950POPC   GL213890   4.504  10.043   6.443  0.2183  0.2306 -0.4593
  950POPC   C1A13891   4.490   9.634   6.768 -0.1118 -0.1610  0.1604
  950POPC   D2A13892   4.483   9.655   7.168  0.0503 -0.2958 -0.1252
  950POPC   C3A13893   4.347   9.852   7.559  0.1326 -0.1283 -0.1048
  950POPC   C4A13894   4.393  10.198   7.766  0.0118  0.0841  0.3404
  950POPC   C1B13895   4.542  10.181   6.813  0.2912  0.0523 -0.2450
  950POPC   C2B13896   4.515  10.293   7.247 -0.2290  0.3412 -0.1495
  950POPC   C3B13897   4.684  10.570   7.566 -0.1691  0.0382  0.2066
  950POPC   C4B13898   4.705  10.904   7.658 -0.0272 -0.2505  0.0175
  951POPC   NC313899   9.436   5.256   5.357  0.0214  0.0665 -0.0657
  951POPC   PO413900   9.041   5.122   5.318 -0.3013  0.0355  0.2751
  951POPC   GL113901   9.095   5.064   5.741  0.0247  0.0202  0.3928
  951POPC   GL213902   9.444   5.164   5.822  0.0142  0.1007 -0.0229
  951POPC   C1A13903   9.219   4.908   6.138  0.1030  0.2803 -0.1512
  951POPC   D2A13904   9.187   4.817   6.535 -0.0293  0.2342 -0.1632
  951POPC   C3A13905   9.461   4.811   6.907 -0.0495  0.2167 -0.2818
  951POPC   C4A13906   9.465   4.796   7.442 -0.0075  0.0201 -0.1198
  951POPC   C1B13907   9.647   5.170   6.183 -0.0252  0.2333  0.0798
  951POPC   C2B13908   9.725   5.074   6.628  0.2451  0.0980  0.0700
  951POPC   C3B13909  10.047   4.822   6.923 -0.1134  0.2445  0.0836
  951POPC   C4B13910  10.136   4.575   7.353  0.2681 -0.0908 -0.2102
  952POPC   NC313911   8.964   4.109   5.408  0.2424  0.1570 -0.2157
  952POPC   PO413912   9.298   4.292   5.482  0.1092  0.3289  0.0123
  952POPC   GL113913   9.081   4.351   5.831  0.0473  0.1711 -0.0837
  952POPC   GL213914   8.912   4.606   5.869  0.2055 -0.1179 -0.0693
  952POPC   C1A13915   9.116   4.407   6.240 -0.0540  0.1640 -0.0619
  952POPC   D2A13916   9.313   4.249   6.637  0.0087 -0.1257  0.0697
  952POPC   C3A13917   9.358   4.339   7.035  0.0792  0.2431  0.2189
  952POPC   C4A13918   9.043   4.562   7.251 -0.1603  0.1747  0.1084
  952POPC   C1B13919   8.730   4.815   6.219 -0.0609  0.3554  0.1007
  952POPC   C2B13920   8.580   5.010   6.509  0.0385  0.0511 -0.2113
  952POPC   C3B13921   8.707   5.210   6.881 -0.0744 -0.0255  0.0104
  952POPC   C4B13922   8.637   5.380   7.271  0.0538  0.0837  0.1413
  953POPC   NC313923   2.209   0.719   6.276  0.5768  0.0880 -0.1441
  953POPC   PO413924   1.775   0.700   6.216  0.3475  0.0163 -0.1325
  953POPC   GL113925   1.738   0.738   6.620 -0.2228 -0.3476 -0.0250
  953POPC   GL213926   1.997   0.856   6.745 -0.1085  0.1725 -0.1929
  953POPC   C1A13927   1.608   1.046   6.948  0.4417 -0.1411  0.0607
  953POPC   D2A13928   1.366   1.103   7.162 -0.1007  0.1188  0.0964
  953POPC   C3A13929   1.355   1.334   7.485  0.1998 -0.1513  0.1554
  953POPC   C4A13930   1.366   1.311   7.920 -0.0152  0.0077 -0.3488
  953POPC   C1B13931   2.325   0.928   7.108 -0.2180 -0.3593  0.3830
  953POPC   C2B13932   2.391   1.129   7.488 -0.5435  0.1976 -0.1251
  953POPC   C3B13933   2.293   1.450   7.724  0.3311 -0.2532 -0.3150
  953POPC   C4B13934   2.259   1.695   8.106 -0.0955 -0.2478 -0.2577
  954POPC   NC313935  15.905   2.552   5.902 -0.0322 -0.0647 -0.0856
  954POPC   PO413936  15.569   2.799   5.733 -0.4301  0.1497  0.1909
  954POPC   GL113937  15.256   2.921   6.046  0.2594  0.1907 -0.2501
  954POPC   GL213938  14.978   2.997   6.007  0.3169 -0.0054  0.0289
  954POPC   C1A13939  15.318   2.965   6.495  0.1807 -0.2624  0.2632
  954POPC   D2A13940  15.139   3.325   6.723  0.2221 -0.0086  0.2069
  954POPC   C3A13941  15.203   3.696   6.895  0.2015  0.1604 -0.1003
  954POPC   C4A13942  15.258   3.715   7.470 -0.1496  0.4637  0.0606
  954POPC   C1B13943  14.715   3.282   6.299  0.1279 -0.1942  0.1869
  954POPC   C2B13944  14.645   3.318   6.754 -0.1221  0.2572  0.0316
  954POPC   C3B13945  14.752   3.551   7.116 -0.1692 -0.1811  0.4421
  954POPC   C4B13946  14.923   3.934   7.249 -0.3463 -0.3778 -0.2568
  955POPC   NC313947   8.347   2.933   5.257  0.2533 -0.2705 -0.0543
  955POPC   PO413948   8.420   2.733   5.727 -0.0513  0.0253  0.0702
  955POPC   GL113949   8.590   2.740   6.069 -0.1355  0.0378 -0.0579
  955POPC   GL213950   8.697   3.099   6.114 -0.0145  0.1459  0.0225
  955POPC   C1A13951   8.668   2.330   6.282  0.1669 -0.1852  0.0504
  955POPC   D2A13952   8.876   1.893   6.462  0.0068 -0.0323 -0.1428
  955POPC   C3A13953   8.539   1.662   6.688  0.1140 -0.1019  0.1395
  955POPC   C4A13954   8.565   1.676   7.139 -0.0821 -0.0156 -0.2076
  955POPC   C1B13955   8.899   3.118   6.569 -0.1404  0.4192 -0.3942
  955POPC   C2B13956   8.904   3.166   6.993 -0.2909  0.1709  0.4195
  955POPC   C3B13957   8.802   3.101   7.402 -0.2070 -0.1713  0.0458
  955POPC   C4B13958   8.999   2.936   7.728 -0.2140 -0.0465 -0.1222
  956POPC   NC313959  10.093  11.502   5.586 -0.2221 -0.0702  0.0079
  956POPC   PO413960  10.342  11.228   5.553  0.1077  0.1116  0.1487
  956POPC   GL113961  10.344  11.193   5.980 -0.1394 -0.4024  0.1802
  956POPC   GL213962  10.172  11.452   6.102  0.0406  0.0024 -0.0240
  956POPC   C1A13963  10.172  10.985   6.432 -0.1260 -0.0675  0.1573
  956POPC   D2A13964  10.290  10.578   6.644  0.3161  0.1772  0.1202
  956POPC   C3A13965  10.052  10.571   7.031  0.1442 -0.1251  0.1518
  956POPC   C4A13966   9.771  10.368   7.215 -0.1869 -0.0139  0.2590
  956POPC   C1B13967   9.893  11.826   6.295 -0.1486  0.0832 -0.1679
  956POPC   C2B13968   9.944  12.141   6.575  0.2249  0.0875  0.2260
  956POPC   C3B13969   9.870  12.068   7.034  0.2055  0.1436 -0.1421
  956POPC   C4B13970   9.850  12.258   7.461 -0.1398 -0.1395  0.1766
  957POPC   NC313971  10.985  18.248   5.854 -0.0235 -0.0183 -0.2478
  957POPC   PO413972  10.641  17.975   5.951  0.0225 -0.2079  0.1650
  957POPC   GL113973  10.878  17.745   6.309 -0.1811 -0.0617 -0.0498
  957POPC   GL213974  11.106  17.547   6.305  0.2000  0.3139  0.1936
  957POPC   C1A13975  10.830  17.670   6.733  0.2760 -0.4967 -0.1345
  957POPC   D2A13976  10.629  17.497   7.162 -0.0744  0.1095 -0.0432
  957POPC   C3A13977  10.221  17.582   7.304 -0.1481 -0.0093 -0.1491
  957POPC   C4A13978  10.029  17.487   7.758 -0.0727 -0.1159 -0.0232
  957POPC   C1B13979  11.330  17.486   6.720  0.1086 -0.2504  0.1834
  957POPC   C2B13980  11.507  17.156   7.094 -0.0145  0.2134  0.1219
  957POPC   C3B13981  11.343  17.147   7.528  0.1605  0.0603  0.2318
  957POPC   C4B13982  11.044  17.464   7.836  0.0324 -0.0407  0.0118
  958POPC   NC313983   4.113   4.386   5.660  0.1745  0.1769 -0.2238
  958POPC   PO413984   4.293   4.181   6.018  0.1018  0.1491 -0.1415
  958POPC   GL113985   4.401   3.815   6.272 -0.1194  0.0450  0.0302
  958POPC   GL213986   4.356   3.454   6.263  0.0784 -0.5018 -0.1278
  958POPC   C1A13987   4.525   3.567   6.710  0.0394  0.0126 -0.2923
  958POPC   D2A13988   4.414   3.258   7.070 -0.0709 -0.2983 -0.1296
  958POPC   C3A13989   4.401   3.447   7.488 -0.2106 -0.1755 -0.2357
  958POPC   C4A13990   4.342   3.938   7.623  0.0695  0.1904 -0.1069
  958POPC   C1B13991   4.073   3.376   6.637  0.1846  0.0707 -0.2798
  958POPC   C2B13992   3.737   3.200   6.844  0.0045 -0.0111 -0.4602
  958POPC   C3B13993   3.679   3.211   7.257  0.0092  0.1097  0.0951
  958POPC   C4B13994   3.834   3.236   7.619  0.2784 -0.2725 -0.0662
  959POPC   NC313995   5.335   7.972   5.722  0.3571 -0.1775  0.1728
  959POPC   PO413996   4.887   7.818   5.821 -0.0210  0.0551 -0.2851
  959POPC   GL113997   4.582   7.645   6.122 -0.0155 -0.3128 -0.0457
  959POPC   GL213998   4.510   8.005   6.233 -0.2423 -0.0336 -0.1771
  959POPC   C1A13999   4.630   7.558   6.589 -0.1874 -0.2194 -0.1853
  959POPC   D2A14000   4.870   7.421   6.909 -0.1386  0.0062  0.1357
  959POPC   C3A14001   4.979   7.179   7.287 -0.0658 -0.4425  0.1319
  959POPC   C4A14002   5.351   7.145   7.696  0.1189  0.1617  0.0191
  959POPC   C1B14003   4.379   8.021   6.615 -0.1681 -0.0868  0.1639
  959POPC   C2B14004   4.312   7.817   6.966 -0.1807  0.3397 -0.1775
  959POPC   C3B14005   4.575   7.578   7.324 -0.1006 -0.2219 -0.3441
  959POPC   C4B14006   4.484   7.692   7.760  0.1830 -0.1959  0.0122
  960POPC   NC314007   0.236  10.971   5.544 -0.1181 -0.0467 -0.0139
  960POPC   PO414008   0.099  10.655   5.911 -0.1221  0.2140 -0.1091
  960POPC   GL114009   0.019  10.952   6.264 -0.1352 -0.0717 -0.0298
  960POPC   GL214010   0.270  10.949   6.434  0.1385 -0.0159  0.0882
  960POPC   C1A14011  -0.200  10.742   6.646  0.3637  0.0384  0.2533
  960POPC   D2A14012  -0.332  10.341   6.866 -0.0318 -0.1238  0.2119
  960POPC   C3A14013  -0.113  10.155   7.267 -0.0559 -0.2739 -0.2743
  960POPC   C4A14014   0.124  10.314   7.563  0.1981  0.2450  0.0691
  960POPC   C1B14015   0.130  11.119   6.802 -0.0365  0.0817  0.0288
  960POPC   C2B14016   0.015  11.306   7.251 -0.2230  0.1592  0.0912
  960POPC   C3B14017  -0.106  11.353   7.666  0.1145 -0.0262  0.0295
  960POPC   C4B14018  -0.075  11.642   8.021 -0.0145  0.2609 -0.3270
  961POPC   NC314019   3.106   1.071   6.128  0.0473  0.0937  0.1699
  961POPC   PO414020   3.294   0.848   6.479  0.1817  0.2736 -0.2005
  961POPC   GL114021   3.483   1.079   6.846 -0.0545 -0.2051 -0.1216
  961POPC   GL214022   3.793   1.352   6.821  0.0880  0.3122  0.3655
  961POPC   C1A14023   3.474   1.355   7.300 -0.0838 -0.1608  0.1086
  961POPC   D2A14024   3.709   1.395   7.682  0.0620  0.0283  0.0216
  961POPC   C3A14025   3.556   1.557   8.135 -0.1859 -0.0659 -0.1156
  961POPC   C4A14026   3.703   2.020   8.253  0.1975  0.1899 -0.0395
  961POPC   C1B14027   3.953   1.319   7.212 -0.1638  0.3063  0.1227
  961POPC   C2B14028   4.137   1.067   7.510  0.1940 -0.2529  0.0979
  961POPC   C3B14029   4.025   0.897   7.826 -0.1495 -0.1348 -0.0243
  961POPC   C4B14030   3.894   1.145   8.183 -0.2605  0.1744 -0.1501
  962POPC   NC314031  11.802  12.098   5.513  0.2739 -0.1127  0.2283
  962POPC   PO414032  11.839  11.769   5.482  0.1355 -0.1688  0.6690
  962POPC   GL114033  11.836  11.618   5.958 -0.0203 -0.4482  0.1189
  962POPC   GL214034  11.861  11.959   6.112  0.0342 -0.2945 -0.2943
  962POPC   C1A14035  11.967  11.425   6.427 -0.0700  0.0397  0.0231
  962POPC   D2A14036  11.741  11.138   6.641 -0.1067  0.3419  0.2925
  962POPC   C3A14037  11.762  11.242   7.046  0.1718 -0.2526  0.0817
  962POPC   C4A14038  11.520  11.235   7.434 -0.3392  0.1345  0.2560
  962POPC   C1B14039  11.696  12.068   6.507 -0.0164  0.2076  0.0310
  962POPC   C2B14040  11.449  12.214   6.796  0.1211  0.0130  0.1738
  962POPC   C3B14041  11.327  12.142   7.246 -0.2897  0.3503  0.0368
  962POPC   C4B14042  11.264  12.508   7.475 -0.1544  0.0770 -0.2438
  963POPC   NC314043  10.164  17.838   6.195 -0.2259 -0.4704 -0.0305
  963POPC   PO414044   9.828  18.182   6.168 -0.2512  0.0389  0.0022
  963POPC   GL114045  10.063  18.190   6.569  0.0256  0.1116 -0.0725
  963POPC   GL214046  10.098  18.489   6.787 -0.3901  0.1938 -0.3586
  963POPC   C1A14047  10.348  17.920   6.898 -0.2432 -0.1995 -0.1019
  963POPC   D2A14048  10.568  17.988   7.225  0.0219  0.2643  0.0054
  963POPC   C3A14049  10.586  17.690   7.613 -0.0896 -0.0011  0.1863
  963POPC   C4A14050  10.520  17.669   8.096  0.4053  0.0979  0.1108
  963POPC   C1B14051  10.206  18.548   7.203  0.0953 -0.0084  0.0926
  963POPC   C2B14052  10.223  18.453   7.676  0.2035 -0.3019 -0.0695
  963POPC   C3B14053   9.857  18.793   7.891 -0.1055  0.0687  0.2339
  963POPC   C4B14054   9.479  19.043   7.890  0.1325  0.1508 -0.5139
  964POPC   NC314055   2.363   1.594   5.880  0.0116  0.2066 -0.0424
  964POPC   PO414056   2.138   1.229   6.075 -0.1125  0.0309  0.4443
  964POPC   GL114057   1.958   1.237   6.437  0.1392  0.0274  0.1980
  964POPC   GL214058   1.666   1.306   6.530 -0.0453  0.1155  0.1790
  964POPC   C1A14059   1.931   1.373   6.929  0.0077 -0.1392  0.1208
  964POPC   D2A14060   1.912   1.141   7.391  0.1209  0.2118 -0.0629
  964POPC   C3A14061   1.864   1.168   7.817 -0.1207 -0.0124 -0.1579
  964POPC   C4A14062   1.771   1.169   8.314 -0.0620  0.3071  0.2211
  964POPC   C1B14063   1.467   1.518   6.862  0.0649  0.3729 -0.1280
  964POPC   C2B14064   1.514   1.753   7.208  0.0081  0.1950 -0.1053
  964POPC   C3B14065   1.766   2.054   7.461  0.1533  0.0851  0.3258
  964POPC   C4B14066   1.789   2.345   7.808  0.0458 -0.3108 -0.4091
  965POPC   NC314067   1.687   8.915   5.428 -0.1361 -0.2251 -0.0309
  965POPC   PO414068   1.411   8.967   5.694 -0.0807 -0.2317 -0.4489
  965POPC   GL114069   1.276   9.044   6.124  0.1659 -0.1109 -0.0408
  965POPC   GL214070   1.271   8.693   6.255 -0.0493  0.2457  0.1975
  965POPC   C1A14071   1.303   9.032   6.617 -0.0729 -0.3183  0.1830
  965POPC   D2A14072   1.048   8.918   6.992  0.0612 -0.2270  0.1270
  965POPC   C3A14073   0.673   8.599   7.102  0.0234  0.1462 -0.2275
  965POPC   C4A14074   0.678   8.451   7.391 -0.1502 -0.0457 -0.0147
  965POPC   C1B14075   0.953   8.674   6.429 -0.0353  0.3747 -0.0437
  965POPC   C2B14076   0.659   8.993   6.652 -0.0873 -0.1036 -0.2478
  965POPC   C3B14077   0.606   9.162   7.002  0.1952 -0.3808  0.0307
  965POPC   C4B14078   1.031   9.393   7.162 -0.0337 -0.5710  0.1006
  966POPC   NC314079  18.037  10.817   5.752 -0.1908  0.0357 -0.2539
  966POPC   PO414080  17.637  10.562   5.594 -0.0593 -0.1660  0.0950
  966POPC   GL114081  17.519  10.591   6.008  0.3023 -0.1936  0.3401
  966POPC   GL214082  17.187  10.529   6.013  0.2134 -0.0682 -0.2061
  966POPC   C1A14083  17.852  10.384   6.269  0.0178 -0.5153 -0.1513
  966POPC   D2A14084  18.329  10.387   6.317 -0.0391 -0.0150  0.2131
  966POPC   C3A14085  18.203  10.004   6.455 -0.2197 -0.3001 -0.1905
  966POPC   C4A14086  18.126   9.835   6.888  0.1582  0.2553  0.1778
  966POPC   C1B14087  17.253  10.466   6.435  0.1182 -0.1954  0.2593
  966POPC   C2B14088  17.251  10.464   6.840 -0.3136  0.2449  0.0207
  966POPC   C3B14089  17.293  10.462   7.205  0.0958 -0.2174 -0.0009
  966POPC   C4B14090  17.112  10.380   7.560 -0.0283  0.2161  0.0252
  967POPC   NC314091   9.830  12.233   5.521 -0.0059  0.0121  0.1410
  967POPC   PO414092   9.762  11.869   5.629 -0.1496  0.1835 -0.1869
  967POPC   GL114093   9.722  11.569   5.918  0.4742 -0.0015  0.0167
  967POPC   GL214094   9.413  11.372   6.018 -0.0602 -0.1438 -0.0279
  967POPC   C1A14095   9.743  11.391   6.320 -0.1846 -0.0438 -0.0114
  967POPC   D2A14096   9.418  11.228   6.546 -0.3028  0.0585  0.0849
  967POPC   C3A14097   9.326  10.998   6.950 -0.1606 -0.0294 -0.2429
  967POPC   C4A14098   9.177  11.032   7.379 -0.1049 -0.0751  0.3455
  967POPC   C1B14099   9.300  11.638   6.364 -0.1492 -0.0223  0.1526
  967POPC   C2B14100   9.119  11.831   6.829  0.1984 -0.1782 -0.1518
  967POPC   C3B14101   9.007  11.972   7.289  0.0904 -0.0838  0.1693
  967POPC   C4B14102   8.549  11.862   7.383  0.0470  0.2538 -0.1477
  968POPC   NC314103   7.539   3.225   5.807  0.0894  0.1362  0.0091
  968POPC   PO414104   7.802   3.487   5.874  0.1380 -0.2295 -0.3698
  968POPC   GL114105   7.939   3.667   6.216  0.2249  0.1412 -0.2683
  968POPC   GL214106   7.936   3.971   6.122  0.3976  0.0425  0.2554
  968POPC   C1A14107   7.851   3.711   6.620 -0.0509 -0.0593 -0.0342
  968POPC   D2A14108   7.977   3.663   6.990 -0.2414  0.0074  0.1390
  968POPC   C3A14109   7.670   3.660   7.253  0.0743  0.1073 -0.3425
  968POPC   C4A14110   7.542   3.584   7.619 -0.1148  0.1876 -0.2301
  968POPC   C1B14111   7.942   4.201   6.519 -0.3213 -0.0380  0.2293
  968POPC   C2B14112   7.921   4.212   6.969 -0.1965  0.2572  0.3273
  968POPC   C3B14113   7.837   4.140   7.284  0.1469  0.1814 -0.1012
  968POPC   C4B14114   7.522   4.209   7.511  0.0497 -0.2336  0.0587
  969POPC   NC314115  11.936   6.878   4.955 -0.1678 -0.0073 -0.2706
  969POPC   PO414116  12.328   7.103   4.933  0.3436 -0.1450  0.4583
  969POPC   GL114117  12.202   6.973   5.368 -0.1461  0.0254 -0.0833
  969POPC   GL214118  12.327   6.693   5.486 -0.0472  0.0639  0.1210
  969POPC   C1A14119  11.839   7.162   5.562 -0.0229  0.2480 -0.3143
  969POPC   D2A14120  11.774   7.118   6.019  0.0622 -0.0661 -0.1483
  969POPC   C3A14121  11.694   7.019   6.433  0.0485 -0.1703 -0.1891
  969POPC   C4A14122  11.824   6.900   6.832 -0.0084 -0.1235  0.0233
  969POPC   C1B14123  12.229   6.880   5.949  0.1160  0.0239 -0.3242
  969POPC   C2B14124  12.172   7.016   6.452 -0.0757 -0.1238  0.2717
  969POPC   C3B14125  12.258   7.140   6.988  0.2368 -0.1894  0.0452
  969POPC   C4B14126  12.079   7.464   7.109  0.0463 -0.0129 -0.1437
  970POPC   NC314127  16.902  18.308   5.673  0.1191  0.1949  0.0897
  970POPC   PO414128  17.228  18.183   6.083  0.1942  0.0814 -0.2062
  970POPC   GL114129  17.309  18.296   6.477  0.0735  0.2728 -0.1246
  970POPC   GL214130  17.616  18.436   6.453 -0.0024  0.3399  0.1225
  970POPC   C1A14131  17.539  18.126   6.823  0.1611  0.2811 -0.0690
  970POPC   D2A14132  17.705  17.862   7.134 -0.1857  0.0250  0.0262
  970POPC   C3A14133  17.888  18.008   7.504  0.0469  0.3470  0.3215
  970POPC   C4A14134  17.762  18.388   7.776  0.3127  0.0941  0.2328
  970POPC   C1B14135  17.288  18.773   6.665 -0.0824  0.0601 -0.1013
  970POPC   C2B14136  17.224  18.815   7.180  0.1527 -0.1529 -0.1754
  970POPC   C3B14137  17.389  18.711   7.665 -0.2085  0.1920  0.5038
  970POPC   C4B14138  17.192  19.080   7.797 -0.1430 -0.3142  0.1846
  971POPC   NC314139   3.597  17.278   6.186 -0.2660  0.4845 -0.2199
  971POPC   PO414140   3.888  17.593   6.242  0.0574  0.0474  0.4020
  971POPC   GL114141   3.926  17.825   6.598 -0.0106  0.2270  0.0585
  971POPC   GL214142   4.356  17.829   6.509  0.2149  0.1852 -0.1812
  971POPC   C1A14143   3.940  17.687   7.044 -0.2022  0.1493 -0.0479
  971POPC   D2A14144   4.098  17.792   7.359  0.2267 -0.3203 -0.1090
  971POPC   C3A14145   3.859  17.450   7.621  0.2626  0.0565  0.1391
  971POPC   C4A14146   3.699  17.117   7.751  0.0548  0.1436  0.1711
  971POPC   C1B14147   4.455  17.933   6.937 -0.0197 -0.0042 -0.1312
  971POPC   C2B14148   4.651  17.887   7.363  0.1683 -0.0879 -0.1981
  971POPC   C3B14149   4.892  17.826   7.787 -0.1931 -0.0102  0.1953
  971POPC   C4B14150   5.093  18.028   8.036  0.3096  0.1096  0.0874
  972POPC   NC314151   7.260   1.149   6.153 -0.0874 -0.2020  0.0955
  972POPC   PO414152   7.396   1.290   6.464 -0.0653 -0.0045  0.3947
  972POPC   GL114153   7.130   1.356   6.913 -0.1448  0.0778  0.3249
  972POPC   GL214154   6.861   1.255   6.998 -0.2988  0.0717  0.0955
  972POPC   C1A14155   7.362   1.395   7.156 -0.0458  0.1417  0.0953
  972POPC   D2A14156   7.587   1.772   7.313 -0.2264  0.2261 -0.0693
  972POPC   C3A14157   7.625   1.651   7.778 -0.0582 -0.1692 -0.3392
  972POPC   C4A14158   7.368   1.653   8.153 -0.0323  0.3348  0.1706
  972POPC   C1B14159   6.582   0.940   7.240  0.4800  0.0420  0.2175
  972POPC   C2B14160   6.528   0.550   7.507  0.2563 -0.2180 -0.0051
  972POPC   C3B14161   6.311   0.194   7.489  0.0984  0.2649 -0.2543
  972POPC   C4B14162   5.874   0.037   7.501 -0.0645 -0.0344  0.0671
  973POPC   NC314163  17.677   5.688   5.501  0.2799  0.1931 -0.1783
  973POPC   PO414164  18.047   5.733   5.400  0.3428  0.1494 -0.0469
  973POPC   GL114165  18.066   5.543   5.845 -0.0720 -0.0913 -0.3601
  973POPC   GL214166  17.776   5.460   5.945 -0.1017  0.1466 -0.0777
  973POPC   C1A14167  18.343   5.558   6.269  0.4607  0.3219 -0.1191
  973POPC   D2A14168  18.475   5.268   6.482  0.2644  0.3229 -0.1671
  973POPC   C3A14169  18.320   5.170   6.827  0.3304  0.1572 -0.1061
  973POPC   C4A14170  18.560   5.161   7.212 -0.0261  0.0462  0.1695
  973POPC   C1B14171  17.757   5.718   6.263 -0.2808  0.1026 -0.1304
  973POPC   C2B14172  17.620   6.009   6.511  0.0551  0.3523  0.1276
  973POPC   C3B14173  17.489   6.313   6.794 -0.2000  0.3471  0.0432
  973POPC   C4B14174  17.496   6.495   7.244 -0.2810  0.3958 -0.2739
  974POPC   NC314175  11.492   6.094   5.164 -0.0764  0.3620 -0.0024
  974POPC   PO414176  11.467   5.717   5.395 -0.2228  0.4731  0.0854
  974POPC   GL114177  11.251   6.037   5.625 -0.3231  0.0627  0.0767
  974POPC   GL214178  11.051   6.271   5.438  0.4102  0.1968  0.2287
  974POPC   C1A14179  11.141   6.020   6.099  0.1076  0.0024 -0.0818
  974POPC   D2A14180  11.016   5.881   6.490  0.6018  0.0052 -0.1539
  974POPC   C3A14181  11.050   6.035   6.837  0.0657 -0.1075 -0.2033
  974POPC   C4A14182  11.018   6.302   7.201 -0.2012 -0.2106 -0.1177
  974POPC   C1B14183  10.787   6.316   5.923  0.0169  0.4294 -0.2650
  974POPC   C2B14184  10.857   6.346   6.364 -0.1250 -0.2754 -0.1542
  974POPC   C3B14185  10.805   6.504   6.777 -0.0769 -0.1044 -0.0906
  974POPC   C4B14186  10.811   6.737   7.049 -0.2633 -0.1334  0.1110
  975POPC   NC314187   1.517   2.003   5.918  0.2127  0.1709  0.1058
  975POPC   PO414188   1.103   1.915   5.934 -0.1743  0.1233  0.0089
  975POPC   GL114189   1.076   2.099   6.330  0.0907 -0.0665 -0.3112
  975POPC   GL214190   0.878   2.248   6.306 -0.1435 -0.0868  0.0664
  975POPC   C1A14191   1.257   2.309   6.730 -0.0371 -0.2189  0.1603
  975POPC   D2A14192   1.597   2.048   6.823  0.1576 -0.0344 -0.1969
  975POPC   C3A14193   2.020   2.184   7.027 -0.0205  0.2343  0.1288
  975POPC   C4A14194   2.083   2.492   7.385 -0.3645 -0.3944  0.0937
  975POPC   C1B14195   0.789   2.162   6.722  0.1705  0.2076 -0.1025
  975POPC   C2B14196   0.789   2.150   7.224  0.2697 -0.0918 -0.0832
  975POPC   C3B14197   1.027   2.295   7.424  0.1876 -0.0240 -0.1610
  975POPC   C4B14198   1.410   2.391   7.192 -0.2788 -0.2777 -0.1431
  976POPC   NC314199  13.530  13.349   5.858 -0.0234  0.2942  0.0151
  976POPC   PO414200  13.925  13.524   6.162 -0.0158 -0.0172 -0.0846
  976POPC   GL114201  13.979  13.673   6.560  0.0953 -0.0100 -0.1385
  976POPC   GL214202  13.860  13.975   6.485  0.1065 -0.2756  0.1330
  976POPC   C1A14203  14.164  13.657   6.922  0.1151  0.0104  0.0832
  976POPC   D2A14204  14.372  13.666   7.298 -0.1049  0.0162 -0.1601
  976POPC   C3A14205  14.245  13.535   7.674 -0.0667 -0.0792 -0.1827
  976POPC   C4A14206  14.273  13.817   8.071  0.1422 -0.0048  0.1282
  976POPC   C1B14207  13.749  13.886   6.934 -0.2046  0.0880  0.3046
  976POPC   C2B14208  13.808  13.721   7.321 -0.1652  0.1043 -0.1745
  976POPC   C3B14209  13.774  13.381   7.616 -0.1696 -0.0891 -0.1097
  976POPC   C4B14210  14.109  12.956   7.753  0.1544  0.1628  0.2177
  977POPC   NC314211   9.013   6.522   5.074 -0.2028  0.0105  0.1962
  977POPC   PO414212   9.185   6.596   5.485 -0.2754  0.7911 -0.1877
  977POPC   GL114213   8.992   6.396   5.804  0.1580 -0.3466 -0.0576
  977POPC   GL214214   8.618   6.478   5.888 -0.0601  0.0514  0.2547
  977POPC   C1A14215   9.224   6.401   6.224 -0.0120 -0.0562  0.2298
  977POPC   D2A14216   9.174   6.479   6.566 -0.1830  0.4145  0.0766
  977POPC   C3A14217   9.455   6.335   6.898 -0.1934 -0.1232  0.1470
  977POPC   C4A14218   9.593   6.473   7.300  0.3023 -0.1941  0.0186
  977POPC   C1B14219   8.743   6.581   6.377 -0.2080 -0.4140 -0.3792
  977POPC   C2B14220   8.785   6.703   6.879 -0.2456 -0.0532 -0.0785
  977POPC   C3B14221   8.635   6.551   7.300 -0.3719  0.1624  0.2879
  977POPC   C4B14222   8.465   6.784   7.572 -0.1115 -0.3081 -0.0758
  978POPC   NC314223  11.422  11.850   5.739 -0.2719 -0.0365  0.1543
  978POPC   PO414224  11.479  11.316   5.702 -0.3975  0.0781  0.1196
  978POPC   GL114225  11.287  11.407   6.030  0.0992 -0.0904 -0.2084
  978POPC   GL214226  10.908  11.625   6.054 -0.2190  0.0543 -0.0244
  978POPC   C1A14227  11.449  11.486   6.467  0.0623 -0.0368 -0.2437
  978POPC   D2A14228  11.562  11.639   6.799 -0.2262  0.0208  0.2747
  978POPC   C3A14229  11.243  11.601   7.149 -0.0644 -0.2078  0.0908
  978POPC   C4A14230  11.123  11.492   7.580  0.0067 -0.0853  0.1273
  978POPC   C1B14231  10.868  11.468   6.463  0.0131 -0.2583  0.2495
  978POPC   C2B14232  10.714  11.425   6.925 -0.1514  0.0930  0.0457
  978POPC   C3B14233  10.196  11.448   7.147  0.2683  0.1352  0.0618
  978POPC   C4B14234   9.730  11.401   7.311  0.0407  0.5974 -0.1416
  979POPC   NC314235  18.107   5.010   5.851 -0.0157 -0.0055  0.2059
  979POPC   PO414236  17.832   5.207   5.475 -0.2328  0.0596 -0.1868
  979POPC   GL114237  17.623   4.990   5.890  0.1373 -0.0948 -0.0000
  979POPC   GL214238  17.780   4.790   6.104 -0.1917 -0.0355  0.3246
  979POPC   C1A14239  17.469   5.216   6.210 -0.2119 -0.0622 -0.4234
  979POPC   D2A14240  17.016   5.247   6.345 -0.0810  0.1572 -0.0730
  979POPC   C3A14241  17.107   5.010   6.668 -0.2694  0.1344 -0.0682
  979POPC   C4A14242  16.948   5.088   7.138 -0.0648 -0.1153  0.0788
  979POPC   C1B14243  17.948   4.818   6.606  0.1205 -0.0545  0.0062
  979POPC   C2B14244  18.057   4.732   6.979  0.2596  0.3479  0.3938
  979POPC   C3B14245  18.415   4.663   7.179  0.1794  0.0298  0.1076
  979POPC   C4B14246  18.770   4.648   7.410 -0.1874 -0.0879  0.2282
  980POPC   NC314247   6.381   4.927   5.603  0.0460  0.1324  0.1075
  980POPC   PO414248   5.940   5.188   5.686  0.1976  0.2163  0.4492
  980POPC   GL114249   6.019   5.256   6.135 -0.1584  0.2902 -0.0038
  980POPC   GL214250   5.804   5.135   6.396  0.2749 -0.0793  0.1580
  980POPC   C1A14251   6.294   5.146   6.686 -0.2080  0.1811  0.2783
  980POPC   D2A14252   6.158   5.072   7.119 -0.1860  0.2013  0.0240
  980POPC   C3A14253   6.312   5.296   7.588  0.0745 -0.0395 -0.2511
  980POPC   C4A14254   6.390   5.366   8.015  0.4343 -0.0683 -0.0846
  980POPC   C1B14255   5.784   4.902   6.717 -0.1079 -0.2597 -0.1364
  980POPC   C2B14256   5.791   4.649   7.089 -0.0673  0.0158  0.2357
  980POPC   C3B14257   5.972   4.708   7.450  0.0603  0.0624 -0.1723
  980POPC   C4B14258   5.858   4.623   7.953 -0.0712  0.0097  0.4459
  981YOPC   NC314259   0.151  10.109   5.786  0.0650 -0.1766 -0.0835
  981YOPC   PO414260   0.237   9.658   5.735  0.0417  0.3380 -0.0557
  981YOPC   GL114261  -0.020   9.667   6.116  0.3471 -0.0403 -0.0811
  981YOPC   GL214262  -0.213   9.390   6.178 -0.1331 -0.2039  0.1246
  981YOPC   C1A14263   0.016   9.546   6.575 -0.1841 -0.2860 -0.0562
  981YOPC   D2A14264   0.185   9.464   6.909  0.0223 -0.0807 -0.0577
  981YOPC   C3A14265   0.611   9.672   6.992 -0.3280  0.2356 -0.2333
  981YOPC   C4A14266   0.963   9.853   7.232 -0.1206  0.3810  0.0431
  981YOPC   C1B14267  -0.430   9.437   6.546 -0.0822 -0.3488  0.1384
  981YOPC   C2B14268  -0.314   9.251   7.039 -0.2112  0.0061  0.2510
  981YOPC   D3B14269  -0.487   9.495   7.372 -0.1187  0.0617 -0.0505
  981YOPC   C4B14270  -0.801   9.586   7.680 -0.0389  0.0844 -0.4642
  982YOPC   NC314271   6.981   8.566   5.311 -0.1482  0.0711 -0.0104
  982YOPC   PO414272   6.634   8.348   5.569  0.1412 -0.3484  0.2002
  982YOPC   GL114273   6.866   8.700   5.883  0.1825 -0.0384  0.0406
  982YOPC   GL214274   6.636   8.979   5.909  0.0241 -0.1097 -0.0193
  982YOPC   C1A14275   7.032   8.827   6.239  0.1133  0.2078 -0.1775
  982YOPC   D2A14276   7.166   9.123   6.577 -0.0380 -0.0276 -0.0065
  982YOPC   C3A14277   7.235   8.960   6.882  0.0338  0.0781  0.2658
  982YOPC   C4A14278   7.359   8.937   7.304  0.4075  0.1080 -0.2074
  982YOPC   C1B14279   6.764   9.259   6.275 -0.2166 -0.0485  0.0453
  982YOPC   C2B14280   6.775   9.517   6.620  0.0001 -0.0484 -0.3415
  982YOPC   D3B14281   6.953   9.399   7.053  0.0262  0.1237  0.0423
  982YOPC   C4B14282   7.051   9.308   7.513  0.1316  0.2487 -0.0555
  983YOPC   NC314283  17.292  17.298   5.744  0.1907  0.0462  0.1187
  983YOPC   PO414284  17.270  17.372   6.211 -0.0283 -0.0238  0.2589
  983YOPC   GL114285  17.312  17.144   6.477 -0.2797 -0.3448  0.0785
  983YOPC   GL214286  17.013  16.977   6.538  0.1615  0.4071  0.1781
  983YOPC   C1A14287  17.316  17.056   6.861  0.1035 -0.1346 -0.1300
  983YOPC   D2A14288  17.330  16.844   7.309  0.2065  0.1641  0.1872
  983YOPC   C3A14289  17.477  17.149   7.623  0.2765 -0.1478 -0.3018
  983YOPC   C4A14290  17.720  17.153   7.952 -0.0239 -0.0735  0.2545
  983YOPC   C1B14291  16.999  16.700   6.758  0.1026 -0.2642  0.0326
  983YOPC   C2B14292  17.011  16.285   6.717  0.1699 -0.0699  0.1675
  983YOPC   D3B14293  16.762  15.946   6.578 -0.1005 -0.0214 -0.0931
  983YOPC   C4B14294  16.899  15.604   6.275 -0.3249  0.2664  0.2205
  984YOPC   NC314295  13.613  11.739   5.774 -0.2301 -0.0969  0.2236
  984YOPC   PO414296  14.023  11.967   5.870 -0.2362 -0.1657 -0.1203
  984YOPC   GL114297  14.323  11.984   6.228 -0.0472  0.0079  0.4226
  984YOPC   GL214298  14.590  12.206   6.211  0.1287 -0.2024  0.2766
  984YOPC   C1A14299  14.302  11.694   6.594 -0.0167 -0.0103 -0.0680
  984YOPC   D2A14300  14.269  11.515   6.924 -0.4364  0.1202 -0.0077
  984YOPC   C3A14301  14.394  11.711   7.309  0.0806  0.2363 -0.0872
  984YOPC   C4A14302  14.567  12.052   7.520  0.1506 -0.0605  0.0446
  984YOPC   C1B14303  14.683  12.126   6.593  0.1803  0.2047 -0.0362
  984YOPC   C2B14304  14.634  11.916   6.927  0.2823  0.1649  0.1090
  984YOPC   D3B14305  14.892  11.711   7.163 -0.2186  0.1684 -0.0524
  984YOPC   C4B14306  14.903  11.677   7.562  0.2986 -0.0921 -0.3747
  985YOPC   NC314307   6.746  17.399   6.049 -0.2899  0.0855 -0.2410
  985YOPC   PO414308   7.135  17.329   6.123  0.1699  0.2878 -0.1077
  985YOPC   GL114309   7.141  17.302   6.567  0.2480 -0.1704 -0.0343
  985YOPC   GL214310   7.387  17.543   6.634  0.1903  0.2091  0.0865
  985YOPC   C1A14311   6.910  17.484   6.904 -0.2352 -0.0893 -0.1920
  985YOPC   D2A14312   6.836  17.599   7.392  0.0173  0.0766  0.1085
  985YOPC   C3A14313   6.493  17.512   7.617  0.0561  0.1940 -0.1510
  985YOPC   C4A14314   6.158  17.308   7.787  0.0171  0.0285  0.2315
  985YOPC   C1B14315   7.473  17.277   7.008 -0.0233  0.1560 -0.1369
  985YOPC   C2B14316   7.622  17.273   7.385 -0.4437 -0.2061 -0.3380
  985YOPC   D3B14317   7.367  16.984   7.751  0.0519 -0.1114  0.2978
  985YOPC   C4B14318   7.372  16.931   8.269 -0.0495  0.1017  0.1105
  986YOPC   NC314319   3.088  14.178   6.076 -0.2917  0.1297 -0.1274
  986YOPC   PO414320   2.898  14.571   6.275  0.2905  0.2631 -0.1111
  986YOPC   GL114321   3.110  14.851   6.659 -0.0356 -0.0641  0.0057
  986YOPC   GL214322   3.388  15.123   6.711  0.2486 -0.2055 -0.0812
  986YOPC   C1A14323   3.001  14.882   7.137  0.1969 -0.0145  0.1252
  986YOPC   D2A14324   3.245  15.060   7.449 -0.0431 -0.3787 -0.0806
  986YOPC   C3A14325   2.956  15.294   7.797  0.2115  0.0579  0.2604
  986YOPC   C4A14326   2.781  15.587   8.085 -0.2023 -0.2525 -0.0352
  986YOPC   C1B14327   3.570  15.136   7.115 -0.1462 -0.0771  0.1032
  986YOPC   C2B14328   3.709  15.130   7.488  0.1026 -0.0762  0.0770
  986YOPC   D3B14329   4.021  15.370   7.513  0.1006  0.2565  0.0450
  986YOPC   C4B14330   4.101  15.567   7.845 -0.1219  0.3447  0.0265
  987YOPC   NC314331  13.733  10.030   5.277 -0.1557 -0.0484 -0.3541
  987YOPC   PO414332  13.767   9.812   5.673  0.0518 -0.1067 -0.0461
  987YOPC   GL114333  13.666   9.908   6.044  0.0409 -0.0490 -0.2838
  987YOPC   GL214334  13.474   9.795   6.276  0.0160 -0.0059 -0.2183
  987YOPC   C1A14335  13.976   9.935   6.424  0.0164 -0.1946  0.2633
  987YOPC   D2A14336  13.892   9.818   6.865 -0.3102  0.0902 -0.0005
  987YOPC   C3A14337  14.168   9.686   7.197  0.1358  0.0259 -0.0278
  987YOPC   C4A14338  14.243   9.212   7.227 -0.1133 -0.0477  0.0730
  987YOPC   C1B14339  13.376  10.003   6.699 -0.0592 -0.3279 -0.0780
  987YOPC   C2B14340  13.413  10.098   7.097  0.0883 -0.2433 -0.0121
  987YOPC   D3B14341  13.718   9.996   7.393  0.1098 -0.2287  0.1833
  987YOPC   C4B14342  13.865  10.369   7.710 -0.0649 -0.2681 -0.1679
  988YOPC   NC314343  13.544   2.163   5.540 -0.0499  0.0452  0.2206
  988YOPC   PO414344  13.764   1.922   5.888  0.0636  0.0794  0.1451
  988YOPC   GL114345  13.514   1.987   6.267  0.2717 -0.0796 -0.5002
  988YOPC   GL214346  13.262   2.186   6.253 -0.0930  0.2196 -0.1905
  988YOPC   C1A14347  13.483   1.922   6.699  0.3750 -0.1310  0.0758
  988YOPC   D2A14348  13.740   2.168   6.986 -0.2458 -0.1443  0.0176
  988YOPC   C3A14349  13.781   2.181   7.458  0.1855 -0.1489  0.2885
  988YOPC   C4A14350  14.047   2.273   7.735 -0.2833 -0.0210 -0.1272
  988YOPC   C1B14351  13.548   2.458   6.454  0.3087 -0.1388 -0.1284
  988YOPC   C2B14352  13.781   2.712   6.719 -0.2175 -0.1853 -0.0924
  988YOPC   D3B14353  13.459   2.981   7.004 -0.3238 -0.4852  0.1814
  988YOPC   C4B14354  13.152   3.129   7.338 -0.1896  0.2269 -0.0752
  989YOPC   NC314355   9.267  10.766   5.439 -0.2135  0.1055  0.1063
  989YOPC   PO414356   9.390  11.071   5.636  0.1644  0.0345  0.0519
  989YOPC   GL114357   9.301  10.771   6.033 -0.2245 -0.2904 -0.2059
  989YOPC   GL214358   9.454  10.468   6.031  0.0250 -0.2167  0.1205
  989YOPC   C1A14359   9.281  10.724   6.459  0.1711 -0.4907  0.3407
  989YOPC   D2A14360   8.915  10.773   6.677  0.1891 -0.0747 -0.0017
  989YOPC   C3A14361   8.790  10.961   7.056  0.0412  0.0438  0.1084
  989YOPC   C4A14362   8.669  11.058   7.452  0.1235  0.1475  0.2466
  989YOPC   C1B14363   9.683  10.386   6.427  0.0288 -0.1422  0.2952
  989YOPC   C2B14364  10.036  10.160   6.704  0.1563  0.0743  0.0396
  989YOPC   D3B14365  10.092   9.676   6.735  0.0699  0.0885 -0.1371
  989YOPC   C4B14366  10.199   9.528   7.136 -0.1428  0.3058 -0.0844
  990YOPC   NC314367   1.441  15.984   5.801  0.1396  0.0213  0.0576
  990YOPC   PO414368   1.450  16.378   5.939 -0.0792 -0.0835 -0.1085
  990YOPC   GL114369   1.246  16.406   6.315  0.1154 -0.1339 -0.1255
  990YOPC   GL214370   1.416  16.548   6.507  0.0683  0.0426 -0.1907
  990YOPC   C1A14371   1.016  16.197   6.689  0.1114  0.2734 -0.3461
  990YOPC   D2A14372   0.622  16.047   6.750 -0.0591 -0.2753 -0.1765
  990YOPC   C3A14373   0.406  16.290   7.065 -0.0691 -0.1043 -0.0789
  990YOPC   C4A14374   0.317  16.540   7.396  0.0719 -0.1006  0.1579
  990YOPC   C1B14375   1.337  16.508   7.053  0.1742  0.2293  0.5169
  990YOPC   C2B14376   1.196  16.600   7.467  0.0635 -0.0791 -0.0560
  990YOPC   D3B14377   1.334  16.286   7.536  0.0687  0.1026 -0.0305
  990YOPC   C4B14378   1.533  15.985   7.754  0.0325 -0.0601 -0.0525
  991YOPC   NC314379   7.823   1.864   5.941  0.0304 -0.2138 -0.2679
  991YOPC   PO414380   7.421   2.094   5.899 -0.1520  0.0411 -0.2249
  991YOPC   GL114381   7.483   2.128   6.331 -0.3343  0.0137  0.1312
  991YOPC   GL214382   7.364   1.790   6.582 -0.0626  0.0991  0.2129
  991YOPC   C1A14383   7.689   2.365   6.718 -0.2278 -0.0268 -0.3615
  991YOPC   D2A14384   7.799   2.243   7.168  0.1532  0.2245 -0.1898
  991YOPC   C3A14385   8.175   2.407   7.409 -0.1590  0.1013  0.0874
  991YOPC   C4A14386   8.180   2.446   7.971  0.0974 -0.1816 -0.1930
  991YOPC   C1B14387   7.639   1.914   6.853 -0.1852 -0.3609 -0.0617
  991YOPC   C2B14388   8.031   1.706   6.901 -0.4605 -0.0648  0.3712
  991YOPC   D3B14389   8.129   1.810   7.276  0.5097 -0.1106  0.2544
  991YOPC   C4B14390   7.989   2.002   7.659  0.3717 -0.0524 -0.2117
  992YOPC   NC314391  15.412  10.764   5.321 -0.0606  0.1675 -0.0803
  992YOPC   PO414392  15.834  11.123   5.423 -0.3146 -0.1812  0.0505
  992YOPC   GL114393  15.687  11.039   5.793  0.2103 -0.0627 -0.2348
  992YOPC   GL214394  15.748  11.309   5.920 -0.3292  0.1681 -0.1610
  992YOPC   C1A14395  15.514  10.686   6.089  0.0048  0.0612  0.0673
  992YOPC   D2A14396  15.493  10.479   6.492  0.1910  0.0545 -0.1954
  992YOPC   C3A14397  15.693  10.141   6.716 -0.0467 -0.1113  0.0096
  992YOPC   C4A14398  15.893  10.121   7.071  0.2447  0.2236 -0.0821
  992YOPC   C1B14399  15.601  11.163   6.335  0.0930 -0.0741  0.2862
  992YOPC   C2B14400  15.434  10.956   6.664  0.1119  0.1863 -0.2328
  992YOPC   D3B14401  15.457  10.851   7.092 -0.4042 -0.2649  0.5326
  992YOPC   C4B14402  15.508  11.101   7.464  0.2943  0.0623 -0.6232
  993YOPC   NC314403   1.146   5.420   5.416  0.0025  0.0787 -0.1160
  993YOPC   PO414404   1.106   5.028   5.662  0.1465  0.1824  0.3437
  993YOPC   GL114405   1.333   5.190   5.948 -0.2465 -0.2231  0.4717
  993YOPC   GL214406   1.379   5.519   5.948  0.1266 -0.3046 -0.3654
  993YOPC   C1A14407   1.407   4.940   6.336 -0.0145  0.3402 -0.3452
  993YOPC   D2A14408   1.644   4.676   6.656 -0.0802  0.1346 -0.1119
  993YOPC   C3A14409   1.585   4.748   7.091  0.2297  0.0247  0.3606
  993YOPC   C4A14410   1.295   4.504   7.294 -0.0676 -0.1721 -0.0849
  993YOPC   C1B14411   1.289   5.416   6.411  0.2103  0.2835  0.2772
  993YOPC   C2B14412   1.459   5.199   6.784  0.2536  0.1400 -0.3130
  993YOPC   D3B14413   1.128   5.027   7.082  0.1569  0.1100  0.3176
  993YOPC   C4B14414   0.718   5.136   7.231  0.5552  0.1114  0.2636
  994YOPC   NC314415   2.473  12.036   5.716 -0.2070  0.2487  0.2421
  994YOPC   PO414416   2.891  12.151   5.961 -0.1826 -0.4018 -0.1591
  994YOPC   GL114417   2.856  12.302   6.388 -0.1490  0.2245 -0.1726
  994YOPC   GL214418   2.652  12.587   6.416 -0.6484 -0.3041  0.0099
  994YOPC   C1A14419   2.861  12.159   6.752  0.1830 -0.4144  0.1963
  994YOPC   D2A14420   3.108  11.790   6.850  0.0618 -0.1434  0.1409
  994YOPC   C3A14421   3.347  11.688   7.231  0.0796 -0.0579 -0.0109
  994YOPC   C4A14422   3.465  11.474   7.527  0.0668  0.0072 -0.1427
  994YOPC   C1B14423   2.773  12.714   6.829  0.0105  0.3760  0.0120
  994YOPC   C2B14424   2.870  12.573   7.296  0.0179 -0.1061 -0.2175
  994YOPC   D3B14425   2.630  12.771   7.707  0.1620  0.0311  0.3061
  994YOPC   C4B14426   2.880  12.711   8.049  0.2218 -0.1194  0.0300
  995YOPC   NC314427  16.992   7.389   5.327 -0.0804 -0.2703 -0.0172
  995YOPC   PO414428  16.755   7.677   5.502 -0.0302  0.0994 -0.0917
  995YOPC   GL114429  16.971   7.505   5.887 -0.3023 -0.0323 -0.2551
  995YOPC   GL214430  17.148   7.287   5.937  0.1621  0.0046 -0.0645
  995YOPC   C1A14431  16.671   7.279   6.148  0.2670  0.1533 -0.1278
  995YOPC   D2A14432  16.577   7.175   6.591  0.0074 -0.0039  0.2296
  995YOPC   C3A14433  16.775   7.097   6.940 -0.2884 -0.1771  0.0099
  995YOPC   C4A14434  17.083   7.356   7.146 -0.2132  0.5144 -0.0164
  995YOPC   C1B14435  17.087   7.347   6.385 -0.0044 -0.0072 -0.2975
  995YOPC   C2B14436  16.906   7.546   6.718 -0.1399 -0.1487 -0.2507
  995YOPC   D3B14437  16.514   7.676   6.743  0.0269  0.0173 -0.0691
  995YOPC   C4B14438  16.241   7.960   6.795 -0.2095  0.0464  0.1565
  996YOPC   NC314439  12.684   0.460   5.899 -0.0984  0.0523  0.1721
  996YOPC   PO414440  12.600   0.086   6.178  0.0351  0.0186 -0.1292
  996YOPC   GL114441  12.555   0.186   6.567 -0.2224 -0.0245 -0.1148
  996YOPC   GL214442  12.458   0.020   6.691 -0.0500  0.0709  0.1246
  996YOPC   C1A14443  12.680   0.346   6.941 -0.1790 -0.0944  0.0982
  996YOPC   D2A14444  12.768   0.645   7.147  0.1446 -0.4191 -0.1797
  996YOPC   C3A14445  12.538   1.018   7.192  0.0018 -0.0107  0.6641
  996YOPC   C4A14446  12.601   1.195   7.548  0.0954  0.0901 -0.1425
  996YOPC   C1B14447  12.258   0.135   7.000  0.1082 -0.1811 -0.0780
  996YOPC   C2B14448  12.381   0.354   7.387 -0.1932 -0.0275  0.0226
  996YOPC   D3B14449  12.228   0.339   7.772  0.2795  0.2278  0.1734
  996YOPC   C4B14450  12.048   0.095   8.007 -0.1863  0.0915 -0.2093
  997YOPC   NC314451   0.632   8.253   5.174  0.0200  0.0090  0.4691
  997YOPC   PO414452   0.911   8.180   5.541  0.0516 -0.2710  0.0103
  997YOPC   GL114453   0.864   8.168   5.971 -0.2137  0.1013 -0.1610
  997YOPC   GL214454   1.075   8.133   6.125  0.1356 -0.3436 -0.2610
  997YOPC   C1A14455   0.615   8.288   6.356  0.2377 -0.0391  0.1742
  997YOPC   D2A14456   0.480   8.528   6.606 -0.2215 -0.1931  0.0617
  997YOPC   C3A14457   0.089   8.524   6.399  0.0454 -0.2008  0.1055
  997YOPC   C4A14458  -0.127   8.874   6.163  0.3105  0.2184 -0.0840
  997YOPC   C1B14459   1.116   8.168   6.549  0.0893  0.0896  0.2603
  997YOPC   C2B14460   1.162   8.450   6.815  0.2130 -0.0512  0.0702
  997YOPC   D3B14461   1.204   8.668   7.422 -0.2127  0.2153  0.0387
  997YOPC   C4B14462   1.247   9.063   7.505 -0.1592 -0.2981  0.1607
  998YOPC   NC314463  16.046  16.132   6.088  0.3881 -0.1026  0.4181
  998YOPC   PO414464  15.597  16.198   6.200 -0.0120  0.1266  0.0747
  998YOPC   GL114465  15.800  16.218   6.551 -0.1918 -0.0960 -0.0586
  998YOPC   GL214466  15.738  15.995   6.745  0.3128 -0.0204 -0.2764
  998YOPC   C1A14467  15.976  16.564   6.801 -0.1072  0.2822  0.0765
  998YOPC   D2A14468  16.102  16.556   7.207 -0.3676  0.2543  0.0372
  998YOPC   C3A14469  16.484  16.386   7.434  0.2940 -0.2176  0.1670
  998YOPC   C4A14470  16.611  16.276   7.880  0.1612 -0.0994 -0.0354
  998YOPC   C1B14471  15.944  15.906   7.007 -0.2384  0.2112  0.4726
  998YOPC   C2B14472  16.155  15.980   7.423  0.3987  0.1749  0.0816
  998YOPC   D3B14473  16.089  16.246   7.746 -0.1969 -0.1126  0.4764
  998YOPC   C4B14474  16.208  16.584   7.942  0.0511 -0.1995  0.1047
  999YOPC   NC314475   8.839  10.187   5.310 -0.1302 -0.2641 -0.3028
  999YOPC   PO414476   9.014   9.912   5.618  0.0366 -0.0883 -0.1128
  999YOPC   GL114477   8.813   9.926   6.018 -0.1677 -0.0966  0.1687
  999YOPC   GL214478   9.066  10.145   6.158  0.2205  0.0885 -0.0264
  999YOPC   C1A14479   8.617   9.874   6.448 -0.1211 -0.1389 -0.0080
  999YOPC   D2A14480   8.668  10.059   6.967 -0.1945  0.2289  0.2338
  999YOPC   C3A14481   8.858  10.418   7.111  0.0194 -0.2848 -0.0149
  999YOPC   C4A14482   8.940  10.658   7.396 -0.0591  0.1648 -0.1724
  999YOPC   C1B14483   9.105  10.283   6.590  0.1438  0.1434 -0.1872
  999YOPC   C2B14484   9.438  10.547   6.897 -0.0626  0.2367 -0.0301
  999YOPC   D3B14485   9.728  10.789   6.714 -0.0101 -0.1712 -0.1255
  999YOPC   C4B14486   9.749  10.797   6.279  0.0656  0.0080 -0.2516
 1000YOPC   NC314487   1.932   4.985   5.276 -0.2769 -0.1556  0.2970
 1000YOPC   PO414488   1.697   5.277   5.498  0.1497 -0.1492  0.1803
 1000YOPC   GL114489   1.825   5.092   5.900  0.0605  0.0841  0.0380
 1000YOPC   GL214490   1.877   5.409   6.072 -0.1645 -0.3232  0.0738
 1000YOPC   C1A14491   1.866   5.039   6.363 -0.3010  0.0628 -0.0306
 1000YOPC   D2A14492   2.103   5.045   6.778  0.2519 -0.3778 -0.0300
 1000YOPC   C3A14493   2.305   4.900   7.138 -0.0690 -0.3023 -0.2406
 1000YOPC   C4A14494   2.054   4.981   7.548 -0.0391 -0.1285 -0.3860
 1000YOPC   C1B14495   1.753   5.521   6.440  0.2654 -0.0180 -0.4591
 1000YOPC   C2B14496   1.861   5.490   6.891 -0.0329 -0.2728 -0.1255
 1000YOPC   D3B14497   1.730   5.206   7.192  0.0404  0.3356  0.0810
 1000YOPC   C4B14498   1.412   5.148   7.514 -0.0574 -0.0181 -0.1311
 1001YOPC   NC314499  11.419  10.279   5.845 -0.4240  0.0924  0.0774
 1001YOPC   PO414500  11.651  10.067   5.680 -0.3501 -0.0847  0.1196
 1001YOPC   GL114501  11.425   9.823   6.075  0.2518 -0.0992  0.0258
 1001YOPC   GL214502  11.076   9.948   6.149 -0.0896 -0.0098 -0.1088
 1001YOPC   C1A14503  11.456   9.527   6.361 -0.0531 -0.0886  0.2630
 1001YOPC   D2A14504  11.431   9.530   6.764  0.2837 -0.2127  0.2365
 1001YOPC   C3A14505  11.240   9.291   6.963 -0.0609  0.0931  0.1518
 1001YOPC   C4A14506  11.190   9.250   7.482 -0.1497 -0.1647 -0.2527
 1001YOPC   C1B14507  10.972   9.611   6.461  0.2772 -0.3186  0.2244
 1001YOPC   C2B14508  10.786   9.282   6.702  0.0614 -0.1421  0.1848
 1001YOPC   D3B14509  10.960   8.839   6.837  0.2667 -0.0982  0.0686
 1001YOPC   C4B14510  11.109   8.355   6.824 -0.1188 -0.1774 -0.0292
 1002YOPC   NC314511   1.582   1.180   6.046  0.1611  0.0534 -0.0833
 1002YOPC   PO414512   1.219   0.987   6.258 -0.0019  0.0037  0.1683
 1002YOPC   GL114513   1.110   1.260   6.584 -0.0105 -0.2795 -0.3096
 1002YOPC   GL214514   0.792   1.217   6.556  0.2500  0.1465  0.0221
 1002YOPC   C1A14515   0.987   1.404   7.030  0.2506 -0.0882  0.0465
 1002YOPC   D2A14516   0.823   1.279   7.382  0.1473  0.3113  0.0470
 1002YOPC   C3A14517   1.021   1.028   7.631 -0.1223 -0.1389 -0.2196
 1002YOPC   C4A14518   1.419   0.881   7.716  0.1029  0.2847 -0.0177
 1002YOPC   C1B14519   0.547   1.253   6.838  0.1453  0.0624  0.1514
 1002YOPC   C2B14520   0.205   1.448   6.853 -0.0031  0.2004  0.0061
 1002YOPC   D3B14521  -0.149   1.371   6.745  0.0231 -0.0690  0.1944
 1002YOPC   C4B14522  -0.630   1.338   6.636  0.1115 -0.1895  0.3958
 1003YOPC   NC314523  15.223   0.070   6.114  0.2204  0.3002  0.2293
 1003YOPC   PO414524  15.005   0.403   6.237 -0.1105 -0.2252 -0.1254
 1003YOPC   GL114525  14.842   0.581   6.585  0.1256 -0.2168 -0.0820
 1003YOPC   GL214526  14.511   0.713   6.403 -0.0076  0.0219 -0.0560
 1003YOPC   C1A14527  15.049   0.952   6.715  0.1035  0.2168 -0.0310
 1003YOPC   D2A14528  15.223   1.174   6.991 -0.1319 -0.0111  0.1089
 1003YOPC   C3A14529  15.057   1.221   7.336 -0.3626 -0.0910 -0.0155
 1003YOPC   C4A14530  15.012   1.252   7.758 -0.1785  0.1762 -0.0256
 1003YOPC   C1B14531  14.195   0.647   6.673  0.1732 -0.0553  0.0176
 1003YOPC   C2B14532  14.118   0.776   7.080 -0.3014 -0.0264 -0.3324
 1003YOPC   D3B14533  14.342   0.940   7.509  0.0400  0.1695  0.1852
 1003YOPC   C4B14534  14.539   1.317   7.544  0.0359  0.6465 -0.1545
 1004YOPC   NC314535  11.959  16.044   5.523 -0.3375 -0.2644 -0.0014
 1004YOPC   PO414536  11.906  15.980   6.045  0.3063  0.4802  0.1178
 1004YOPC   GL114537  11.925  15.963   6.617 -0.2690 -0.0353  0.2952
 1004YOPC   GL214538  12.129  16.023   6.708 -0.5958 -0.2827 -0.0681
 1004YOPC   C1A14539  11.872  15.730   7.041 -0.0252 -0.0086  0.1962
 1004YOPC   D2A14540  11.925  15.273   7.149  0.1130  0.0735 -0.1562
 1004YOPC   C3A14541  12.231  15.038   6.811 -0.0636 -0.2199  0.1223
 1004YOPC   C4A14542  12.199  14.624   6.988 -0.0855 -0.1718 -0.1677
 1004YOPC   C1B14543  12.317  16.026   7.096 -0.0836 -0.1207 -0.0289
 1004YOPC   C2B14544  12.580  16.156   7.496 -0.0784 -0.0674  0.1970
 1004YOPC   D3B14545  12.550  16.576   7.687 -0.0436  0.0551  0.1794
 1004YOPC   C4B14546  12.357  17.009   7.962 -0.0561 -0.0973 -0.0360
 1005YOPC   NC314547  10.645   9.907   5.763  0.1491  0.1856  0.0369
 1005YOPC   PO414548  10.792  10.308   5.833  0.1487  0.1189 -0.0572
 1005YOPC   GL114549  10.964  10.440   6.164  0.1514  0.1873 -0.0309
 1005YOPC   GL214550  11.254  10.435   6.333  0.0589  0.0601 -0.0623
 1005YOPC   C1A14551  10.747  10.550   6.528  0.2034  0.0307  0.0053
 1005YOPC   D2A14552  10.644  10.657   7.047 -0.0701  0.1079 -0.3156
 1005YOPC   C3A14553  11.064  10.703   7.364 -0.1243  0.1363  0.0258
 1005YOPC   C4A14554  11.092  11.003   7.712  0.1837  0.2694 -0.0214
 1005YOPC   C1B14555  11.026  10.173   6.624  0.4059 -0.0797 -0.1077
 1005YOPC   C2B14556  10.915   9.816   6.874 -0.2938  0.1397  0.1096
 1005YOPC   D3B14557  10.750   9.510   7.210 -0.1333 -0.1808 -0.1774
 1005YOPC   C4B14558  10.460   9.470   7.619 -0.2167  0.2705  0.1111
 1006YOPC   NC314559  15.876   3.849   4.948 -0.2147  0.2596  0.0698
 1006YOPC   PO414560  15.913   3.537   5.259 -0.3385  0.2566 -0.1279
 1006YOPC   GL114561  15.730   3.558   5.708 -0.4403 -0.0214 -0.2076
 1006YOPC   GL214562  15.702   3.276   5.934  0.1643  0.1253  0.0153
 1006YOPC   C1A14563  15.598   3.773   6.202 -0.2544  0.0681  0.2336
 1006YOPC   D2A14564  15.487   3.985   6.632  0.1431  0.1550  0.2144
 1006YOPC   C3A14565  15.717   3.943   7.045  0.1772  0.0485  0.1989
 1006YOPC   C4A14566  15.810   3.823   7.470  0.2507 -0.0187 -0.2659
 1006YOPC   C1B14567  15.769   3.300   6.389  0.3234 -0.1764  0.0550
 1006YOPC   C2B14568  15.678   3.516   6.809 -0.0693  0.2429  0.1131
 1006YOPC   D3B14569  15.519   3.297   7.060  0.2283 -0.4029  0.1364
 1006YOPC   C4B14570  15.565   3.190   7.439  0.0810 -0.0350  0.1577
 1007YOPC   NC314571   2.955  17.791   6.414  0.0003 -0.1879 -0.0073
 1007YOPC   PO414572   3.009  17.417   6.218 -0.2630  0.1348 -0.0426
 1007YOPC   GL114573   3.173  17.146   6.553  0.2695 -0.1541  0.4577
 1007YOPC   GL214574   3.467  17.154   6.646  0.1262 -0.1425  0.0660
 1007YOPC   C1A14575   3.098  16.996   6.973  0.0916 -0.3481  0.0946
 1007YOPC   D2A14576   2.999  17.277   7.398 -0.3708 -0.2621 -0.1729
 1007YOPC   C3A14577   2.753  17.523   7.616  0.1628  0.0191  0.0282
 1007YOPC   C4A14578   2.459  17.659   7.826 -0.1717  0.1339  0.0991
 1007YOPC   C1B14579   3.565  16.841   6.873 -0.0040  0.1477 -0.2636
 1007YOPC   C2B14580   3.731  16.586   7.080 -0.0198 -0.0570  0.0874
 1007YOPC   D3B14581   3.652  16.658   7.514  0.2057 -0.1479  0.2683
 1007YOPC   C4B14582   3.774  16.502   7.835 -0.0834 -0.0864 -0.2251
 1008YOPC   NC314583   4.033   6.023   5.504  0.2688  0.1037  0.2581
 1008YOPC   PO414584   3.618   5.853   5.858  0.1581 -0.1108  0.2151
 1008YOPC   GL114585   3.469   5.693   6.296  0.1865 -0.1880 -0.1517
 1008YOPC   GL214586   3.575   6.059   6.417  0.3478  0.4419  0.0677
 1008YOPC   C1A14587   3.211   5.533   6.713  0.1517 -0.0440  0.2460
 1008YOPC   D2A14588   3.271   5.551   7.193 -0.0251 -0.2349  0.0918
 1008YOPC   C3A14589   3.190   5.819   7.543 -0.1092  0.4533 -0.0712
 1008YOPC   C4A14590   3.049   5.917   7.991  0.2492 -0.1521  0.2245
 1008YOPC   C1B14591   3.588   5.889   6.794 -0.0364  0.0888  0.0484
 1008YOPC   C2B14592   3.613   5.976   7.214 -0.0286  0.2012  0.1366
 1008YOPC   D3B14593   3.704   5.654   7.520 -0.0071  0.1807 -0.4023
 1008YOPC   C4B14594   3.654   5.449   7.847  0.1350 -0.1144 -0.2888
 1009YOPC   NC314595   7.623  17.356   6.182 -0.1375 -0.1557  0.0118
 1009YOPC   PO414596   8.010  17.240   6.414 -0.4113 -0.0253 -0.0480
 1009YOPC   GL114597   8.004  17.344   6.896 -0.1756  0.3128 -0.0478
 1009YOPC   GL214598   8.150  17.622   7.020 -0.0485  0.1867  0.1201
 1009YOPC   C1A14599   8.099  17.175   7.287  0.0925 -0.0411  0.0897
 1009YOPC   D2A14600   8.071  17.395   7.665 -0.2347 -0.1516  0.0094
 1009YOPC   C3A14601   7.892  17.716   7.652 -0.2769 -0.1900  0.2792
 1009YOPC   C4A14602   7.708  18.090   7.690  0.2240  0.3777 -0.1837
 1009YOPC   C1B14603   7.689  17.789   7.151 -0.0721 -0.2329  0.1477
 1009YOPC   C2B14604   7.389  17.733   7.349  0.2127  0.3027 -0.1653
 1009YOPC   D3B14605   7.244  17.648   7.693  0.2938 -0.1574  0.4675
 1009YOPC   C4B14606   7.363  17.776   8.045  0.0552 -0.1911 -0.2549
 1010YOPC   NC314607  11.198   4.288   5.308  0.2353  0.0024 -0.0991
 1010YOPC   PO414608  10.985   4.326   5.631 -0.3672 -0.1409  0.1215
 1010YOPC   GL114609  11.340   4.512   5.838  0.0079  0.0071 -0.1143
 1010YOPC   GL214610  11.570   4.726   5.896  0.2430 -0.2565  0.3798
 1010YOPC   C1A14611  11.406   4.188   6.151  0.3351 -0.0223 -0.0664
 1010YOPC   D2A14612  11.227   4.290   6.517  0.2822  0.2080 -0.2451
 1010YOPC   C3A14613  11.304   4.133   6.879  0.2583 -0.1291 -0.0931
 1010YOPC   C4A14614  11.303   3.984   7.295  0.0836  0.1988  0.0520
 1010YOPC   C1B14615  11.645   4.602   6.353  0.1961  0.0549  0.0629
 1010YOPC   C2B14616  11.607   4.748   6.725 -0.0988  0.1661  0.2503
 1010YOPC   D3B14617  11.456   4.611   7.078  0.1398 -0.2131  0.0833
 1010YOPC   C4B14618  11.215   4.468   7.475 -0.0618 -0.3658 -0.1096
 1011YOPC   NC314619  13.136   3.774   5.011  0.0519 -0.0733 -0.1564
 1011YOPC   PO414620  13.474   3.580   5.243 -0.0799 -0.2397 -0.1151
 1011YOPC   GL114621  13.186   3.644   5.564  0.0990 -0.0675  0.1747
 1011YOPC   GL214622  12.929   3.967   5.543  0.0969 -0.1292  0.1962
 1011YOPC   C1A14623  12.947   3.720   5.942 -0.0008  0.0587 -0.3900
 1011YOPC   D2A14624  12.880   3.823   6.300  0.0808  0.2946  0.3539
 1011YOPC   C3A14625  13.146   4.136   6.492  0.3576  0.3685  0.0188
 1011YOPC   C4A14626  13.103   4.569   6.727  0.0900 -0.0887  0.1429
 1011YOPC   C1B14627  13.249   4.050   5.792  0.1084  0.2724 -0.0504
 1011YOPC   C2B14628  13.481   4.214   6.124 -0.0236 -0.2622 -0.1667
 1011YOPC   D3B14629  13.230   4.568   6.229 -0.3033  0.2832 -0.0838
 1011YOPC   C4B14630  13.098   4.927   6.147  0.0102 -0.1268 -0.1423
 1012YOPC   NC314631  16.258   0.997   5.945  0.0513 -0.2548 -0.0748
 1012YOPC   PO414632  16.702   1.244   5.909  0.1794  0.3242 -0.1403
 1012YOPC   GL114633  16.566   1.199   6.302  0.3177  0.4493  0.1585
 1012YOPC   GL214634  16.200   1.289   6.432  0.1881  0.1445 -0.1196
 1012YOPC   C1A14635  16.608   0.962   6.735  0.0855  0.2561  0.1647
 1012YOPC   D2A14636  16.994   0.797   6.940 -0.2428 -0.2447 -0.1877
 1012YOPC   C3A14637  16.826   0.820   7.430  0.2811  0.1196  0.3538
 1012YOPC   C4A14638  16.893   1.071   7.653 -0.1350 -0.0081  0.0590
 1012YOPC   C1B14639  16.096   1.469   6.896 -0.0361  0.0435 -0.1740
 1012YOPC   C2B14640  15.768   1.694   6.961 -0.3180  0.0380 -0.2700
 1012YOPC   D3B14641  15.671   2.027   7.287  0.3687  0.3550 -0.0010
 1012YOPC   C4B14642  15.573   2.314   7.620  0.0860 -0.0454  0.3031
 1013YOPC   NC314643   8.880  12.899   5.970 -0.0682 -0.0397 -0.0245
 1013YOPC   PO414644   8.480  12.923   6.241 -0.1115 -0.3728 -0.0770
 1013YOPC   GL114645   8.866  12.932   6.469 -0.1401 -0.1828  0.0156
 1013YOPC   GL214646   8.767  12.636   6.612 -0.2910  0.3854  0.0504
 1013YOPC   C1A14647   8.989  12.986   6.935 -0.1901  0.2896 -0.2155
 1013YOPC   D2A14648   8.859  13.221   7.359  0.0255 -0.0579 -0.1234
 1013YOPC   C3A14649   8.942  13.459   7.668  0.2402  0.3160 -0.1681
 1013YOPC   C4A14650   9.061  13.367   8.141 -0.0176 -0.1086  0.1356
 1013YOPC   C1B14651   9.155  12.555   6.627  0.1003  0.1519 -0.1085
 1013YOPC   C2B14652   9.417  12.691   6.970 -0.1062  0.2820 -0.0376
 1013YOPC   D3B14653   9.339  12.372   7.360 -0.1018 -0.0755 -0.2469
 1013YOPC   C4B14654   9.474  12.495   7.808 -0.1663 -0.3341 -0.1416
 1014YOPC   NC314655   2.062  17.480   6.243 -0.4883 -0.0057 -0.3407
 1014YOPC   PO414656   2.499  17.433   6.460  0.0821  0.1508 -0.3173
 1014YOPC   GL114657   2.912  17.555   6.821  0.1687 -0.0159 -0.1230
 1014YOPC   GL214658   2.649  17.631   7.041 -0.2952  0.1509 -0.2049
 1014YOPC   C1A14659   3.331  17.556   6.983  0.2395  0.0911 -0.4392
 1014YOPC   D2A14660   3.499  17.526   7.256  0.1136  0.0759  0.3543
 1014YOPC   C3A14661   3.301  17.531   7.731  0.3894  0.3495  0.0629
 1014YOPC   C4A14662   2.977  17.799   7.992 -0.1601 -0.0849 -0.0359
 1014YOPC   C1B14663   2.362  17.901   7.252  0.1198  0.1319  0.0360
 1014YOPC   C2B14664   2.186  18.065   7.630 -0.4108 -0.2395 -0.4807
 1014YOPC   D3B14665   1.967  18.079   8.031  0.1832  0.2591  0.0007
 1014YOPC   C4B14666   1.693  18.387   8.121 -0.2951  0.0866 -0.0709
 1015YOPC   NC314667   6.738   4.201   5.892 -0.0005 -0.3021 -0.1391
 1015YOPC   PO414668   6.403   4.487   5.842 -0.2729 -0.1598 -0.0141
 1015YOPC   GL114669   6.487   4.518   6.243 -0.1013 -0.0966 -0.3169
 1015YOPC   GL214670   6.297   4.730   6.426 -0.1266  0.2415 -0.0672
 1015YOPC   C1A14671   6.441   4.211   6.592  0.0229 -0.1187 -0.2320
 1015YOPC   D2A14672   6.759   3.874   6.806 -0.1516 -0.0895 -0.2381
 1015YOPC   C3A14673   6.779   3.637   7.173  0.0867  0.0374  0.0120
 1015YOPC   C4A14674   6.609   3.584   7.538 -0.1252  0.5836  0.0332
 1015YOPC   C1B14675   6.248   4.667   6.855 -0.3330  0.1198 -0.2955
 1015YOPC   C2B14676   6.461   4.604   7.273  0.1165  0.1465  0.3423
 1015YOPC   D3B14677   6.644   4.913   7.546  0.1508  0.1155 -0.1570
 1015YOPC   C4B14678   6.878   5.185   7.654  0.0873 -0.3484 -0.1387
 1016YOPC   NC314679   1.937   9.818   5.703 -0.0916 -0.0310  0.2599
 1016YOPC   PO414680   1.871  10.310   5.781 -0.0530  0.3455 -0.0775
 1016YOPC   GL114681   1.905  10.376   6.259 -0.1968  0.0136 -0.0352
 1016YOPC   GL214682   1.572  10.541   6.170  0.0573 -0.0249  0.0365
 1016YOPC   C1A14683   1.814  10.472   6.663 -0.1861 -0.0468 -0.0410
 1016YOPC   D2A14684   1.624  10.476   7.154  0.1106  0.1641  0.1478
 1016YOPC   C3A14685   1.136  10.465   6.951  0.1060 -0.5153  0.0112
 1016YOPC   C4A14686   0.638  10.323   7.024  0.1164  0.0346 -0.0760
 1016YOPC   C1B14687   1.456  10.786   6.577  0.0968  0.2389  0.0790
 1016YOPC   C2B14688   1.344  10.904   6.988  0.0395 -0.4783  0.0156
 1016YOPC   D3B14689   0.972  10.918   7.045  0.0875 -0.2090 -0.0555
 1016YOPC   C4B14690   0.875  11.138   7.419  0.1889  0.2943 -0.1462
 1017YOPC   NC314691   4.482   2.119   5.979 -0.0439 -0.0182 -0.0314
 1017YOPC   PO414692   4.821   1.980   6.181  0.1135 -0.0266  0.1851
 1017YOPC   GL114693   4.548   1.951   6.583  0.0915  0.0557 -0.3143
 1017YOPC   GL214694   4.249   2.129   6.666 -0.0635 -0.2718  0.1289
 1017YOPC   C1A14695   4.488   1.963   7.140  0.2372  0.2040  0.0829
 1017YOPC   D2A14696   4.234   1.880   7.442 -0.0942 -0.1191 -0.2282
 1017YOPC   C3A14697   4.227   1.510   7.717  0.0045 -0.0799  0.0631
 1017YOPC   C4A14698   4.168   1.566   8.176  0.2413  0.0989 -0.0970
 1017YOPC   C1B14699   4.061   1.767   6.969 -0.1211 -0.2347 -0.1562
 1017YOPC   C2B14700   3.774   1.752   7.337 -0.0239 -0.1436 -0.0675
 1017YOPC   D3B14701   3.853   1.869   7.757 -0.1115  0.1562  0.1499
 1017YOPC   C4B14702   4.243   2.018   7.969  0.2827 -0.0771  0.0738
 1018YOPC   NC314703  16.510   6.079   4.857 -0.1437  0.0454 -0.1720
 1018YOPC   PO414704  16.399   5.770   5.007 -0.1560  0.1604  0.1207
 1018YOPC   GL114705  16.359   5.732   5.410 -0.1185  0.0278 -0.0918
 1018YOPC   GL214706  16.262   5.426   5.652  0.1182  0.0870 -0.0362
 1018YOPC   C1A14707  16.387   5.809   5.939 -0.0143  0.1968  0.1541
 1018YOPC   D2A14708  16.752   5.792   6.281  0.0093 -0.3467 -0.0850
 1018YOPC   C3A14709  16.655   5.791   6.645 -0.0299  0.3126  0.0022
 1018YOPC   C4A14710  16.528   5.533   7.051 -0.2083 -0.0223  0.3068
 1018YOPC   C1B14711  16.517   5.357   6.081  0.2579  0.0903 -0.2682
 1018YOPC   C2B14712  16.587   5.237   6.590 -0.0924 -0.1073 -0.2251
 1018YOPC   D3B14713  16.449   5.075   6.895 -0.3899 -0.2419  0.0369
 1018YOPC   C4B14714  16.445   5.114   7.287  0.1630  0.1167  0.2251
 1019YOPC   NC314715  11.163   8.870   5.155  0.3826  0.3553 -0.0724
 1019YOPC   PO414716  11.153   8.477   5.254  0.3103 -0.2020 -0.1353
 1019YOPC   GL114717  11.056   8.585   5.559  0.1478 -0.4208 -0.2018
 1019YOPC   GL214718  10.802   8.405   5.661 -0.1175 -0.4440 -0.0093
 1019YOPC   C1A14719  10.954   8.867   5.882 -0.1748 -0.1695 -0.4092
 1019YOPC   D2A14720  11.062   9.251   6.105  0.2095 -0.2310  0.0166
 1019YOPC   C3A14721  11.175   9.134   6.470  0.1085 -0.0596 -0.1521
 1019YOPC   C4A14722  11.343   8.687   6.533  0.1559  0.1148 -0.0246
 1019YOPC   C1B14723  10.836   8.108   6.008  0.0109  0.0885  0.2416
 1019YOPC   C2B14724  10.953   7.693   6.205 -0.0730  0.2903  0.1252
 1019YOPC   D3B14725  10.872   7.244   5.997  0.1310 -0.1870 -0.1939
 1019YOPC   C4B14726  10.908   6.926   5.727  0.1603  0.2714  0.3125
 1020YOPC   NC314727   9.804  10.094   5.362  0.0272  0.1579  0.1248
 1020YOPC   PO414728   9.667   9.664   5.520  0.0891 -0.1591  0.0646
 1020YOPC   GL114729   9.554   9.718   6.039  0.2887 -0.0540  0.1005
 1020YOPC   GL214730   9.288   9.682   6.042 -0.1812  0.4049 -0.0617
 1020YOPC   C1A14731   9.748   9.865   6.444 -0.0274 -0.2598 -0.2517
 1020YOPC   D2A14732   9.596  10.058   6.818 -0.3336 -0.0790 -0.1594
 1020YOPC   C3A14733   9.902   9.877   7.105 -0.1740 -0.0111 -0.0133
 1020YOPC   C4A14734  10.157  10.023   7.411  0.1657 -0.1918  0.0798
 1020YOPC   C1B14735   9.252   9.642   6.438 -0.3305  0.0123  0.0798
 1020YOPC   C2B14736   9.109   9.806   6.820 -0.1607 -0.3080 -0.0884
 1020YOPC   D3B14737   8.966   9.706   7.174  0.1581 -0.2340 -0.1695
 1020YOPC   C4B14738   8.911   9.478   7.634  0.2009 -0.2657 -0.1436
 1021YOPC   NC314739  12.926   7.975   5.285  0.2036  0.0798 -0.1833
 1021YOPC   PO414740  13.324   7.947   5.426  0.3397 -0.0798 -0.2388
 1021YOPC   GL114741  13.090   7.739   5.772  0.1075  0.0801 -0.0058
 1021YOPC   GL214742  13.060   8.015   5.882  0.2666  0.2060  0.4710
 1021YOPC   C1A14743  12.690   7.759   6.142  0.1769 -0.2158  0.0235
 1021YOPC   D2A14744  12.766   7.933   6.583  0.0472 -0.2745 -0.1265
 1021YOPC   C3A14745  12.769   8.341   6.833 -0.0313  0.1110  0.1170
 1021YOPC   C4A14746  12.565   8.352   7.165 -0.0733  0.1595 -0.2533
 1021YOPC   C1B14747  13.180   7.956   6.258 -0.0029 -0.0435  0.1547
 1021YOPC   C2B14748  13.272   8.145   6.658 -0.0831 -0.0592  0.0415
 1021YOPC   D3B14749  13.052   7.905   6.990  0.1502  0.1942 -0.1256
 1021YOPC   C4B14750  13.125   7.628   7.317  0.2679  0.2552  0.1466
 1022YOPC   NC314751  10.967   0.778   5.822  0.2330  0.0102 -0.1152
 1022YOPC   PO414752  10.918   1.229   5.835  0.2425  0.1341 -0.0453
 1022YOPC   GL114753  10.816   1.443   6.265  0.1289 -0.0366  0.0929
 1022YOPC   GL214754  10.551   1.294   6.280 -0.4290  0.1895 -0.0159
 1022YOPC   C1A14755  10.900   1.563   6.636  0.1689 -0.0483 -0.1647
 1022YOPC   D2A14756  10.730   1.737   6.921  0.1032 -0.0786 -0.2669
 1022YOPC   C3A14757  10.883   1.652   7.301 -0.1681  0.0962 -0.0711
 1022YOPC   C4A14758  10.901   1.709   7.778  0.0538 -0.0887 -0.2564
 1022YOPC   C1B14759  10.258   1.010   6.368 -0.2729  0.0835  0.1134
 1022YOPC   C2B14760  10.143   0.703   6.488  0.0525  0.2120  0.3373
 1022YOPC   D3B14761   9.683   0.693   6.588 -0.2669  0.1777  0.2243
 1022YOPC   C4B14762   9.507   0.667   6.898 -0.0550  0.1241  0.3117
 1023YOPC   NC314763  15.768  12.417   5.328  0.2026  0.3567 -0.4421
 1023YOPC   PO414764  15.703  12.005   5.487 -0.1465 -0.1091  0.0347
 1023YOPC   GL114765  15.790  11.786   5.821 -0.0780 -0.2230  0.1809
 1023YOPC   GL214766  16.203  11.767   5.856 -0.2581 -0.1932  0.1306
 1023YOPC   C1A14767  15.596  11.644   6.187  0.0496 -0.0059 -0.2283
 1023YOPC   D2A14768  15.649  11.626   6.634 -0.1217  0.0304 -0.0187
 1023YOPC   C3A14769  15.744  11.986   6.835 -0.0831  0.0860 -0.0227
 1023YOPC   C4A14770  16.086  12.233   6.776 -0.0689  0.0200 -0.0805
 1023YOPC   C1B14771  16.109  11.649   6.239 -0.2694  0.1259 -0.2330
 1023YOPC   C2B14772  16.099  11.282   6.325 -0.2687  0.0416  0.1324
 1023YOPC   D3B14773  16.039  11.258   6.654  0.1105 -0.2140 -0.1572
 1023YOPC   C4B14774  15.742  11.270   6.921 -0.4021  0.0580  0.2065
 1024YOPC   NC314775  10.583   2.642   5.316 -0.1975  0.1663 -0.1100
 1024YOPC   PO414776  10.919   2.681   5.640 -0.0205  0.2096 -0.2824
 1024YOPC   GL114777  10.965   2.927   6.031  0.1008 -0.0689  0.0305
 1024YOPC   GL214778  10.881   3.243   6.020  0.0275 -0.2563  0.2670
 1024YOPC   C1A14779  10.687   2.940   6.426 -0.1164  0.1685 -0.0859
 1024YOPC   D2A14780  10.612   3.060   6.745  0.0024  0.2053  0.0227
 1024YOPC   C3A14781  10.670   2.983   7.160 -0.0271  0.0975  0.0956
 1024YOPC   C4A14782  10.567   3.014   7.551  0.0562  0.1049  0.0411
 1024YOPC   C1B14783  11.082   3.270   6.455 -0.0317 -0.0476 -0.1879
 1024YOPC   C2B14784  11.069   3.069   6.870  0.1474 -0.0568 -0.0898
 1024YOPC   D3B14785  11.227   3.056   7.305  0.2266 -0.2469  0.1492
 1024YOPC   C4B14786  11.456   2.709   7.468 -0.0355  0.3496  0.3904
 1025YOPC   NC314787   4.211   1.105   6.466  0.1591 -0.0369  0.0865
 1025YOPC   PO414788   4.730   1.118   6.523  0.0374  0.0924 -0.0956
 1025YOPC   GL114789   4.563   0.949   6.834 -0.1994 -0.0211 -0.2541
 1025YOPC   GL214790   4.173   0.977   6.961 -0.0622  0.3981  0.0427
 1025YOPC   C1A14791   4.566   0.866   7.248  0.0893 -0.0937 -0.3548
 1025YOPC   D2A14792   4.548   0.843   7.730  0.0320 -0.1846  0.3417
 1025YOPC   C3A14793   4.421   1.185   8.010 -0.0884  0.1642 -0.0602
 1025YOPC   C4A14794   4.362   1.162   8.478 -0.0875 -0.2712  0.0273
 1025YOPC   C1B14795   3.733   0.882   7.289  0.1199 -0.1288  0.1125
 1025YOPC   C2B14796   3.486   0.921   7.677 -0.2361 -0.2998 -0.0578
 1025YOPC   D3B14797   3.054   0.837   7.831 -0.1418  0.1647  0.2061
 1025YOPC   C4B14798   2.696   1.109   7.898 -0.0640  0.1068 -0.2238
 1026YOPC   NC314799  16.729   2.274   5.986 -0.0121  0.1367  0.0188
 1026YOPC   PO414800  17.126   2.487   6.006  0.0899 -0.0527 -0.0384
 1026YOPC   GL114801  17.109   2.658   6.352 -0.0935 -0.1288 -0.0562
 1026YOPC   GL214802  17.268   2.911   6.359 -0.2216 -0.1301 -0.1061
 1026YOPC   C1A14803  17.199   2.564   6.780 -0.1064  0.2148  0.4747
 1026YOPC   D2A14804  17.401   2.208   7.003 -0.2109  0.0179 -0.0745
 1026YOPC   C3A14805  17.196   1.978   7.222 -0.2992 -0.2532  0.0921
 1026YOPC   C4A14806  17.062   1.652   7.325  0.3165 -0.2691 -0.1792
 1026YOPC   C1B14807  17.644   2.877   6.703  0.0302  0.0841 -0.1020
 1026YOPC   C2B14808  18.038   2.867   6.924 -0.1174  0.1719 -0.0275
 1026YOPC   D3B14809  17.863   2.875   7.381 -0.1240 -0.2111  0.2300
 1026YOPC   C4B14810  17.825   2.907   7.938  0.1493 -0.0105  0.1015
 1027YOPC   NC314811   2.051   7.972   5.631  0.0221  0.0151  0.3580
 1027YOPC   PO414812   1.762   7.845   5.663 -0.1532 -0.0521 -0.3976
 1027YOPC   GL114813   1.737   7.756   6.117  0.1281  0.3276  0.2815
 1027YOPC   GL214814   1.486   7.782   6.266  0.0299  0.0673 -0.3527
 1027YOPC   C1A14815   1.904   7.876   6.499  0.1953 -0.2483 -0.1014
 1027YOPC   D2A14816   1.854   7.772   6.965 -0.1107  0.2733 -0.2014
 1027YOPC   C3A14817   1.488   7.632   7.195  0.1205  0.1907 -0.1406
 1027YOPC   C4A14818   1.313   7.790   7.599  0.1447  0.1660 -0.0894
 1027YOPC   C1B14819   1.426   7.728   6.664 -0.2221 -0.0698 -0.2759
 1027YOPC   C2B14820   1.072   7.864   6.946  0.3127 -0.2757  0.0303
 1027YOPC   D3B14821   0.767   8.090   6.867  0.1053 -0.1618 -0.1451
 1027YOPC   C4B14822   0.327   8.173   7.070 -0.1182  0.0079  0.2554
 1028YOPC   NC314823  11.827   7.896   4.920 -0.2995 -0.2946 -0.0986
 1028YOPC   PO414824  12.041   8.209   5.127  0.0191  0.3922  0.1068
 1028YOPC   GL114825  12.157   8.194   5.653 -0.1329  0.0727  0.3371
 1028YOPC   GL214826  12.208   8.441   5.768 -0.0931  0.1434 -0.2417
 1028YOPC   C1A14827  12.275   7.804   5.869  0.1425 -0.1191 -0.0842
 1028YOPC   D2A14828  12.309   7.356   5.989  0.0612 -0.0060  0.1174
 1028YOPC   C3A14829  12.618   7.223   6.241 -0.0076  0.2079 -0.0460
 1028YOPC   C4A14830  12.708   7.227   6.708  0.1428  0.3599 -0.1291
 1028YOPC   C1B14831  12.443   8.300   6.102 -0.0779  0.4049 -0.3669
 1028YOPC   C2B14832  12.843   8.405   6.332  0.0433  0.1890  0.0811
 1028YOPC   D3B14833  13.066   8.663   6.707 -0.1361 -0.2453 -0.1932
 1028YOPC   C4B14834  13.130   8.796   7.134  0.3828 -0.0623  0.2277
 1029YOPC   NC314835  16.540  16.762   6.162  0.3728  0.0255  0.1741
 1029YOPC   PO414836  16.496  16.337   6.132  0.3865 -0.0594  0.4394
 1029YOPC   GL114837  16.454  16.321   6.523 -0.5070 -0.0464 -0.5581
 1029YOPC   GL214838  16.278  16.127   6.693  0.2198 -0.0697  0.0144
 1029YOPC   C1A14839  16.572  16.479   6.918  0.0690  0.2450 -0.1231
 1029YOPC   D2A14840  16.927  16.554   7.256  0.2729 -0.2180  0.1771
 1029YOPC   C3A14841  16.784  16.809   7.488 -0.0735 -0.3406 -0.2886
 1029YOPC   C4A14842  16.315  16.925   7.651  0.0863 -0.1464 -0.1280
 1029YOPC   C1B14843  16.524  15.966   7.019 -0.1035  0.1971 -0.1030
 1029YOPC   C2B14844  16.699  15.894   7.361  0.2349 -0.1410  0.3851
 1029YOPC   D3B14845  17.086  16.091   7.417  0.3409  0.2326 -0.1190
 1029YOPC   C4B14846  17.055  16.514   7.744 -0.0145 -0.2178 -0.2353
 1030YOPC   NC314847   8.598   4.963   5.560  0.0596  0.0162 -0.1981
 1030YOPC   PO414848   8.596   5.364   5.335  0.0991  0.4993 -0.0484
 1030YOPC   GL114849   8.481   5.466   5.789 -0.1107  0.0306  0.1395
 1030YOPC   GL214850   8.442   5.274   6.091 -0.0291 -0.0043 -0.3117
 1030YOPC   C1A14851   8.298   5.850   6.153 -0.2432  0.0967 -0.1065
 1030YOPC   D2A14852   8.010   6.028   6.537  0.1495  0.1061 -0.0908
 1030YOPC   C3A14853   8.256   6.192   6.761  0.0956 -0.1123  0.1338
 1030YOPC   C4A14854   8.408   6.043   7.142  0.2596 -0.0484 -0.0125
 1030YOPC   C1B14855   8.572   5.535   6.455 -0.1152 -0.0733  0.0284
 1030YOPC   C2B14856   8.619   5.686   6.849  0.0880  0.0690  0.0048
 1030YOPC   D3B14857   8.878   5.830   7.200  0.1342  0.0715 -0.1620
 1030YOPC   C4B14858   9.109   5.649   7.427  0.0757  0.1685 -0.0539
 1031YOPC   NC314859  13.670  17.205   6.185 -0.0912  0.0331 -0.0016
 1031YOPC   PO414860  13.688  16.872   6.433 -0.0188  0.3142  0.0857
 1031YOPC   GL114861  13.520  16.646   6.696 -0.3898 -0.1446  0.0124
 1031YOPC   GL214862  13.754  16.577   6.897 -0.1037  0.0340 -0.3475
 1031YOPC   C1A14863  13.261  16.446   7.070 -0.0367  0.0871  0.0662
 1031YOPC   D2A14864  13.170  16.248   7.475 -0.1117 -0.0155 -0.3032
 1031YOPC   C3A14865  13.039  16.077   7.793 -0.0598 -0.0843  0.0537
 1031YOPC   C4A14866  13.138  15.641   7.882  0.2442  0.1185 -0.0814
 1031YOPC   C1B14867  13.642  16.520   7.377 -0.0669 -0.1340  0.2435
 1031YOPC   C2B14868  13.435  16.822   7.782 -0.1054  0.0862  0.0278
 1031YOPC   D3B14869  13.649  17.049   7.972 -0.3794  0.2134  0.2684
 1031YOPC   C4B14870  13.959  17.078   8.112 -0.2813 -0.1672  0.1587
 1032YOPC   NC314871  16.297   9.955   4.874 -0.0404 -0.0144 -0.0063
 1032YOPC   PO414872  16.471  10.112   5.225  0.1143 -0.1707 -0.2416
 1032YOPC   GL114873  16.312  10.250   5.643  0.4127 -0.1328  0.1083
 1032YOPC   GL214874  16.456  10.004   5.807 -0.1345 -0.3268  0.1865
 1032YOPC   C1A14875  16.396  10.477   6.001 -0.1406 -0.1857 -0.2678
 1032YOPC   D2A14876  16.773  10.513   6.296  0.0031 -0.0589  0.0887
 1032YOPC   C3A14877  16.723  10.479   6.763  0.0870  0.1003 -0.0122
 1032YOPC   C4A14878  16.863  10.698   7.164  0.0533 -0.1756  0.1710
 1032YOPC   C1B14879  16.537  10.066   6.319 -0.5447  0.4686 -0.0303
 1032YOPC   C2B14880  16.521   9.995   6.808  0.1927 -0.2620 -0.0666
 1032YOPC   D3B14881  16.822  10.111   7.059 -0.0876 -0.1738  0.0551
 1032YOPC   C4B14882  17.120   9.950   7.336 -0.0801  0.2199 -0.0028
 1033YOPC   NC314883   9.499   1.181   5.514 -0.1191  0.0943 -0.0617
 1033YOPC   PO414884   9.606   1.157   5.907  0.1832  0.0517 -0.0672
 1033YOPC   GL114885   9.502   1.531   6.256 -0.0898 -0.1815  0.2409
 1033YOPC   GL214886   9.763   1.521   6.415  0.0425  0.0121 -0.1762
 1033YOPC   C1A14887   9.390   1.901   6.576  0.2423  0.3361 -0.2198
 1033YOPC   D2A14888   9.377   2.264   6.842 -0.0397  0.1412 -0.3039
 1033YOPC   C3A14889   9.715   2.114   7.213  0.1172 -0.1321  0.2523
 1033YOPC   C4A14890   9.628   1.808   7.474 -0.0318 -0.0163 -0.1542
 1033YOPC   C1B14891   9.877   1.172   6.656  0.2785  0.0468  0.0810
 1033YOPC   C2B14892  10.009   0.789   6.974 -0.1065  0.1829 -0.1821
 1033YOPC   D3B14893  10.098   1.015   7.322 -0.0566  0.0235 -0.2984
 1033YOPC   C4B14894  10.481   0.914   7.650 -0.1090 -0.0377 -0.3635
 1034YOPC   NC314895   1.345  10.174   5.783  0.3156 -0.0077  0.1583
 1034YOPC   PO414896   1.198   9.770   5.790  0.0293 -0.0425  0.0737
 1034YOPC   GL114897   1.050   9.946   6.164 -0.2484  0.0320  0.3914
 1034YOPC   GL214898   0.750   9.825   6.205 -0.0733  0.2271  0.3326
 1034YOPC   C1A14899   1.022  10.431   6.455 -0.2358 -0.0376 -0.1060
 1034YOPC   D2A14900   0.781  10.840   6.518  0.1691  0.3115 -0.3987
 1034YOPC   C3A14901   0.530  10.804   6.885 -0.3190 -0.2297  0.0471
 1034YOPC   C4A14902   0.492  11.063   7.171 -0.1732 -0.0314 -0.2519
 1034YOPC   C1B14903   0.349   9.984   6.394 -0.2137  0.1852 -0.0341
 1034YOPC   C2B14904   0.261   9.978   6.933 -0.1281 -0.1108  0.1216
 1034YOPC   D3B14905   0.432  10.026   7.391 -0.4474 -0.1529  0.0938
 1034YOPC   C4B14906   0.757  10.167   7.531 -0.2474 -0.5550  0.0500
 1035YOPC   NC314907   2.181  13.635   6.231 -0.2495  0.0428 -0.0724
 1035YOPC   PO414908   2.606  13.538   6.189 -0.1591  0.2641  0.2775
 1035YOPC   GL114909   2.666  13.433   6.594 -0.1067  0.0646 -0.1401
 1035YOPC   GL214910   2.992  13.311   6.744 -0.2109  0.0550  0.0962
 1035YOPC   C1A14911   2.467  13.223   6.951  0.0290  0.1155  0.2202
 1035YOPC   D2A14912   2.370  12.798   7.198  0.1610  0.2669  0.1621
 1035YOPC   C3A14913   1.950  12.612   7.376  0.0703  0.1557 -0.0394
 1035YOPC   C4A14914   2.007  12.403   7.831  0.1519 -0.0035 -0.1023
 1035YOPC   C1B14915   2.906  13.115   7.112 -0.0148 -0.3644 -0.4810
 1035YOPC   C2B14916   3.013  13.053   7.627 -0.0892 -0.1576 -0.0521
 1035YOPC   D3B14917   2.989  13.383   7.876 -0.1378  0.3682 -0.0674
 1035YOPC   C4B14918   2.666  13.644   7.987  0.1161  0.0286 -0.3400
 1036YOPC   NC314919  11.743  17.807   5.906 -0.1136 -0.0477  0.2841
 1036YOPC   PO414920  11.896  17.474   5.706  0.2639  0.3523  0.0584
 1036YOPC   GL114921  12.147  17.578   6.167  0.2490  0.2370  0.3976
 1036YOPC   GL214922  12.317  17.344   6.388  0.0525 -0.0516  0.2985
 1036YOPC   C1A14923  12.123  17.755   6.531 -0.1410  0.0385 -0.4628
 1036YOPC   D2A14924  12.214  18.012   6.982 -0.1624  0.1007 -0.2241
 1036YOPC   C3A14925  11.947  17.874   7.345  0.2035 -0.1862  0.2192
 1036YOPC   C4A14926  11.874  18.013   7.770  0.2228  0.2816  0.3158
 1036YOPC   C1B14927  11.900  17.301   6.641  0.0779 -0.0279 -0.1483
 1036YOPC   C2B14928  11.804  17.707   6.879  0.0343  0.0002  0.1647
 1036YOPC   D3B14929  11.443  17.659   7.193 -0.0237  0.1654  0.2301
 1036YOPC   C4B14930  11.158  17.564   7.309 -0.2869 -0.5045  0.0290
 1037YOPC   NC314931  12.139   8.700   5.360 -0.3157  0.1221 -0.1679
 1037YOPC   PO414932  12.130   9.038   5.786  0.0521 -0.2385  0.2944
 1037YOPC   GL114933  12.016   9.285   6.140 -0.1252 -0.0596 -0.0242
 1037YOPC   GL214934  11.954   9.524   6.149  0.0409  0.1874 -0.2361
 1037YOPC   C1A14935  12.181   9.206   6.517 -0.0524  0.2885  0.0119
 1037YOPC   D2A14936  12.558   8.958   6.694 -0.0642 -0.1877  0.5471
 1037YOPC   C3A14937  12.538   8.846   7.164  0.1037  0.0366 -0.0656
 1037YOPC   C4A14938  12.782   8.882   7.438 -0.1350 -0.0831  0.1970
 1037YOPC   C1B14939  11.943   9.607   6.622  0.0972 -0.2837  0.2072
 1037YOPC   C2B14940  11.865   9.326   6.980 -0.0988 -0.0183  0.3454
 1037YOPC   D3B14941  12.114   9.061   7.165 -0.1799 -0.2491  0.1517
 1037YOPC   C4B14942  12.105   8.666   7.279  0.4008 -0.0176  0.0935
 1038YOPC   NC314943   2.692  15.296   5.679 -0.1710 -0.0424  0.0628
 1038YOPC   PO414944   2.619  15.166   6.095  0.1982  0.1521 -0.2531
 1038YOPC   GL114945   2.629  14.955   6.438  0.1335  0.0553  0.1269
 1038YOPC   GL214946   2.463  15.254   6.555 -0.2511 -0.2978 -0.0251
 1038YOPC   C1A14947   2.442  14.724   6.818  0.0499  0.1431  0.2959
 1038YOPC   D2A14948   2.500  14.667   7.274  0.2509  0.0392 -0.0367
 1038YOPC   C3A14949   2.776  14.680   7.541 -0.1881  0.2127 -0.0333
 1038YOPC   C4A14950   3.101  14.339   7.746  0.0643 -0.2614 -0.0908
 1038YOPC   C1B14951   2.680  15.159   6.888  0.0004  0.0371  0.0202
 1038YOPC   C2B14952   2.730  15.203   7.376  0.0698  0.1572  0.2445
 1038YOPC   D3B14953   2.442  15.553   7.661 -0.0646 -0.2534 -0.2781
 1038YOPC   C4B14954   2.209  15.648   8.152  0.0679  0.1435 -0.0171
 1039YOPC   NC314955  10.355   7.491   4.753 -0.2374 -0.1503  0.0977
 1039YOPC   PO414956  10.432   7.735   5.178 -0.2290  0.2360  0.0119
 1039YOPC   GL114957  10.452   7.782   5.615  0.1574 -0.1771  0.1800
 1039YOPC   GL214958  10.315   8.055   5.631 -0.1747 -0.2998  0.3564
 1039YOPC   C1A14959  10.577   7.611   5.932  0.1538 -0.0579 -0.2716
 1039YOPC   D2A14960  10.531   7.482   6.391 -0.0960 -0.1589  0.0861
 1039YOPC   C3A14961  10.578   7.626   6.840 -0.0510 -0.0156 -0.1972
 1039YOPC   C4A14962  10.871   7.994   7.056  0.2007  0.4631 -0.1926
 1039YOPC   C1B14963  10.318   8.259   6.040  0.0110  0.2349  0.3168
 1039YOPC   C2B14964  10.501   7.985   6.358 -0.0677  0.0733  0.1864
 1039YOPC   D3B14965  10.822   7.948   6.570  0.2444  0.0229  0.0941
 1039YOPC   C4B14966  11.069   7.559   6.748  0.3099  0.2147  0.1091
 1040YOPC   NC314967   4.630   9.831   5.503  0.3508  0.2125  0.0476
 1040YOPC   PO414968   4.483  10.238   5.629  0.2706 -0.1763 -0.4411
 1040YOPC   GL114969   4.471  10.415   6.109 -0.0828  0.0542  0.0466
 1040YOPC   GL214970   4.606  10.583   6.440  0.1121  0.0664 -0.2438
 1040YOPC   C1A14971   4.232  10.819   6.211  0.2101  0.2685 -0.1027
 1040YOPC   D2A14972   4.268  10.946   6.658  0.0806 -0.3649 -0.2459
 1040YOPC   C3A14973   4.228  10.676   7.050  0.2379 -0.0468 -0.0524
 1040YOPC   C4A14974   4.067  10.437   7.374 -0.3477 -0.2378  0.1335
 1040YOPC   C1B14975   4.681  10.687   6.883 -0.0988  0.3706  0.2495
 1040YOPC   C2B14976   4.593  11.015   7.170  0.2565  0.0078  0.0636
 1040YOPC   D3B14977   4.996  11.256   7.292  0.1203 -0.1313  0.2595
 1040YOPC   C4B14978   5.442  11.203   7.360 -0.0897 -0.2098  0.0018
 1041YOPC   NC314979   8.680   1.346   5.669  0.1855 -0.0406  0.1382
 1041YOPC   PO414980   8.177   1.369   5.913 -0.3605 -0.2177 -0.0150
 1041YOPC   GL114981   8.336   1.309   6.341  0.1093  0.0134 -0.1529
 1041YOPC   GL214982   8.628   1.265   6.247  0.0992  0.2818  0.0483
 1041YOPC   C1A14983   8.345   1.167   6.718 -0.0973 -0.1071  0.3126
 1041YOPC   D2A14984   8.307   1.219   7.189 -0.1635  0.1391  0.2570
 1041YOPC   C3A14985   8.584   1.317   7.480 -0.0704 -0.0293  0.2272
 1041YOPC   C4A14986   8.388   1.345   7.907 -0.3213  0.1020  0.1922
 1041YOPC   C1B14987   8.946   1.407   6.565  0.1392 -0.5248 -0.0651
 1041YOPC   C2B14988   9.107   1.683   6.902 -0.0149  0.1986  0.4554
 1041YOPC   D3B14989   9.544   1.665   6.973  0.1328  0.0662 -0.1401
 1041YOPC   C4B14990   9.973   1.844   6.823 -0.2557 -0.0757 -0.1334
 1042YOPC   NC314991  10.461   5.510   5.148 -0.0029  0.0878  0.0586
 1042YOPC   PO414992  10.723   5.047   5.192  0.1573 -0.0867  0.0959
 1042YOPC   GL114993  10.642   5.092   5.582 -0.0653 -0.0391  0.0707
 1042YOPC   GL214994  10.547   4.785   5.632 -0.1920  0.2073  0.1784
 1042YOPC   C1A14995  10.395   5.180   6.023  0.2188  0.2237 -0.0397
 1042YOPC   D2A14996  10.236   5.111   6.449  0.1903 -0.1349 -0.1443
 1042YOPC   C3A14997  10.269   5.278   6.934 -0.4595  0.0218  0.1735
 1042YOPC   C4A14998  10.587   5.469   7.254 -0.3539  0.1264  0.0673
 1042YOPC   C1B14999  10.271   4.638   5.920 -0.2895  0.3036  0.2742
 1042YOPC   C2B15000  10.193   4.435   6.363 -0.2367  0.2554 -0.1793
 1042YOPC   D3B15001  10.428   4.746   6.682  0.2265  0.2058 -0.1483
 1042YOPC   C4B15002  10.747   5.025   6.801  0.2526 -0.1601  0.0339
 1043YOPC   NC315003   5.294   0.007   5.993 -0.1963 -0.2612 -0.0960
 1043YOPC   PO415004   5.385   0.352   6.363 -0.0573  0.3309  0.0400
 1043YOPC   GL115005   5.318   0.274   6.742  0.0161 -0.3016 -0.2041
 1043YOPC   GL215006   5.226   0.007   6.642 -0.1120 -0.0560  0.0590
 1043YOPC   C1A15007   5.388   0.199   7.172  0.2489  0.1061  0.1034
 1043YOPC   D2A15008   5.405   0.200   7.637  0.0231  0.0915  0.1671
 1043YOPC   C3A15009   5.521  -0.061   7.966  0.2342  0.0479 -0.0384
 1043YOPC   C4A15010   5.874  -0.351   8.116 -0.2903  0.4792  0.0839
 1043YOPC   C1B15011   5.433  -0.281   6.997 -0.2142 -0.0513 -0.2932
 1043YOPC   C2B15012   5.415  -0.300   7.453  0.2654 -0.0462 -0.1110
 1043YOPC   D3B15013   5.638  -0.478   7.694  0.1520  0.0544  0.1009
 1043YOPC   C4B15014   6.060  -0.618   7.750  0.0955  0.1044  0.0214
 1044YOPC   NC315015   5.004   7.522   5.453  0.1942  0.1508 -0.0474
 1044YOPC   PO415016   4.964   7.017   5.456 -0.3164 -0.0897  0.1115
 1044YOPC   GL115017   5.111   7.007   5.897 -0.2942 -0.3007  0.1329
 1044YOPC   GL215018   5.024   7.273   6.088  0.2009  0.0277  0.3062
 1044YOPC   C1A15019   5.217   6.898   6.360 -0.2868 -0.0337 -0.0137
 1044YOPC   D2A15020   5.576   7.034   6.691  0.0730 -0.3866  0.3830
 1044YOPC   C3A15021   5.531   7.108   7.173 -0.0183 -0.0189  0.3248
 1044YOPC   C4A15022   5.677   7.501   7.405 -0.0306 -0.3391 -0.1852
 1044YOPC   C1B15023   5.142   7.412   6.474 -0.0079 -0.0471  0.1926
 1044YOPC   C2B15024   5.098   7.820   6.668  0.1475  0.0817  0.1357
 1044YOPC   D3B15025   4.820   8.158   6.651 -0.1987 -0.1819 -0.1177
 1044YOPC   C4B15026   4.391   8.336   7.008  0.2027 -0.2124 -0.0159
 1045YOPC   NC315027   0.011   5.935   5.746  0.0901 -0.1020 -0.4504
 1045YOPC   PO415028  -0.242   6.301   5.554 -0.3953  0.1790 -0.1373
 1045YOPC   GL115029  -0.114   6.351   5.995  0.1450 -0.0471  0.1897
 1045YOPC   GL215030  -0.146   6.090   6.189 -0.3556  0.1645 -0.1569
 1045YOPC   C1A15031   0.028   6.502   6.437 -0.2464  0.0864  0.2431
 1045YOPC   D2A15032   0.077   6.347   6.808 -0.1367 -0.0831 -0.0697
 1045YOPC   C3A15033  -0.037   6.013   6.976  0.3011 -0.1028 -0.0263
 1045YOPC   C4A15034   0.109   5.723   7.248  0.1895 -0.1688 -0.1551
 1045YOPC   C1B15035  -0.313   6.128   6.571  0.1782 -0.3593  0.0774
 1045YOPC   C2B15036  -0.301   5.792   6.633  0.0102  0.0735 -0.3247
 1045YOPC   D3B15037  -0.308   5.580   7.003 -0.2002  0.0734 -0.2993
 1045YOPC   C4B15038  -0.351   5.147   7.267  0.1520  0.1916  0.1652
 1046YOPC   NC315039   6.129  15.349   6.101  0.0300 -0.0644  0.0183
 1046YOPC   PO415040   6.472  15.607   6.306 -0.1978  0.0511 -0.0017
 1046YOPC   GL115041   6.505  15.101   6.447 -0.3288 -0.1517  0.0799
 1046YOPC   GL215042   6.805  14.879   6.607  0.1286  0.0484  0.2663
 1046YOPC   C1A15043   6.341  14.768   6.599 -0.1368  0.1359  0.2687
 1046YOPC   D2A15044   6.137  14.593   6.896  0.0463  0.3904 -0.3935
 1046YOPC   C3A15045   5.894  14.230   6.950 -0.1332  0.1726  0.1094
 1046YOPC   C4A15046   5.764  13.974   7.297 -0.0619  0.1071 -0.2282
 1046YOPC   C1B15047   6.572  15.113   6.932  0.3829 -0.1211 -0.1948
 1046YOPC   C2B15048   6.848  15.552   7.103  0.0082  0.0932 -0.1494
 1046YOPC   D3B15049   6.898  15.934   6.770  0.1364 -0.0513  0.0740
 1046YOPC   C4B15050   6.715  16.391   6.870 -0.0262 -0.0089 -0.0518
 1047YOPC   NC315051   3.341   8.271   6.009 -0.1390 -0.0698  0.0727
 1047YOPC   PO415052   3.789   8.026   5.957 -0.2358 -0.0662  0.0071
 1047YOPC   GL115053   3.923   7.971   6.409 -0.0844 -0.0749 -0.0507
 1047YOPC   GL215054   3.699   8.281   6.380  0.2792  0.1340  0.2346
 1047YOPC   C1A15055   3.914   8.138   6.817 -0.0836 -0.3204 -0.0492
 1047YOPC   D2A15056   3.785   8.376   7.092 -0.1521  0.2518  0.1006
 1047YOPC   C3A15057   4.103   8.585   7.372  0.0810 -0.2635  0.2542
 1047YOPC   C4A15058   4.220   8.990   7.569  0.1695  0.1110  0.3250
 1047YOPC   C1B15059   3.533   8.522   6.705  0.0048  0.1989  0.3560
 1047YOPC   C2B15060   3.249   8.461   7.024 -0.0855 -0.0070  0.0416
 1047YOPC   D3B15061   2.978   8.183   7.115  0.1059  0.1077  0.0943
 1047YOPC   C4B15062   2.712   8.140   7.469 -0.0215  0.1898  0.0262
 1048YOPC   NC315063   4.431  15.989   5.826  0.1651 -0.3683  0.0143
 1048YOPC   PO415064   4.410  16.251   6.067  0.3340 -0.1774  0.0629
 1048YOPC   GL115065   4.303  16.535   6.413  0.0943  0.0589 -0.0958
 1048YOPC   GL215066   4.524  16.349   6.710  0.0176  0.2436  0.0639
 1048YOPC   C1A15067   4.148  16.801   6.866 -0.0877 -0.1445 -0.1695
 1048YOPC   D2A15068   4.247  16.754   7.351 -0.0729 -0.1188  0.0267
 1048YOPC   C3A15069   4.168  16.873   7.712  0.0828  0.1680 -0.2543
 1048YOPC   C4A15070   4.204  17.177   7.940 -0.0620  0.1554 -0.0897
 1048YOPC   C1B15071   4.189  16.316   7.036  0.3442  0.1731 -0.1587
 1048YOPC   C2B15072   3.946  16.235   7.348 -0.1758  0.0919  0.2275
 1048YOPC   D3B15073   4.195  16.263   7.554 -0.2189 -0.0231 -0.3124
 1048YOPC   C4B15074   4.551  16.501   7.915  0.2750  0.0245 -0.2163
 1049YOPC   NC315075   6.151  13.380   5.294  0.2545  0.1379 -0.3043
 1049YOPC   PO415076   6.199  13.464   5.765 -0.2354  0.1654  0.0154
 1049YOPC   GL115077   6.170  13.131   6.192 -0.1554 -0.4134 -0.0167
 1049YOPC   GL215078   6.327  13.286   6.500 -0.2462 -0.3793  0.3679
 1049YOPC   C1A15079   6.225  12.696   6.261  0.0602  0.3881  0.2454
 1049YOPC   D2A15080   6.162  12.335   6.577 -0.1584  0.0919  0.0764
 1049YOPC   C3A15081   6.504  12.033   6.569  0.0198  0.0705 -0.1172
 1049YOPC   C4A15082   6.626  12.151   6.159 -0.2168  0.0596 -0.1289
 1049YOPC   C1B15083   6.302  12.980   6.726 -0.0302 -0.0941 -0.0804
 1049YOPC   C2B15084   6.597  12.597   6.679 -0.1610 -0.0880 -0.0950
 1049YOPC   D3B15085   6.583  12.322   6.963  0.1383 -0.0923 -0.1369
 1049YOPC   C4B15086   6.380  12.233   7.311  0.0384  0.0514 -0.3024
 1050YOPC   NC315087   2.897   9.133   6.157 -0.0899  0.1764  0.3503
 1050YOPC   PO415088   3.199   8.764   6.083 -0.5557 -0.2532 -0.1677
 1050YOPC   GL115089   3.252   8.954   6.497 -0.0695  0.3667  0.3822
 1050YOPC   GL215090   3.623   9.016   6.598  0.0418  0.2401  0.0853
 1050YOPC   C1A15091   3.202   8.918   6.902  0.0514  0.1800  0.1571
 1050YOPC   D2A15092   2.972   8.967   7.259 -0.1663 -0.2401  0.1750
 1050YOPC   C3A15093   2.985   8.638   7.498 -0.0960  0.0587 -0.3447
 1050YOPC   C4A15094   3.154   8.333   7.870 -0.2762  0.1895 -0.1831
 1050YOPC   C1B15095   3.677   9.006   7.088  0.3446  0.2552 -0.1295
 1050YOPC   C2B15096   3.663   8.833   7.373 -0.0610  0.1645  0.0610
 1050YOPC   D3B15097   3.542   8.412   7.510 -0.1238 -0.0597 -0.0665
 1050YOPC   C4B15098   3.569   7.913   7.626 -0.1197 -0.1764  0.3586
 1051YOPC   NC315099   7.220  10.620   5.536  0.2033 -0.3056  0.3949
 1051YOPC   PO415100   7.326  10.891   5.768 -0.3642  0.5599 -0.0487
 1051YOPC   GL115101   7.183  11.020   6.140 -0.0127  0.2040 -0.1857
 1051YOPC   GL215102   6.945  10.890   6.348  0.1062 -0.1385 -0.0448
 1051YOPC   C1A15103   7.372  11.213   6.514  0.0425  0.0624  0.0245
 1051YOPC   D2A15104   7.673  11.164   6.912  0.0513  0.0512  0.0050
 1051YOPC   C3A15105   7.436  11.186   7.419 -0.3176 -0.0487 -0.1112
 1051YOPC   C4A15106   7.349  10.941   7.752 -0.2444  0.0647 -0.1057
 1051YOPC   C1B15107   6.962  10.985   6.738 -0.0484 -0.2467  0.0046
 1051YOPC   C2B15108   6.977  11.280   7.094  0.0362  0.1460 -0.0829
 1051YOPC   D3B15109   6.693  11.470   7.399  0.0502  0.0273 -0.3539
 1051YOPC   C4B15110   6.472  11.685   7.747  0.0057 -0.1353 -0.3782
 1052YOPC   NC315111   5.873  17.790   6.221  0.0862  0.4067 -0.2819
 1052YOPC   PO415112   6.175  17.494   6.522 -0.1608 -0.1948 -0.0404
 1052YOPC   GL115113   5.926  17.651   6.834 -0.0056  0.2316 -0.1491
 1052YOPC   GL215114   5.650  17.563   6.776 -0.2168  0.1541  0.2531
 1052YOPC   C1A15115   5.949  17.951   7.195 -0.1846  0.2847 -0.1257
 1052YOPC   D2A15116   6.282  18.140   7.425 -0.0503 -0.1143 -0.2043
 1052YOPC   C3A15117   6.516  18.009   7.879 -0.1097 -0.2085  0.1178
 1052YOPC   C4A15118   6.428  17.864   8.223  0.3520 -0.2890  0.0569
 1052YOPC   C1B15119   5.551  17.578   7.216 -0.1225 -0.1106 -0.2364
 1052YOPC   C2B15120   5.572  17.467   7.603  0.0765  0.0589 -0.1363
 1052YOPC   D3B15121   5.434  17.562   7.997  0.1695 -0.1069  0.1329
 1052YOPC   C4B15122   5.482  17.258   8.370 -0.4023 -0.0552 -0.1785
 1053YOPC   NC315123   4.531  16.752   5.998 -0.1987  0.0226 -0.3736
 1053YOPC   PO415124   4.804  17.137   6.020  0.0954  0.0501 -0.0545
 1053YOPC   GL115125   4.723  17.109   6.430 -0.0305  0.2040  0.0480
 1053YOPC   GL215126   4.645  16.842   6.511 -0.2351 -0.2399  0.0628
 1053YOPC   C1A15127   4.356  17.338   6.690 -0.2662  0.0654  0.2476
 1053YOPC   D2A15128   3.964  17.259   6.822  0.0876  0.2017  0.0645
 1053YOPC   C3A15129   3.884  17.108   7.240 -0.0382 -0.0060  0.3335
 1053YOPC   C4A15130   3.487  17.047   7.329  0.3282  0.2945  0.2096
 1053YOPC   C1B15131   4.639  16.788   6.914  0.0047  0.1985 -0.0341
 1053YOPC   C2B15132   4.790  16.896   7.420 -0.1021 -0.1785 -0.1122
 1053YOPC   D3B15133   4.662  17.004   7.865  0.1281  0.1669 -0.1337
 1053YOPC   C4B15134   4.664  17.343   8.168 -0.3828  0.3357 -0.1327
 1054YOPC   NC315135  16.498   6.762   5.590  0.0298 -0.0868  0.6019
 1054YOPC   PO415136  16.894   6.998   5.524 -0.2800  0.0951 -0.1738
 1054YOPC   GL115137  16.978   6.838   5.859 -0.1028  0.1515 -0.0631
 1054YOPC   GL215138  17.250   6.532   5.942  0.2840 -0.3073 -0.0509
 1054YOPC   C1A15139  17.043   6.879   6.284 -0.2628 -0.2218 -0.2051
 1054YOPC   D2A15140  16.864   6.706   6.574 -0.0491 -0.0653  0.3270
 1054YOPC   C3A15141  16.917   6.600   6.992  0.0873 -0.1721  0.2297
 1054YOPC   C4A15142  17.053   6.405   7.414 -0.0502  0.1786 -0.0213
 1054YOPC   C1B15143  17.175   6.346   6.347 -0.1199  0.1042 -0.1503
 1054YOPC   C2B15144  16.964   6.136   6.648  0.0421 -0.2492 -0.2553
 1054YOPC   D3B15145  16.998   6.021   7.080  0.1619  0.0971 -0.3320
 1054YOPC   C4B15146  17.398   5.977   7.338  0.0622  0.0173  0.2286
 1055YOPC   NC315147  13.860   3.208   5.219  0.0446 -0.1951 -0.0717
 1055YOPC   PO415148  14.028   3.584   5.344 -0.1635 -0.1939 -0.0727
 1055YOPC   GL115149  13.985   3.839   5.740 -0.1394 -0.1482 -0.0527
 1055YOPC   GL215150  13.800   4.098   5.668  0.3816 -0.0804  0.3514
 1055YOPC   C1A15151  14.009   3.933   6.170 -0.0191 -0.2363 -0.1656
 1055YOPC   D2A15152  13.945   3.950   6.637  0.4087 -0.2833 -0.1405
 1055YOPC   C3A15153  14.116   4.158   6.962  0.1476  0.2700  0.2244
 1055YOPC   C4A15154  14.438   4.006   7.336  0.2775  0.1856 -0.1808
 1055YOPC   C1B15155  13.584   3.754   5.995 -0.2233  0.3352  0.0408
 1055YOPC   C2B15156  13.459   3.727   6.448 -0.0578  0.2033  0.1404
 1055YOPC   D3B15157  13.258   3.468   6.888 -0.0607 -0.2248  0.0033
 1055YOPC   C4B15158  13.383   3.531   7.290  0.1404 -0.2376  0.0633
 1056YOPC   NC315159   0.916   6.855   5.507  0.1197  0.4135 -0.2944
 1056YOPC   PO415160   1.355   6.544   5.724  0.2587 -0.0527  0.1091
 1056YOPC   GL115161   1.498   6.508   6.103  0.0621  0.1317  0.1094
 1056YOPC   GL215162   1.707   6.745   6.305  0.0642  0.2238  0.0738
 1056YOPC   C1A15163   1.342   6.334   6.516 -0.0905 -0.0639  0.0723
 1056YOPC   D2A15164   1.064   6.018   6.618  0.1351  0.0240 -0.2980
 1056YOPC   C3A15165   1.181   5.654   6.868 -0.0750  0.1142 -0.1587
 1056YOPC   C4A15166   1.306   5.599   7.370  0.1787  0.4018  0.0516
 1056YOPC   C1B15167   1.617   6.650   6.762 -0.0317 -0.0240  0.2288
 1056YOPC   C2B15168   1.449   6.514   7.096 -0.0331  0.0950  0.0486
 1056YOPC   D3B15169   1.630   6.562   7.548 -0.1007 -0.0751  0.2450
 1056YOPC   C4B15170   1.500   6.823   7.825 -0.2429 -0.0122  0.2801
 1057YOPC   NC315171   5.568  15.994   6.156 -0.0301  0.0986  0.0212
 1057YOPC   PO415172   5.201  16.174   6.095  0.1816  0.0042  0.1552
 1057YOPC   GL115173   5.349  16.358   6.521  0.3251  0.1049  0.0989
 1057YOPC   GL215174   5.740  16.331   6.487  0.0047 -0.2215  0.0573
 1057YOPC   C1A15175   5.011  16.202   6.922  0.1741  0.0160  0.3084
 1057YOPC   D2A15176   4.674  16.298   7.211 -0.0438  0.1077  0.2951
 1057YOPC   C3A15177   4.704  16.112   7.634  0.0682  0.0808  0.3035
 1057YOPC   C4A15178   4.345  15.979   7.937 -0.0959 -0.1199  0.3174
 1057YOPC   C1B15179   5.647  16.164   6.851 -0.0672  0.0791  0.2064
 1057YOPC   C2B15180   5.812  15.818   6.982  0.1208  0.0554 -0.2860
 1057YOPC   D3B15181   5.758  15.675   7.362  0.1709  0.3408 -0.2718
 1057YOPC   C4B15182   5.822  15.233   7.480 -0.0241 -0.1220 -0.0806
 1058YOPC   NC315183  14.408   7.633   5.003 -0.2494  0.1114  0.0592
 1058YOPC   PO415184  14.168   7.429   5.334  0.2482 -0.1135  0.1996
 1058YOPC   GL115185  14.084   7.487   5.696  0.2526 -0.0254 -0.3214
 1058YOPC   GL215186  14.220   7.711   5.996  0.1841 -0.2807 -0.0050
 1058YOPC   C1A15187  13.776   7.292   5.989  0.0642  0.1785 -0.0722
 1058YOPC   D2A15188  13.421   7.094   6.279  0.0376 -0.0289  0.1085
 1058YOPC   C3A15189  13.476   7.095   6.617 -0.0341 -0.2616 -0.2258
 1058YOPC   C4A15190  13.555   7.087   7.043  0.1125  0.0302 -0.3072
 1058YOPC   C1B15191  14.169   7.413   6.285  0.1207  0.1960 -0.2233
 1058YOPC   C2B15192  14.045   7.358   6.669  0.0522  0.1717 -0.2050
 1058YOPC   D3B15193  14.007   7.197   7.105 -0.0178  0.2029 -0.1841
 1058YOPC   C4B15194  14.287   7.332   7.438 -0.0080  0.1614  0.1248
 1059YOPC   NC315195   6.962   6.786   5.215  0.1562  0.0858  0.1602
 1059YOPC   PO415196   7.272   6.586   5.374 -0.0082 -0.0488 -0.2444
 1059YOPC   GL115197   7.158   6.612   5.856 -0.1249  0.2024  0.0041
 1059YOPC   GL215198   6.940   6.524   5.990  0.2322  0.2042  0.0511
 1059YOPC   C1A15199   7.495   6.547   6.084  0.6086 -0.0237 -0.1823
 1059YOPC   D2A15200   7.807   6.643   6.464 -0.1726  0.0995  0.1236
 1059YOPC   C3A15201   7.887   7.062   6.579 -0.2228  0.0495 -0.1524
 1059YOPC   C4A15202   8.165   7.397   6.474  0.1621  0.0659 -0.2383
 1059YOPC   C1B15203   6.775   6.925   6.077  0.0128  0.5038  0.2528
 1059YOPC   C2B15204   6.590   7.176   6.382 -0.2427 -0.2546 -0.1778
 1059YOPC   D3B15205   6.534   7.204   6.689  0.1569 -0.1573  0.0912
 1059YOPC   C4B15206   6.662   7.142   7.105 -0.1026 -0.2375  0.2672
 1060YOPC   NC315207   4.864   6.081   5.403  0.0695  0.0252  0.0201
 1060YOPC   PO415208   4.509   5.892   5.557  0.2411 -0.2306 -0.1092
 1060YOPC   GL115209   4.706   5.949   5.923 -0.2688  0.0345 -0.1618
 1060YOPC   GL215210   4.707   6.215   5.902 -0.2720  0.0544 -0.0922
 1060YOPC   C1A15211   4.551   5.830   6.262  0.0503  0.0316 -0.1578
 1060YOPC   D2A15212   4.418   5.597   6.585  0.0792 -0.5739  0.0706
 1060YOPC   C3A15213   4.072   5.739   6.787 -0.1895 -0.0418 -0.0259
 1060YOPC   C4A15214   3.869   5.578   7.058 -0.0631 -0.1371  0.1177
 1060YOPC   C1B15215   5.102   6.373   6.169  0.0716  0.1368  0.1664
 1060YOPC   C2B15216   5.190   6.479   6.546  0.1352 -0.1711 -0.3217
 1060YOPC   D3B15217   4.886   6.358   6.868 -0.2532 -0.3315 -0.1744
 1060YOPC   C4B15218   4.794   6.315   7.256  0.0967  0.0520 -0.2932
 1061YOPC   NC315219  12.834  11.391   5.745 -0.2601  0.0414  0.0692
 1061YOPC   PO415220  12.464  11.292   5.995 -0.1717  0.0939 -0.1565
 1061YOPC   GL115221  12.504  11.405   6.408  0.1078  0.0739 -0.0234
 1061YOPC   GL215222  12.678  11.056   6.391  0.0665  0.1568 -0.0463
 1061YOPC   C1A15223  12.321  11.802   6.594 -0.1104 -0.1979 -0.0536
 1061YOPC   D2A15224  12.071  12.028   6.924 -0.0253 -0.2170 -0.0285
 1061YOPC   C3A15225  11.837  11.845   7.305 -0.2308  0.1288  0.1183
 1061YOPC   C4A15226  11.615  11.639   7.741  0.0608  0.1530 -0.1692
 1061YOPC   C1B15227  12.833  11.199   6.852  0.2749  0.0584 -0.2063
 1061YOPC   C2B15228  12.993  11.202   7.336  0.0998  0.0543 -0.1709
 1061YOPC   D3B15229  12.830  11.380   7.794  0.1035  0.0043 -0.0472
 1061YOPC   C4B15230  12.684  11.510   8.290  0.1210 -0.1616  0.0049
 1062YOPC   NC315231  18.351   9.250   5.695  0.0739  0.1260 -0.0059
 1062YOPC   PO415232  17.897   9.264   5.683  0.0403 -0.1416 -0.1274
 1062YOPC   GL115233  17.810   9.112   6.035 -0.1378 -0.3826  0.0616
 1062YOPC   GL215234  17.484   9.153   5.966 -0.0870  0.1306  0.1558
 1062YOPC   C1A15235  17.803   8.675   6.248 -0.0263  0.2489  0.0937
 1062YOPC   D2A15236  17.996   8.307   6.474  0.0956  0.0167 -0.2944
 1062YOPC   C3A15237  18.178   8.345   6.878  0.1178 -0.0127 -0.1193
 1062YOPC   C4A15238  18.246   8.000   6.980 -0.1150 -0.0439  0.0693
 1062YOPC   C1B15239  17.242   8.991   6.163 -0.0956  0.1560 -0.1876
 1062YOPC   C2B15240  16.903   8.752   6.236 -0.0310 -0.0548  0.0236
 1062YOPC   D3B15241  16.849   8.455   6.575 -0.0487 -0.1466 -0.0433
 1062YOPC   C4B15242  16.654   8.146   6.974 -0.0579 -0.1290  0.2027
 1063YOPC   NC315243   8.285   0.197   5.521 -0.1634 -0.1936  0.1753
 1063YOPC   PO415244   8.115   0.405   5.899  0.0513  0.0488  0.0405
 1063YOPC   GL115245   8.023   0.544   6.266  0.0038 -0.2000  0.0084
 1063YOPC   GL215246   7.826   0.361   6.594  0.2152  0.0352 -0.1038
 1063YOPC   C1A15247   7.985   0.779   6.683  0.0926  0.0758 -0.0497
 1063YOPC   D2A15248   7.832   1.126   6.806 -0.2881 -0.3948 -0.0715
 1063YOPC   C3A15249   7.853   1.336   7.312 -0.0401 -0.1336 -0.0859
 1063YOPC   C4A15250   7.957   1.139   7.704  0.3660  0.0173 -0.0398
 1063YOPC   C1B15251   7.947   0.392   6.988 -0.2079  0.0881  0.0446
 1063YOPC   C2B15252   7.914   0.634   7.389  0.0097 -0.1590  0.0427
 1063YOPC   D3B15253   7.936   0.508   7.807 -0.0507 -0.2854 -0.1774
 1063YOPC   C4B15254   8.076   0.814   8.070  0.0853  0.1618  0.0728
 1064YOPC   NC315255   7.646   4.008   5.657 -0.3011  0.2247  0.0430
 1064YOPC   PO415256   8.065   4.248   5.731 -0.0886 -0.2180 -0.2622
 1064YOPC   GL115257   7.852   4.506   6.038 -0.4914 -0.2070 -0.1134
 1064YOPC   GL215258   7.521   4.563   5.942 -0.2110  0.3495 -0.1233
 1064YOPC   C1A15259   7.900   4.869   6.260 -0.0328  0.0452  0.0087
 1064YOPC   D2A15260   8.114   5.061   6.533  0.1556  0.0210 -0.0031
 1064YOPC   C3A15261   8.241   5.018   6.951  0.0542  0.1156  0.0050
 1064YOPC   C4A15262   8.078   4.697   7.245  0.0325 -0.1207 -0.1508
 1064YOPC   C1B15263   7.468   4.631   6.416  0.1725  0.0008 -0.0558
 1064YOPC   C2B15264   7.302   4.627   6.871  0.1895  0.0061  0.1819
 1064YOPC   D3B15265   7.620   4.622   7.181 -0.2820  0.1990  0.1035
 1064YOPC   C4B15266   7.860   4.508   7.632  0.0920 -0.0330 -0.5505
 1065YOPC   NC315267  15.308  14.019   5.481  0.2180  0.2549  0.0354
 1065YOPC   PO415268  15.075  14.245   5.870 -0.2160 -0.0881 -0.0273
 1065YOPC   GL115269  15.002  14.550   6.210 -0.0259 -0.1879  0.1266
 1065YOPC   GL215270  15.194  14.771   6.449 -0.0405 -0.2037 -0.0642
 1065YOPC   C1A15271  14.918  14.416   6.666  0.3955  0.0565  0.0522
 1065YOPC   D2A15272  15.082  14.449   7.067 -0.0009  0.1054  0.4532
 1065YOPC   C3A15273  15.038  14.845   7.318 -0.0002 -0.1682  0.0060
 1065YOPC   C4A15274  14.710  14.916   7.495  0.2186 -0.3339  0.1082
 1065YOPC   C1B15275  15.108  15.036   6.784 -0.1234 -0.0948  0.0899
 1065YOPC   C2B15276  14.875  15.232   7.066  0.2691 -0.0926  0.3561
 1065YOPC   D3B15277  14.566  15.367   7.342 -0.1630 -0.0181 -0.2406
 1065YOPC   C4B15278  14.285  15.313   7.781 -0.0449  0.1465 -0.0127
 1066YOPC   NC315279  14.433  11.577   5.906 -0.0762  0.0356  0.1055
 1066YOPC   PO415280  13.994  11.349   5.752 -0.0307  0.0798 -0.0228
 1066YOPC   GL115281  14.041  11.418   6.189 -0.0835  0.0356  0.0490
 1066YOPC   GL215282  13.845  11.764   6.316  0.1018 -0.2685 -0.0342
 1066YOPC   C1A15283  14.011  11.157   6.514  0.0571 -0.1666 -0.2346
 1066YOPC   D2A15284  13.929  11.124   6.943 -0.3538 -0.0957  0.1005
 1066YOPC   C3A15285  14.066  11.300   7.349 -0.2131 -0.3548  0.2893
 1066YOPC   C4A15286  13.949  11.177   7.704 -0.1150 -0.1636 -0.2208
 1066YOPC   C1B15287  13.740  11.596   6.772 -0.0912  0.0131 -0.2127
 1066YOPC   C2B15288  13.585  11.417   7.229  0.1267 -0.1471 -0.3117
 1066YOPC   D3B15289  13.451  11.762   7.456 -0.0918  0.3527 -0.0480
 1066YOPC   C4B15290  13.272  12.104   7.456  0.2945  0.0492 -0.0186
 1067YOPC   NC315291   4.582   0.639   6.349 -0.1877  0.0871  0.0163
 1067YOPC   PO415292   4.303   0.563   6.707 -0.0480 -0.0834  0.0918
 1067YOPC   GL115293   4.568   0.340   6.974 -0.3335  0.1199  0.0870
 1067YOPC   GL215294   4.783   0.384   6.710  0.0920  0.0729  0.0023
 1067YOPC   C1A15295   4.762   0.400   7.418 -0.1914  0.1403 -0.4164
 1067YOPC   D2A15296   4.977   0.305   7.790  0.1374  0.0353 -0.0094
 1067YOPC   C3A15297   4.877   0.467   8.201  0.0961 -0.0224  0.0975
 1067YOPC   C4A15298   4.745   0.316   8.586  0.0097  0.1654 -0.1565
 1067YOPC   C1B15299   4.948   0.674   7.005  0.0697  0.1535 -0.2038
 1067YOPC   C2B15300   5.271   0.583   7.368  0.0435 -0.0779  0.2834
 1067YOPC   D3B15301   5.741   0.527   7.466  0.1347 -0.1309 -0.0380
 1067YOPC   C4B15302   6.130   0.802   7.464 -0.1484 -0.0408  0.1304
 1068YOPC   NC315303  14.714   2.880   5.117 -0.2563 -0.0268  0.2433
 1068YOPC   PO415304  14.775   3.056   5.502 -0.1389  0.1199 -0.1037
 1068YOPC   GL115305  14.840   3.421   5.602 -0.0979 -0.1609  0.1541
 1068YOPC   GL215306  14.489   3.558   5.681 -0.0364  0.1430  0.0885
 1068YOPC   C1A15307  15.059   3.638   5.873 -0.2292 -0.0951 -0.0181
 1068YOPC   D2A15308  15.152   3.590   6.302 -0.3526  0.0359  0.0149
 1068YOPC   C3A15309  14.841   3.778   6.492  0.1126  0.0509  0.2448
 1068YOPC   C4A15310  14.643   3.930   6.850  0.0190 -0.1459  0.2162
 1068YOPC   C1B15311  14.506   3.666   6.113 -0.0406 -0.0206  0.0152
 1068YOPC   C2B15312  14.534   4.028   6.239 -0.3913  0.1339  0.1902
 1068YOPC   D3B15313  14.344   4.174   6.533  0.0619 -0.2921  0.4570
 1068YOPC   C4B15314  14.524   4.424   6.857  0.1368  0.1772 -0.1327
 1069YOPC   NC315315   8.287  16.823   6.337  0.0944  0.1723  0.2581
 1069YOPC   PO415316   8.590  16.522   6.601  0.1324 -0.0416 -0.2802
 1069YOPC   GL115317   8.715  16.262   6.908 -0.1864  0.0008  0.2695
 1069YOPC   GL215318   8.633  15.843   6.815 -0.2667  0.0803 -0.2381
 1069YOPC   C1A15319   8.855  16.060   7.215  0.2163 -0.2248 -0.1302
 1069YOPC   D2A15320   9.030  15.761   7.449  0.1795  0.0790 -0.0424
 1069YOPC   C3A15321   8.845  15.602   7.904  0.1464 -0.0891  0.2999
 1069YOPC   C4A15322   8.440  15.771   7.966  0.2006 -0.1457 -0.0107
 1069YOPC   C1B15323   8.340  16.020   7.114  0.3189 -0.4256 -0.1742
 1069YOPC   C2B15324   8.337  16.382   7.183 -0.1430  0.4801 -0.1065
 1069YOPC   D3B15325   8.048  16.656   7.309  0.1377  0.1783 -0.3182
 1069YOPC   C4B15326   7.847  16.897   7.627 -0.1027  0.0587  0.0187
 1070YOPC   NC315327  13.633   7.309   4.886  0.2321 -0.2404 -0.2071
 1070YOPC   PO415328  13.426   7.078   5.194  0.0560  0.1721  0.0895
 1070YOPC   GL115329  13.248   6.913   5.655  0.0203 -0.2629 -0.3842
 1070YOPC   GL215330  13.327   7.193   5.775  0.1453 -0.1157  0.1133
 1070YOPC   C1A15331  13.085   6.804   6.159 -0.0337  0.1438 -0.1238
 1070YOPC   D2A15332  12.998   6.600   6.564  0.0816 -0.0656  0.1251
 1070YOPC   C3A15333  13.144   6.275   6.717  0.2197  0.0259 -0.1994
 1070YOPC   C4A15334  13.101   6.215   7.263 -0.0927 -0.3943  0.1716
 1070YOPC   C1B15335  13.033   7.407   6.122 -0.0427 -0.1731 -0.1913
 1070YOPC   C2B15336  13.028   7.493   6.517  0.0401  0.0075 -0.0589
 1070YOPC   D3B15337  13.121   7.293   6.932  0.0427 -0.1928 -0.1494
 1070YOPC   C4B15338  13.107   6.824   6.963 -0.1265  0.0557  0.0486
 1071YOPC   NC315339   0.980  11.162   5.874 -0.3321  0.1428 -0.2190
 1071YOPC   PO415340   0.589  11.432   5.835 -0.2594 -0.0302  0.0168
 1071YOPC   GL115341   0.681  11.786   6.203 -0.3897 -0.0185  0.2169
 1071YOPC   GL215342   0.788  12.002   6.252 -0.0420 -0.0789  0.3760
 1071YOPC   C1A15343   0.568  12.041   6.640  0.1153 -0.0934 -0.0792
 1071YOPC   D2A15344   0.797  12.280   6.939  0.2551  0.1474  0.0086
 1071YOPC   C3A15345   0.542  12.330   7.314  0.3949 -0.2622  0.1900
 1071YOPC   C4A15346   0.435  12.595   7.707  0.1260 -0.1660  0.0081
 1071YOPC   C1B15347   1.032  12.277   6.557 -0.2654  0.1237 -0.1402
 1071YOPC   C2B15348   1.282  12.580   6.716  0.0857  0.1474  0.2179
 1071YOPC   D3B15349   1.203  12.604   7.185  0.1367  0.0249 -0.0101
 1071YOPC   C4B15350   0.905  12.679   7.459 -0.1404  0.0903 -0.0545
 1072YOPC   NC315351  16.808   5.529   5.269  0.0563 -0.2683  0.3424
 1072YOPC   PO415352  17.181   5.662   5.244 -0.0462 -0.0807 -0.0363
 1072YOPC   GL115353  17.082   5.803   5.655 -0.0895  0.0237  0.0405
 1072YOPC   GL215354  17.160   5.582   5.992  0.2367  0.0166  0.1345
 1072YOPC   C1A15355  16.790   6.086   5.850  0.3107  0.4292 -0.0498
 1072YOPC   D2A15356  16.670   6.519   6.041 -0.0553  0.2063  0.2032
 1072YOPC   C3A15357  16.454   6.304   6.425 -0.1769 -0.0411 -0.0389
 1072YOPC   C4A15358  16.513   6.196   6.820 -0.0171  0.0002  0.0440
 1072YOPC   C1B15359  17.183   5.724   6.450 -0.3202 -0.0483  0.0332
 1072YOPC   C2B15360  16.999   5.516   6.848  0.1901 -0.0090  0.1522
 1072YOPC   D3B15361  17.107   5.565   7.285 -0.1797  0.1846 -0.1789
 1072YOPC   C4B15362  17.198   5.414   7.669 -0.0045 -0.1343  0.2199
 1073YOPC   NC315363   2.080  12.812   5.989  0.0313  0.0617  0.3652
 1073YOPC   PO415364   2.427  12.463   5.925  0.1598 -0.3124 -0.0835
 1073YOPC   GL115365   2.413  12.020   6.272  0.1775 -0.2464  0.1428
 1073YOPC   GL215366   2.721  11.770   6.314 -0.0748 -0.3292  0.3149
 1073YOPC   C1A15367   2.508  11.845   6.719 -0.1100  0.0900 -0.1740
 1073YOPC   D2A15368   2.516  11.770   6.992  0.1839 -0.0297  0.1427
 1073YOPC   C3A15369   2.888  11.909   7.272  0.3047 -0.0474 -0.0208
 1073YOPC   C4A15370   3.036  11.808   7.690  0.1885  0.0109 -0.2328
 1073YOPC   C1B15371   2.788  11.409   6.771  0.1085  0.0491  0.0972
 1073YOPC   C2B15372   2.972  11.354   7.162 -0.0775  0.4532  0.3415
 1073YOPC   D3B15373   2.881  11.340   7.531 -0.1177 -0.2096 -0.0110
 1073YOPC   C4B15374   3.150  11.062   7.796  0.2455 -0.0404 -0.0348
 1074YOPC   NC315375   6.290  16.400   6.325  0.0026 -0.0966  0.2622
 1074YOPC   PO415376   6.513  16.057   6.069 -0.1583  0.1787 -0.0875
 1074YOPC   GL115377   6.450  16.004   6.624  0.1805 -0.1017  0.2587
 1074YOPC   GL215378   6.218  16.145   6.840  0.1890  0.0448  0.0106
 1074YOPC   C1A15379   6.563  15.953   7.135  0.1154  0.3862 -0.0090
 1074YOPC   D2A15380   6.345  15.825   7.560 -0.0572 -0.2625 -0.1368
 1074YOPC   C3A15381   6.214  16.061   7.927 -0.0657 -0.0178  0.3226
 1074YOPC   C4A15382   6.345  16.245   8.328 -0.1711  0.0601  0.0372
 1074YOPC   C1B15383   5.994  16.131   7.318 -0.3160  0.0685  0.2375
 1074YOPC   C2B15384   5.739  16.097   7.746 -0.3448 -0.0911  0.0851
 1074YOPC   D3B15385   5.375  16.328   7.751  0.0074 -0.1851 -0.0952
 1074YOPC   C4B15386   5.092  16.413   7.473 -0.2695 -0.0926 -0.0050
 1075YOPC   NC315387   5.180   1.973   5.837  0.0362 -0.1052 -0.0267
 1075YOPC   PO415388   5.316   1.683   6.145  0.3262 -0.1519 -0.0347
 1075YOPC   GL115389   5.293   1.668   6.460  0.2656  0.0200  0.0362
 1075YOPC   GL215390   4.985   1.511   6.658  0.0997 -0.5457 -0.3811
 1075YOPC   C1A15391   5.484   1.873   6.897 -0.3990  0.0020  0.2099
 1075YOPC   D2A15392   5.598   2.232   7.113 -0.2254 -0.1107 -0.0920
 1075YOPC   C3A15393   5.946   2.371   7.316  0.1689 -0.2474 -0.0484
 1075YOPC   C4A15394   6.352   2.255   7.557  0.0368 -0.0251 -0.1622
 1075YOPC   C1B15395   4.940   1.879   6.938 -0.0448  0.2283  0.1377
 1075YOPC   C2B15396   5.005   2.251   7.122  0.1594  0.1602 -0.2236
 1075YOPC   D3B15397   5.191   2.450   7.333 -0.2287  0.4294 -0.0455
 1075YOPC   C4B15398   5.520   2.546   7.623  0.0131 -0.0451  0.0616
 1076YOPC   NC315399  13.045   2.789   4.902 -0.1188 -0.0958 -0.1587
 1076YOPC   PO415400  12.756   2.444   4.972 -0.1324 -0.0123 -0.2752
 1076YOPC   GL115401  12.745   2.812   5.321 -0.0582 -0.0382 -0.0084
 1076YOPC   GL215402  12.933   2.789   5.586 -0.1863  0.0617 -0.0465
 1076YOPC   C1A15403  12.501   3.049   5.577  0.3012 -0.1143  0.0555
 1076YOPC   D2A15404  12.353   3.181   5.967  0.1606 -0.2470 -0.1150
 1076YOPC   C3A15405  12.509   3.304   6.350  0.2451  0.1411  0.0084
 1076YOPC   C4A15406  12.428   3.336   6.800  0.0280 -0.4306 -0.0313
 1076YOPC   C1B15407  12.645   2.631   5.966 -0.0273 -0.1580 -0.1046
 1076YOPC   C2B15408  12.444   2.770   6.322  0.2354  0.1903 -0.2672
 1076YOPC   D3B15409  12.018   3.082   6.346 -0.0925 -0.1383  0.2603
 1076YOPC   C4B15410  12.015   3.511   6.546 -0.1689  0.3276 -0.0233
 1077YOPC   NC315411  13.452   5.671   5.115  0.2496 -0.0934  0.0930
 1077YOPC   PO415412  13.691   5.342   5.252 -0.2414  0.1540  0.0232
 1077YOPC   GL115413  13.828   5.394   5.726 -0.1090 -0.1006 -0.0585
 1077YOPC   GL215414  14.090   5.348   5.881 -0.0511 -0.0210 -0.1263
 1077YOPC   C1A15415  13.710   5.580   6.111 -0.1018  0.0744 -0.1752
 1077YOPC   D2A15416  13.579   5.880   6.330  0.0914  0.3241  0.0026
 1077YOPC   C3A15417  13.635   6.033   6.704 -0.1847 -0.1310  0.0187
 1077YOPC   C4A15418  13.945   6.197   7.044  0.2224  0.1198 -0.2619
 1077YOPC   C1B15419  14.080   5.236   6.293  0.0146 -0.1212 -0.2739
 1077YOPC   C2B15420  14.338   5.175   6.606  0.1738 -0.1569 -0.0012
 1077YOPC   D3B15421  14.286   5.533   7.005 -0.2070 -0.1250 -0.2773
 1077YOPC   C4B15422  14.583   5.582   7.396 -0.1061 -0.2365 -0.0521
 1078YOPC   NC315423   8.187  16.057   6.083 -0.1853 -0.3034 -0.2042
 1078YOPC   PO415424   8.384  15.717   6.173  0.1025 -0.2363 -0.0510
 1078YOPC   GL115425   8.340  15.384   6.403 -0.2150  0.1122 -0.0303
 1078YOPC   GL215426   8.521  15.090   6.482  0.0680 -0.0866  0.2133
 1078YOPC   C1A15427   8.260  15.388   6.853 -0.2062 -0.0292  0.1126
 1078YOPC   D2A15428   8.439  15.307   7.194  0.1345  0.1356  0.5143
 1078YOPC   C3A15429   8.563  15.670   7.445 -0.0258 -0.4902 -0.0708
 1078YOPC   C4A15430   8.718  16.088   7.725  0.0797 -0.1171 -0.2613
 1078YOPC   C1B15431   8.718  15.120   6.779  0.1253 -0.3465  0.0472
 1078YOPC   C2B15432   8.912  15.032   7.075  0.2559 -0.0548 -0.2109
 1078YOPC   D3B15433   8.841  15.152   7.552  0.0217  0.2966 -0.4863
 1078YOPC   C4B15434   8.837  14.890   7.910  0.0746  0.0879 -0.1933
 1079YOPC   NC315435  14.973  15.681   6.084 -0.2196  0.0655  0.2855
 1079YOPC   PO415436  14.624  15.774   6.134 -0.2812 -0.2515 -0.0048
 1079YOPC   GL115437  14.653  15.748   6.550 -0.0970  0.3571 -0.0910
 1079YOPC   GL215438  14.854  15.448   6.577 -0.0111 -0.0006  0.3792
 1079YOPC   C1A15439  14.761  15.718   7.047  0.2323  0.0607 -0.3293
 1079YOPC   D2A15440  14.847  15.775   7.443  0.0336 -0.1811  0.2396
 1079YOPC   C3A15441  15.333  15.788   7.513 -0.2362 -0.2440  0.2187
 1079YOPC   C4A15442  15.596  15.904   7.311  0.0309 -0.0053 -0.0479
 1079YOPC   C1B15443  14.538  15.204   6.710  0.0446 -0.0724  0.3756
 1079YOPC   C2B15444  14.199  15.121   7.088 -0.4051  0.1159  0.3338
 1079YOPC   D3B15445  14.117  14.978   7.406 -0.2701 -0.2401  0.2657
 1079YOPC   C4B15446  13.885  14.910   7.792  0.2056 -0.2263  0.2692
 1080YOPC   NC315447  11.735   3.565   5.004  0.4411  0.0610  0.1005
 1080YOPC   PO415448  11.366   3.648   5.300  0.1479  0.0365 -0.0380
 1080YOPC   GL115449  11.433   3.421   5.760 -0.1770 -0.0753  0.1496
 1080YOPC   GL215450  11.212   3.621   6.028 -0.1178  0.1415  0.0790
 1080YOPC   C1A15451  11.562   3.343   6.169 -0.0199 -0.0195  0.0418
 1080YOPC   D2A15452  11.613   3.153   6.631 -0.1044 -0.3746  0.0258
 1080YOPC   C3A15453  11.881   3.117   6.984 -0.3425 -0.0385 -0.2723
 1080YOPC   C4A15454  12.169   3.294   7.334  0.1934 -0.0507 -0.1084
 1080YOPC   C1B15455  11.465   3.774   6.380  0.2307 -0.0675  0.0937
 1080YOPC   C2B15456  11.756   4.072   6.590 -0.2474  0.3561 -0.0319
 1080YOPC   D3B15457  11.784   4.085   7.023 -0.0199  0.1846  0.0625
 1080YOPC   C4B15458  11.706   4.362   7.439 -0.0418  0.3514 -0.1445
 1081YOPC   NC315459   8.436   3.916   5.345 -0.0296 -0.3033  0.0904
 1081YOPC   PO415460   8.686   3.650   5.497 -0.0653 -0.2260 -0.2048
 1081YOPC   GL115461   8.592   3.532   5.971 -0.0776  0.0424 -0.1895
 1081YOPC   GL215462   8.771   3.556   6.242  0.0142 -0.0787  0.2876
 1081YOPC   C1A15463   8.393   3.846   6.233  0.0256  0.3414 -0.3279
 1081YOPC   D2A15464   8.291   3.852   6.559  0.0006  0.3202  0.2395
 1081YOPC   C3A15465   8.423   4.163   6.807 -0.3023  0.1481  0.0615
 1081YOPC   C4A15466   8.554   4.370   7.126 -0.1201 -0.2596  0.1186
 1081YOPC   C1B15467   8.799   3.616   6.663  0.0366 -0.0189  0.0492
 1081YOPC   C2B15468   8.679   3.646   7.068 -0.0494  0.2573 -0.2088
 1081YOPC   D3B15469   8.570   3.537   7.549  0.0419 -0.7319 -0.0891
 1081YOPC   C4B15470   8.404   3.284   7.873  0.1787  0.1619 -0.3592
 1082YOPC   NC315471  12.196   6.120   4.720 -0.2777  0.1439 -0.2198
 1082YOPC   PO415472  11.923   6.329   4.889  0.0604 -0.1691  0.1447
 1082YOPC   GL115473  11.913   6.498   5.316 -0.0231 -0.1104  0.2887
 1082YOPC   GL215474  11.831   6.231   5.508  0.1737 -0.0784 -0.0552
 1082YOPC   C1A15475  11.895   6.605   5.753 -0.1065 -0.1444 -0.3109
 1082YOPC   D2A15476  11.941   6.599   6.225 -0.2407  0.1693  0.0150
 1082YOPC   C3A15477  11.939   6.443   6.583  0.0467  0.0206  0.0514
 1082YOPC   C4A15478  11.884   6.477   7.062  0.2057  0.1503 -0.0830
 1082YOPC   C1B15479  11.743   6.122   5.935 -0.3998 -0.1384 -0.0705
 1082YOPC   C2B15480  11.588   6.146   6.346 -0.3374 -0.1355  0.1338
 1082YOPC   D3B15481  11.614   5.888   6.722  0.2025 -0.0289 -0.0415
 1082YOPC   C4B15482  11.546   5.624   7.101  0.0914 -0.0282  0.2850
 1083YOPC   NC315483  15.501   9.772   5.316 -0.1753 -0.2172  0.1233
 1083YOPC   PO415484  15.488  10.271   5.317  0.0993 -0.1541  0.2909
 1083YOPC   GL115485  15.722  10.195   5.660 -0.0538 -0.0223  0.2484
 1083YOPC   GL215486  15.874   9.859   5.804  0.0053 -0.1570 -0.1117
 1083YOPC   C1A15487  15.856  10.405   5.900  0.0685 -0.0300 -0.2103
 1083YOPC   D2A15488  16.053  10.818   6.092 -0.1206  0.0559 -0.0197
 1083YOPC   C3A15489  15.903  10.822   6.516 -0.0770 -0.0155 -0.1204
 1083YOPC   C4A15490  15.832  10.633   6.884 -0.0998  0.0312  0.0840
 1083YOPC   C1B15491  16.092   9.902   6.154  0.1240  0.2289  0.0113
 1083YOPC   C2B15492  15.995  10.322   6.417 -0.0373 -0.2561 -0.0426
 1083YOPC   D3B15493  16.223  10.465   6.700 -0.1827 -0.0692  0.0687
 1083YOPC   C4B15494  16.293  10.470   7.110  0.0796  0.1124  0.0124
 1084YOPC   NC315495  10.132  16.256   6.074  0.2265 -0.0357  0.1681
 1084YOPC   PO415496  10.387  15.988   5.804 -0.0474  0.1919  0.0624
 1084YOPC   GL115497  10.594  15.786   6.168  0.1030 -0.2995  0.1217
 1084YOPC   GL215498  10.308  15.871   6.283  0.0154  0.1875 -0.0319
 1084YOPC   C1A15499  10.551  15.684   6.748  0.1496 -0.0529 -0.0094
 1084YOPC   D2A15500  10.320  15.496   7.147 -0.1546  0.3189  0.2913
 1084YOPC   C3A15501  10.367  15.051   7.285 -0.1258  0.0945 -0.0199
 1084YOPC   C4A15502  10.657  14.863   7.574 -0.1547  0.1796 -0.1076
 1084YOPC   C1B15503  10.499  16.151   6.607 -0.2983  0.2973  0.0332
 1084YOPC   C2B15504  10.586  16.193   6.933  0.0248  0.0033 -0.2814
 1084YOPC   D3B15505  10.572  15.902   7.296 -0.0601  0.0949 -0.1021
 1084YOPC   C4B15506  10.421  15.880   7.685 -0.0749 -0.0065 -0.3107
 1085YOPC   NC315507   0.321   7.614   5.263 -0.0044  0.5693  0.0457
 1085YOPC   PO415508   0.580   7.323   5.478  0.0793  0.0012 -0.1785
 1085YOPC   GL115509   0.725   7.266   5.904 -0.0585  0.2078 -0.1035
 1085YOPC   GL215510   0.456   7.360   6.043 -0.2073 -0.1328  0.0518
 1085YOPC   C1A15511   0.853   6.966   6.216  0.0925 -0.1151 -0.0732
 1085YOPC   D2A15512   1.242   6.832   6.416 -0.1102  0.0420 -0.3037
 1085YOPC   C3A15513   1.226   6.896   6.811 -0.0180 -0.1290 -0.1917
 1085YOPC   C4A15514   1.418   7.116   7.256  0.0683  0.0118 -0.0160
 1085YOPC   C1B15515   0.510   7.351   6.568 -0.2560  0.0516  0.2030
 1085YOPC   C2B15516   0.541   7.459   7.037  0.0846  0.1595 -0.0700
 1085YOPC   D3B15517   0.466   7.266   7.425 -0.0512 -0.2320 -0.1064
 1085YOPC   C4B15518   0.258   7.041   7.906  0.2988  0.1562 -0.0869
 1086YOPC   NC315519   2.114  15.021   6.257 -0.0968 -0.0448  0.0330
 1086YOPC   PO415520   1.739  15.144   6.131 -0.1370  0.3433 -0.1080
 1086YOPC   GL115521   1.720  14.898   6.563 -0.0581 -0.0843  0.0341
 1086YOPC   GL215522   2.004  14.694   6.623  0.0472 -0.2422 -0.1054
 1086YOPC   C1A15523   1.380  14.924   6.880 -0.3201  0.1793 -0.2412
 1086YOPC   D2A15524   1.469  14.845   7.281  0.1734 -0.0792 -0.0081
 1086YOPC   C3A15525   1.358  15.070   7.571  0.2615 -0.2219  0.1895
 1086YOPC   C4A15526   1.336  15.412   7.694 -0.1161  0.1334  0.1369
 1086YOPC   C1B15527   2.042  14.725   7.091 -0.1577 -0.0573  0.0535
 1086YOPC   C2B15528   1.956  14.715   7.472  0.0945  0.1092 -0.1124
 1086YOPC   D3B15529   2.316  14.581   7.817 -0.0103 -0.0582 -0.1365
 1086YOPC   C4B15530   2.738  14.556   8.003 -0.0554  0.1594 -0.0557
 1087YOPC   NC315531  10.052   1.942   5.408 -0.1803  0.0490  0.0376
 1087YOPC   PO415532  10.389   2.195   5.487  0.3887  0.0239  0.2162
 1087YOPC   GL115533  10.506   2.207   5.924 -0.0561  0.0656  0.0007
 1087YOPC   GL215534  10.791   1.994   6.118 -0.0771 -0.2597  0.2461
 1087YOPC   C1A15535  10.500   2.451   6.238 -0.0713 -0.3358  0.1298
 1087YOPC   D2A15536  10.408   2.586   6.712  0.2808  0.0459  0.0494
 1087YOPC   C3A15537  10.697   2.470   7.052 -0.4778  0.1261  0.1359
 1087YOPC   C4A15538  11.094   2.578   7.113 -0.0911 -0.1753  0.0899
 1087YOPC   C1B15539  11.150   1.873   6.353 -0.1915 -0.1918 -0.0362
 1087YOPC   C2B15540  11.351   1.924   6.782 -0.1381  0.1064 -0.1037
 1087YOPC   D3B15541  11.227   2.007   7.080 -0.1216  0.0673  0.1072
 1087YOPC   C4B15542  11.042   2.203   7.436 -0.1604 -0.1037  0.0614
 1088YOPC   NC315543   5.864  17.111   6.770 -0.4431  0.1956  0.2120
 1088YOPC   PO415544   6.164  16.990   6.474  0.2292  0.0342 -0.1107
 1088YOPC   GL115545   6.243  16.680   6.807 -0.4164  0.0883  0.0067
 1088YOPC   GL215546   5.887  16.616   6.913 -0.1997  0.0863  0.1813
 1088YOPC   C1A15547   6.319  16.550   7.184 -0.3471 -0.0612 -0.1712
 1088YOPC   D2A15548   6.511  16.310   7.492  0.1917 -0.4444  0.0610
 1088YOPC   C3A15549   6.642  16.420   7.940  0.0026  0.0724  0.0151
 1088YOPC   C4A15550   6.834  16.208   8.257  0.0450 -0.0392  0.0104
 1088YOPC   C1B15551   5.759  16.578   7.320 -0.2591 -0.2878 -0.0876
 1088YOPC   C2B15552   5.976  16.606   7.727  0.0230 -0.0947  0.0242
 1088YOPC   D3B15553   5.890  16.414   8.061 -0.1408  0.0226 -0.0989
 1088YOPC   C4B15554   5.754  16.495   8.533 -0.3039 -0.3224 -0.3445
 1089YOPC   NC315555   9.633   8.830   5.017  0.1332 -0.4246  0.0190
 1089YOPC   PO415556   9.618   8.766   5.481  0.0516  0.0117 -0.1667
 1089YOPC   GL115557   9.544   8.642   5.806  0.0324  0.0566 -0.1240
 1089YOPC   GL215558   9.262   8.400   5.790  0.2605 -0.1215  0.4143
 1089YOPC   C1A15559   9.491   8.896   6.186 -0.0713 -0.1884  0.0347
 1089YOPC   D2A15560   9.722   8.852   6.544  0.0240  0.0616  0.2870
 1089YOPC   C3A15561   9.602   8.827   6.952 -0.1179  0.3095 -0.0240
 1089YOPC   C4A15562   9.665   8.546   7.435  0.0207 -0.2570 -0.0251
 1089YOPC   C1B15563   9.210   8.482   6.225  0.1118  0.3692 -0.2593
 1089YOPC   C2B15564   9.240   8.651   6.609 -0.1202  0.0620 -0.1679
 1089YOPC   D3B15565   9.089   8.308   6.943 -0.1872 -0.1165  0.1951
 1089YOPC   C4B15566   8.878   8.458   7.319 -0.0947 -0.2546  0.1973
 1090YOPC   NC315567   1.940  16.843   5.413 -0.0507 -0.0385  0.0313
 1090YOPC   PO415568   1.873  16.511   5.735  0.0073 -0.0560  0.1411
 1090YOPC   GL115569   1.804  16.533   6.212 -0.3056 -0.2165 -0.1048
 1090YOPC   GL215570   1.826  16.239   6.281 -0.3925 -0.1217 -0.2349
 1090YOPC   C1A15571   2.113  16.607   6.539 -0.0904  0.1412 -0.1345
 1090YOPC   D2A15572   2.263  16.779   6.872  0.3514  0.2321  0.0660
 1090YOPC   C3A15573   2.130  16.997   7.144  0.3008 -0.2131  0.1336
 1090YOPC   C4A15574   2.262  17.426   7.375 -0.0304  0.0315 -0.2346
 1090YOPC   C1B15575   1.680  16.221   6.709  0.0948 -0.2208 -0.0065
 1090YOPC   C2B15576   1.597  16.104   7.166  0.1790  0.2426 -0.0797
 1090YOPC   D3B15577   1.918  16.243   7.441  0.6004  0.0589  0.0571
 1090YOPC   C4B15578   1.957  16.012   7.926  0.1355 -0.1109  0.1224
 1091YOPC   NC315579  17.764  14.674   5.836  0.0945  0.4131  0.1933
 1091YOPC   PO415580  17.527  14.258   5.652  0.0921  0.2085 -0.3110
 1091YOPC   GL115581  17.381  14.102   6.013 -0.0123  0.0150  0.1177
 1091YOPC   GL215582  17.382  14.402   6.248 -0.2170  0.4428  0.0886
 1091YOPC   C1A15583  17.320  14.008   6.572  0.3276 -0.1234 -0.1811
 1091YOPC   D2A15584  17.291  14.010   6.990  0.3834 -0.0693 -0.0972
 1091YOPC   C3A15585  17.387  14.284   7.329  0.0882  0.3962 -0.0565
 1091YOPC   C4A15586  17.485  14.213   7.695  0.0472  0.3029  0.0879
 1091YOPC   C1B15587  17.080  14.403   6.667  0.0079  0.0217 -0.3000
 1091YOPC   C2B15588  16.914  14.392   7.066 -0.0436 -0.0212  0.1361
 1091YOPC   D3B15589  16.963  14.637   7.387 -0.4370  0.2365 -0.0769
 1091YOPC   C4B15590  16.701  14.744   7.764 -0.3888  0.2494 -0.1613
 1092YOPC   NC315591  12.771   4.543   5.426 -0.2488 -0.1115 -0.2801
 1092YOPC   PO415592  12.543   4.202   5.316 -0.0062  0.1611 -0.1171
 1092YOPC   GL115593  12.444   3.877   5.512  0.0629  0.0915 -0.4083
 1092YOPC   GL215594  12.259   3.870   5.683 -0.2364  0.1522  0.3533
 1092YOPC   C1A15595  12.623   3.522   5.604 -0.0413  0.0029 -0.1176
 1092YOPC   D2A15596  12.963   3.226   5.745  0.0527  0.4254 -0.1207
 1092YOPC   C3A15597  12.935   2.931   6.160 -0.1899  0.4205 -0.1454
 1092YOPC   C4A15598  13.294   2.954   6.510  0.3427 -0.1261 -0.2190
 1092YOPC   C1B15599  12.279   3.898   6.136 -0.1186  0.1123 -0.4037
 1092YOPC   C2B15600  12.231   3.961   6.621  0.0931  0.4188  0.0217
 1092YOPC   D3B15601  12.612   3.815   6.812 -0.2845 -0.1867  0.1705
 1092YOPC   C4B15602  12.987   3.803   6.768  0.2560 -0.0128 -0.4045
 1093YOPC   NC315603   9.201   5.998   4.798  0.0941 -0.2473 -0.0106
 1093YOPC   PO415604   9.062   6.059   5.230  0.0383  0.0158  0.1730
 1093YOPC   GL115605   9.300   6.000   5.590 -0.0937  0.0095 -0.2326
 1093YOPC   GL215606   9.557   5.669   5.677 -0.0229  0.2809 -0.1545
 1093YOPC   C1A15607   9.294   5.955   5.966 -0.1415 -0.2276  0.4506
 1093YOPC   D2A15608   9.544   5.708   6.195 -0.0356 -0.2186  0.1276
 1093YOPC   C3A15609   9.602   5.574   6.524  0.1312  0.1226  0.0037
 1093YOPC   C4A15610   9.929   5.512   6.791 -0.0605  0.1596  0.5817
 1093YOPC   C1B15611   9.935   5.614   5.885 -0.2863 -0.2912 -0.2099
 1093YOPC   C2B15612  10.118   5.781   6.311  0.1213  0.0356 -0.1336
 1093YOPC   D3B15613   9.893   5.976   6.707 -0.0665 -0.0545 -0.0203
 1093YOPC   C4B15614   9.977   6.190   7.180  0.0656  0.2439 -0.0920
 1094YOPC   NC315615  17.799  12.109   5.481 -0.0541 -0.2110 -0.2185
 1094YOPC   PO415616  18.142  11.991   5.410 -0.1873 -0.1423 -0.0511
 1094YOPC   GL115617  18.193  12.035   5.882  0.2806 -0.2217  0.0571
 1094YOPC   GL215618  18.121  11.783   5.947  0.0495 -0.1812 -0.0913
 1094YOPC   C1A15619  18.121  12.217   6.242  0.0903  0.3245  0.0187
 1094YOPC   D2A15620  18.179  12.076   6.667 -0.3342 -0.3363  0.0136
 1094YOPC   C3A15621  18.001  12.275   7.118  0.1827  0.0655  0.0827
 1094YOPC   C4A15622  17.808  12.358   7.630  0.2005 -0.1406 -0.0574
 1094YOPC   C1B15623  18.085  11.691   6.359  0.0262  0.0625 -0.0045
 1094YOPC   C2B15624  18.157  11.339   6.489 -0.1251 -0.1554  0.1922
 1094YOPC   D3B15625  17.983  11.242   6.755 -0.4963 -0.3219  0.2164
 1094YOPC   C4B15626  18.038  11.049   7.047  0.1642 -0.1107  0.0865
 1095YOPC   NC315627   5.198   1.194   6.323  0.0429  0.0843  0.0851
 1095YOPC   PO415628   5.626   1.221   6.264 -0.1011 -0.0967 -0.0190
 1095YOPC   GL115629   5.472   1.276   6.724  0.0361 -0.1831  0.1678
 1095YOPC   GL215630   5.180   1.068   6.833 -0.0154 -0.1069 -0.2095
 1095YOPC   C1A15631   5.261   1.450   7.112  0.0599 -0.2769  0.1022
 1095YOPC   D2A15632   5.156   1.787   7.397  0.0392  0.2480 -0.0379
 1095YOPC   C3A15633   5.107   1.877   7.855 -0.0954 -0.2445  0.0875
 1095YOPC   C4A15634   5.087   1.799   8.219 -0.2917  0.0174 -0.0106
 1095YOPC   C1B15635   5.022   1.057   7.307 -0.2188  0.2130 -0.1047
 1095YOPC   C2B15636   4.993   0.873   7.675 -0.1729 -0.2036 -0.1761
 1095YOPC   D3B15637   5.446   0.734   7.844  0.2719 -0.1704 -0.0999
 1095YOPC   C4B15638   5.871   0.826   7.865  0.1412  0.1797  0.0137
 1096YOPC   NC315639   5.122  12.783   6.010 -0.0754  0.1362  0.0705
 1096YOPC   PO415640   5.092  12.270   5.952 -0.1098  0.1110  0.2467
 1096YOPC   GL115641   4.998  12.325   6.421 -0.0620  0.3569  0.2798
 1096YOPC   GL215642   4.741  12.636   6.494 -0.2608 -0.0301  0.2159
 1096YOPC   C1A15643   5.097  12.314   6.853  0.1119  0.3532 -0.0243
 1096YOPC   D2A15644   5.230  12.460   7.203 -0.0334  0.0204 -0.4622
 1096YOPC   C3A15645   5.654  12.339   7.277  0.2305  0.0394 -0.1896
 1096YOPC   C4A15646   5.920  12.471   7.644 -0.0510  0.1913 -0.0135
 1096YOPC   C1B15647   4.653  12.502   6.856  0.0648 -0.3120  0.3627
 1096YOPC   C2B15648   4.681  12.465   7.259 -0.2487 -0.0244 -0.2943
 1096YOPC   D3B15649   5.026  12.333   7.626  0.0327 -0.1334 -0.1847
 1096YOPC   C4B15650   5.106  12.074   8.115  0.0899 -0.2091  0.2419
 1097YOPC   NC315651   3.704   0.662   6.664 -0.0704 -0.0312 -0.0182
 1097YOPC   PO415652   3.398   0.333   6.519 -0.1708  0.0085  0.2672
 1097YOPC   GL115653   3.330   0.154   6.898 -0.0686 -0.0487 -0.0104
 1097YOPC   GL215654   3.653   0.172   7.017  0.1851  0.1082 -0.2357
 1097YOPC   C1A15655   3.293  -0.103   7.346 -0.0628  0.0492  0.2022
 1097YOPC   D2A15656   3.563  -0.435   7.517 -0.0883  0.1576  0.0366
 1097YOPC   C3A15657   3.658  -0.479   7.830 -0.1649  0.2972  0.5358
 1097YOPC   C4A15658   4.029  -0.652   8.024  0.2265  0.1016 -0.1276
 1097YOPC   C1B15659   3.653   0.408   7.400 -0.0749  0.0344 -0.1461
 1097YOPC   C2B15660   3.670   0.494   7.843  0.1623  0.1705  0.2829
 1097YOPC   D3B15661   3.503   0.827   8.121  0.1455  0.0522 -0.0969
 1097YOPC   C4B15662   3.369   0.816   8.518  0.0071  0.2564 -0.0112
 1098YOPC   NC315663   7.533   7.413   5.179  0.3322  0.0984  0.2970
 1098YOPC   PO415664   7.676   7.706   5.226 -0.1404 -0.1167 -0.0527
 1098YOPC   GL115665   7.668   7.676   5.601  0.0256 -0.1713 -0.0819
 1098YOPC   GL215666   7.581   7.392   5.750  0.0495 -0.3459  0.1493
 1098YOPC   C1A15667   7.801   7.817   5.987  0.1240 -0.2919 -0.0390
 1098YOPC   D2A15668   8.083   7.827   6.215  0.3686  0.2730  0.4814
 1098YOPC   C3A15669   8.061   7.887   6.636  0.1663  0.0166  0.2323
 1098YOPC   C4A15670   8.000   8.043   6.951  0.4992 -0.0379 -0.2918
 1098YOPC   C1B15671   7.913   7.370   6.076  0.1852 -0.0464  0.0644
 1098YOPC   C2B15672   8.264   7.040   6.038 -0.0133 -0.1047 -0.0043
 1098YOPC   D3B15673   8.451   6.993   6.298 -0.1670 -0.0365  0.1181
 1098YOPC   C4B15674   8.583   7.106   6.667  0.1518  0.0439  0.0865
 1099YOPC   NC315675  17.693   9.671   5.416  0.2688  0.0676 -0.0402
 1099YOPC   PO415676  17.329   9.504   5.197  0.1144 -0.0243 -0.0587
 1099YOPC   GL115677  17.217   9.681   5.555 -0.0065  0.0067  0.0472
 1099YOPC   GL215678  16.860   9.533   5.604 -0.1555 -0.0515 -0.2329
 1099YOPC   C1A15679  17.249   9.561   5.992 -0.1400  0.2788  0.3429
 1099YOPC   D2A15680  17.313   9.559   6.346 -0.0160  0.0485 -0.2063
 1099YOPC   C3A15681  17.392   9.253   6.567 -0.1431 -0.1069 -0.0062
 1099YOPC   C4A15682  17.661   9.085   6.749 -0.0108  0.1099 -0.0548
 1099YOPC   C1B15683  16.773   9.684   6.113 -0.2519 -0.2708  0.2101
 1099YOPC   C2B15684  16.823   9.704   6.553 -0.0350 -0.0387  0.3164
 1099YOPC   D3B15685  17.016  10.068   6.593 -0.1121 -0.0035 -0.1080
 1099YOPC   C4B15686  17.124  10.057   6.175 -0.1968 -0.2334 -0.0617
 1100YOPC   NC315687   0.650  13.846   5.659 -0.0338 -0.1240 -0.0053
 1100YOPC   PO415688   0.829  14.102   5.955 -0.0277 -0.0921  0.0965
 1100YOPC   GL115689   0.886  13.957   6.347 -0.0714 -0.0562  0.1232
 1100YOPC   GL215690   0.460  13.775   6.398 -0.3036  0.0383 -0.2252
 1100YOPC   C1A15691   1.318  13.919   6.640  0.0458 -0.0595 -0.1360
 1100YOPC   D2A15692   1.661  14.118   6.630 -0.1218 -0.1753 -0.2711
 1100YOPC   C3A15693   1.715  14.395   6.958  0.1598 -0.4501  0.0399
 1100YOPC   C4A15694   1.592  14.359   7.369 -0.2009 -0.1118 -0.0551
 1100YOPC   C1B15695   0.353  13.817   6.797 -0.0915  0.1005 -0.0664
 1100YOPC   C2B15696   0.455  13.842   7.142  0.1219 -0.0459 -0.3211
 1100YOPC   D3B15697   0.544  13.868   7.600 -0.2768  0.3830 -0.2547
 1100YOPC   C4B15698   0.562  13.559   7.915  0.3137 -0.3431  0.0668
 1101YOPC   NC315699   3.121   6.543   5.519 -0.2352 -0.0666  0.2143
 1101YOPC   PO415700   3.182   6.787   6.005 -0.0340  0.1625  0.0822
 1101YOPC   GL115701   3.087   7.057   6.390  0.0318  0.1192  0.0109
 1101YOPC   GL215702   3.409   7.055   6.525 -0.0846  0.1937 -0.0437
 1101YOPC   C1A15703   2.963   7.014   6.859 -0.3568 -0.0100  0.0085
 1101YOPC   D2A15704   2.977   7.281   7.219  0.1865 -0.1053 -0.0050
 1101YOPC   C3A15705   2.824   7.366   7.627  0.1581 -0.0200  0.0541
 1101YOPC   C4A15706   3.169   7.465   7.996 -0.0232  0.0493 -0.2995
 1101YOPC   C1B15707   3.376   6.814   6.997  0.0317 -0.1211 -0.0603
 1101YOPC   C2B15708   3.307   6.747   7.434  0.3200 -0.2635 -0.0386
 1101YOPC   D3B15709   3.392   7.128   7.503  0.1162 -0.0788 -0.1282
 1101YOPC   C4B15710   3.581   7.322   7.794 -0.1080 -0.0970  0.2902
 1102YOPC   NC315711   7.255  13.118   6.225  0.3566  0.2392  0.0133
 1102YOPC   PO415712   7.061  12.791   6.094  0.2613  0.0828  0.0410
 1102YOPC   GL115713   7.301  12.673   6.507  0.1018 -0.2177  0.0366
 1102YOPC   GL215714   7.316  12.943   6.695 -0.2617 -0.0224 -0.0996
 1102YOPC   C1A15715   7.154  12.541   7.016  0.0681 -0.0635 -0.1713
 1102YOPC   D2A15716   7.454  12.183   7.115 -0.1513  0.0069 -0.1888
 1102YOPC   C3A15717   7.620  11.965   7.508  0.0036 -0.4512  0.1464
 1102YOPC   C4A15718   7.679  11.564   7.687  0.1495 -0.1018 -0.1006
 1102YOPC   C1B15719   7.491  13.005   7.055  0.1852 -0.2225 -0.2151
 1102YOPC   C2B15720   7.375  12.966   7.356  0.0269  0.1589 -0.1992
 1102YOPC   D3B15721   7.232  12.630   7.511 -0.3762  0.0004 -0.0621
 1102YOPC   C4B15722   7.253  12.219   7.726 -0.1582 -0.2388 -0.0560
 1103YOPC   NC315723   3.188   5.544   5.822  0.1559 -0.0056 -0.2304
 1103YOPC   PO415724   2.819   5.775   5.845 -0.0103 -0.1650  0.0454
 1103YOPC   GL115725   3.015   5.944   6.191  0.0449  0.0477 -0.0245
 1103YOPC   GL215726   2.717   6.215   6.297 -0.0063 -0.0145 -0.0414
 1103YOPC   C1A15727   3.128   6.008   6.616 -0.2042  0.1303  0.1828
 1103YOPC   D2A15728   3.334   6.306   6.996  0.1811  0.2348 -0.1493
 1103YOPC   C3A15729   3.109   6.353   7.392  0.0133  0.1725 -0.1416
 1103YOPC   C4A15730   3.115   6.377   7.850  0.2975 -0.1335  0.0035
 1103YOPC   C1B15731   2.454   6.067   6.592 -0.3781 -0.3345 -0.3453
 1103YOPC   C2B15732   2.384   6.149   7.016 -0.2142 -0.0419  0.1014
 1103YOPC   D3B15733   2.408   6.442   7.172  0.0334  0.1043 -0.0361
 1103YOPC   C4B15734   2.547   6.537   7.580  0.2176  0.0246 -0.1523
 1104YOPC   NC315735  16.269   8.672   5.589  0.0387  0.0869  0.3449
 1104YOPC   PO415736  16.446   9.060   5.529 -0.0554  0.0645 -0.1859
 1104YOPC   GL115737  16.463   9.122   5.899 -0.1096  0.0062 -0.5553
 1104YOPC   GL215738  16.763   9.209   6.082 -0.1877  0.0473 -0.1071
 1104YOPC   C1A15739  16.353   9.492   6.242  0.2540  0.0197  0.0569
 1104YOPC   D2A15740  16.037   9.640   6.617  0.3818 -0.3565 -0.3989
 1104YOPC   C3A15741  16.143   9.608   7.059  0.0845  0.1120 -0.0717
 1104YOPC   C4A15742  16.506   9.447   7.172 -0.3001  0.0075  0.2511
 1104YOPC   C1B15743  16.914   9.234   6.471 -0.1430 -0.0518 -0.3768
 1104YOPC   C2B15744  16.944   9.271   6.852 -0.0871 -0.4004 -0.6027
 1104YOPC   D3B15745  17.229   9.634   6.813  0.0918  0.0751 -0.1448
 1104YOPC   C4B15746  17.671   9.594   6.902 -0.2067  0.1255 -0.1274
 1105YOPC   NC315747   5.611   9.680   5.807  0.0284 -0.3209 -0.4163
 1105YOPC   PO415748   6.145   9.695   5.837 -0.1259 -0.2718  0.2146
 1105YOPC   GL115749   5.969   9.586   6.159  0.0607 -0.2986 -0.1365
 1105YOPC   GL215750   6.134   9.406   6.262 -0.0555  0.4571  0.1101
 1105YOPC   C1A15751   5.730   9.359   6.445 -0.0515  0.1145  0.1423
 1105YOPC   D2A15752   5.352   9.529   6.711 -0.0877  0.2382 -0.2710
 1105YOPC   C3A15753   5.373   9.511   7.078 -0.3269  0.0454 -0.2687
 1105YOPC   C4A15754   5.460   9.112   7.363 -0.3844 -0.1615  0.0396
 1105YOPC   C1B15755   6.254   9.428   6.646 -0.0450 -0.0255 -0.0024
 1105YOPC   C2B15756   6.426   9.368   7.035  0.1833  0.1649 -0.4243
 1105YOPC   D3B15757   6.225   8.999   7.201  0.0830 -0.4979  0.0238
 1105YOPC   C4B15758   6.299   8.666   7.053 -0.2461 -0.0965 -0.1346
 1106YOPC   NC315759   4.081   8.247   5.592  0.1631 -0.0336  0.1626
 1106YOPC   PO415760   4.193   8.718   5.744  0.0815  0.4717  0.3431
 1106YOPC   GL115761   4.519   8.707   6.106 -0.1271 -0.1079 -0.1252
 1106YOPC   GL215762   4.618   9.022   6.101 -0.1416  0.0336  0.0201
 1106YOPC   C1A15763   4.518   8.585   6.557  0.3245 -0.2070 -0.3834
 1106YOPC   D2A15764   4.684   8.724   6.995 -0.3377 -0.1103 -0.1395
 1106YOPC   C3A15765   4.665   8.539   7.370 -0.0729  0.2219 -0.4107
 1106YOPC   C4A15766   4.618   8.163   7.590  0.2488 -0.0857 -0.4356
 1106YOPC   C1B15767   4.776   9.156   6.476  0.1172 -0.0402 -0.1076
 1106YOPC   C2B15768   4.936   9.302   6.899 -0.0064 -0.2544 -0.0814
 1106YOPC   D3B15769   4.951   9.299   7.320 -0.0844 -0.1244  0.0208
 1106YOPC   C4B15770   5.194   9.507   7.608  0.0509 -0.0968 -0.0134
 1107YOPC   NC315771   2.042   7.259   5.501 -0.1103  0.3129  0.3505
 1107YOPC   PO415772   2.058   7.463   5.803  0.0064 -0.0621 -0.0793
 1107YOPC   GL115773   2.030   7.278   6.127  0.0268 -0.4045 -0.0714
 1107YOPC   GL215774   2.043   7.414   6.367  0.2669 -0.2730  0.1015
 1107YOPC   C1A15775   2.224   6.994   6.409  0.0283  0.0081 -0.2039
 1107YOPC   D2A15776   2.465   7.127   6.748  0.1035  0.2476  0.0264
 1107YOPC   C3A15777   2.429   6.983   7.181  0.0151 -0.0558  0.1462
 1107YOPC   C4A15778   2.405   6.993   7.560 -0.0575  0.1442 -0.2804
 1107YOPC   C1B15779   2.225   7.569   6.687  0.0456  0.2024  0.1953
 1107YOPC   C2B15780   2.467   7.942   6.790  0.1072  0.0946  0.0084
 1107YOPC   D3B15781   2.945   7.939   6.701 -0.0591 -0.1704  0.5318
 1107YOPC   C4B15782   3.427   7.999   6.787  0.0190 -0.1945 -0.1516
 1108YOPC   NC315783   9.216  15.668   5.667 -0.0891  0.0083 -0.1456
 1108YOPC   PO415784   9.215  15.368   6.056 -0.0375  0.0553 -0.1138
 1108YOPC   GL115785   9.084  15.084   6.455  0.1448  0.0194 -0.3602
 1108YOPC   GL215786   8.968  14.790   6.531  0.0401 -0.2169  0.1465
 1108YOPC   C1A15787   9.293  15.194   6.820 -0.1212  0.0750 -0.0585
 1108YOPC   D2A15788   9.345  15.348   7.216  0.0177 -0.1148 -0.2760
 1108YOPC   C3A15789   9.254  15.385   7.637 -0.3015  0.2091 -0.1175
 1108YOPC   C4A15790   9.260  15.235   8.055 -0.1243  0.1541 -0.0259
 1108YOPC   C1B15791   9.128  14.589   6.912 -0.0660 -0.0570  0.4339
 1108YOPC   C2B15792   9.240  14.312   7.233  0.4533  0.0361  0.0653
 1108YOPC   D3B15793   9.499  14.466   7.551  0.4300 -0.0284 -0.2397
 1108YOPC   C4B15794   9.837  14.751   7.754  0.0233  0.2249 -0.0597
 1109YOPC   NC315795  15.003   0.925   6.026  0.1604  0.1423  0.0002
 1109YOPC   PO415796  14.478   0.868   5.925 -0.0969  0.2339 -0.1114
 1109YOPC   GL115797  14.474   1.357   6.181 -0.0784  0.2127 -0.2103
 1109YOPC   GL215798  14.771   1.419   6.374  0.1540 -0.3003 -0.0592
 1109YOPC   C1A15799  14.293   1.598   6.486  0.0058 -0.0485 -0.0479
 1109YOPC   D2A15800  14.423   1.831   6.728 -0.2382 -0.3399  0.2909
 1109YOPC   C3A15801  14.546   1.694   7.193  0.1371  0.0909  0.3450
 1109YOPC   C4A15802  14.895   1.697   7.458  0.0596  0.0435  0.2553
 1109YOPC   C1B15803  14.652   1.834   6.275  0.0511  0.1888  0.0182
 1109YOPC   C2B15804  14.466   2.199   6.233 -0.2247  0.3503 -0.0438
 1109YOPC   D3B15805  14.637   2.236   6.606 -0.0009  0.0067  0.0225
 1109YOPC   C4B15806  14.652   2.153   7.031 -0.0524 -0.2185  0.3335
 1110YOPC   NC315807  17.601   4.055   5.677  0.2507 -0.0636  0.0531
 1110YOPC   PO415808  17.197   4.197   5.628  0.1220  0.2995  0.1127
 1110YOPC   GL115809  17.290   4.339   5.945  0.0671  0.2470  0.2451
 1110YOPC   GL215810  17.502   4.335   6.105  0.3342  0.0745 -0.2195
 1110YOPC   C1A15811  17.090   4.370   6.338  0.1152  0.0350  0.0490
 1110YOPC   D2A15812  17.215   4.334   6.766  0.2137  0.3128  0.1284
 1110YOPC   C3A15813  17.652   4.292   6.812  0.1792 -0.0797  0.1491
 1110YOPC   C4A15814  18.167   4.255   6.814 -0.2793 -0.1333  0.1542
 1110YOPC   C1B15815  17.474   4.680   6.428 -0.2723  0.4361  0.1546
 1110YOPC   C2B15816  17.475   4.741   6.959  0.1461 -0.1963  0.0900
 1110YOPC   D3B15817  17.085   4.587   7.211  0.0306  0.2085 -0.0853
 1110YOPC   C4B15818  16.722   4.679   7.376  0.2110 -0.2275  0.1301
 1111YOPC   NC315819   6.907   0.741   5.811  0.3115  0.5436  0.4723
 1111YOPC   PO415820   7.092   0.686   6.118  0.2839 -0.1963  0.2152
 1111YOPC   GL115821   7.186   0.750   6.501  0.2656 -0.2263 -0.1299
 1111YOPC   GL215822   7.458   0.659   6.452  0.0547  0.1828  0.0408
 1111YOPC   C1A15823   6.955   0.708   6.937 -0.0069 -0.0426 -0.1840
 1111YOPC   D2A15824   7.044   0.918   7.315  0.1429 -0.0285  0.3121
 1111YOPC   C3A15825   6.892   1.235   7.558 -0.2648 -0.0837 -0.0419
 1111YOPC   C4A15826   6.923   1.420   7.856  0.3134 -0.1129  0.2512
 1111YOPC   C1B15827   7.451   0.562   6.898  0.4064  0.0358  0.0470
 1111YOPC   C2B15828   7.484   0.823   7.069  0.2875 -0.2229  0.0831
 1111YOPC   D3B15829   7.522   0.977   7.431  0.0095  0.0677  0.2309
 1111YOPC   C4B15830   7.363   1.122   7.833 -0.1174  0.2864  0.3676
 1112YOPC   NC315831   1.149   8.539   5.775 -0.0309  0.0164 -0.0792
 1112YOPC   PO415832   1.480   8.276   5.917 -0.3755 -0.0455  0.0731
 1112YOPC   GL115833   1.674   8.251   6.275 -0.0515 -0.2609  0.0385
 1112YOPC   GL215834   1.785   8.562   6.236 -0.0824 -0.1990  0.0576
 1112YOPC   C1A15835   1.572   8.205   6.730 -0.2514  0.0472  0.1105
 1112YOPC   D2A15836   1.560   8.171   7.211 -0.1166  0.1397 -0.2515
 1112YOPC   C3A15837   1.930   7.967   7.415 -0.3583  0.2987  0.1144
 1112YOPC   C4A15838   2.304   7.947   7.270  0.0225 -0.1196  0.2118
 1112YOPC   C1B15839   1.701   8.668   6.640 -0.1336  0.2384 -0.0725
 1112YOPC   C2B15840   1.601   8.672   7.037 -0.0836 -0.2184  0.0811
 1112YOPC   D3B15841   1.763   8.938   7.372 -0.1447  0.1025 -0.0903
 1112YOPC   C4B15842   1.661   8.883   7.779 -0.2100  0.2572  0.1397
 1113YOPC   NC315843  18.267  14.341   5.721  0.1976 -0.0425 -0.0678
 1113YOPC   PO415844  17.978  14.052   5.679  0.1898  0.1631  0.3258
 1113YOPC   GL115845  18.079  13.884   6.013  0.0634 -0.0382  0.0073
 1113YOPC   GL215846  18.350  14.089   6.238  0.1044  0.1853  0.1726
 1113YOPC   C1A15847  17.855  13.885   6.439 -0.2966 -0.2550 -0.0891
 1113YOPC   D2A15848  17.706  13.744   6.793  0.0734 -0.1024 -0.1796
 1113YOPC   C3A15849  17.790  13.840   7.183 -0.3646  0.1901 -0.0769
 1113YOPC   C4A15850  18.039  13.900   7.596 -0.2375 -0.1559 -0.1748
 1113YOPC   C1B15851  18.303  14.005   6.593  0.0481  0.2315  0.0405
 1113YOPC   C2B15852  18.286  14.016   7.025  0.1600 -0.0998  0.0656
 1113YOPC   D3B15853  18.452  14.133   7.419 -0.1325  0.2552  0.3902
 1113YOPC   C4B15854  18.639  14.294   7.734 -0.1586  0.3324 -0.1538
 1114YOPC   NC315855  16.855   0.053   6.209 -0.2427  0.1117 -0.0356
 1114YOPC   PO415856  16.594  -0.226   6.500  0.1079  0.0981 -0.1999
 1114YOPC   GL115857  16.860  -0.137   6.754 -0.0920 -0.0963  0.0108
 1114YOPC   GL215858  17.058  -0.501   6.713 -0.1308  0.1477  0.3939
 1114YOPC   C1A15859  16.830  -0.154   7.213 -0.0946  0.2265 -0.1728
 1114YOPC   D2A15860  16.494  -0.012   7.511 -0.1404  0.1490 -0.0577
 1114YOPC   C3A15861  16.210  -0.081   7.709 -0.0647 -0.2732  0.1542
 1114YOPC   C4A15862  15.890   0.223   7.644 -0.1380  0.3714  0.0458
 1114YOPC   C1B15863  17.213  -0.514   7.119 -0.2030  0.0704 -0.0779
 1114YOPC   C2B15864  17.254  -0.609   7.470 -0.0327 -0.0530 -0.0318
 1114YOPC   D3B15865  17.495  -0.410   7.780  0.1101  0.0438  0.2154
 1114YOPC   C4B15866  17.710  -0.377   8.111 -0.0536 -0.1456 -0.2658
 1115YOPC   NC315867  12.501   9.373   5.923  0.1036  0.1814 -0.0241
 1115YOPC   PO415868  12.286   9.792   5.905  0.0224 -0.1373 -0.2163
 1115YOPC   GL115869  12.419   9.662   6.370  0.1470 -0.0203 -0.0078
 1115YOPC   GL215870  12.624   9.440   6.422 -0.0561 -0.2712  0.2456
 1115YOPC   C1A15871  12.422   9.780   6.765 -0.0597  0.1023 -0.3057
 1115YOPC   D2A15872  12.240   9.652   7.158  0.0831  0.1576  0.3038
 1115YOPC   C3A15873  11.739   9.762   7.089 -0.0700  0.2588  0.1171
 1115YOPC   C4A15874  11.387   9.668   7.275  0.0041  0.0611 -0.1243
 1115YOPC   C1B15875  12.674   9.404   6.964  0.1799  0.0363 -0.0698
 1115YOPC   C2B15876  12.588   9.396   7.413  0.0752 -0.1841 -0.0190
 1115YOPC   D3B15877  12.389   9.057   7.685  0.3071  0.0779  0.1667
 1115YOPC   C4B15878  12.474   8.519   7.648 -0.0843 -0.1535  0.3022
 1116YOPC   NC315879  15.438  13.348   5.866 -0.0198  0.0502 -0.0430
 1116YOPC   PO415880  15.252  13.016   5.805 -0.0964  0.0314 -0.0687
 1116YOPC   GL115881  15.191  13.116   6.218 -0.2471 -0.3734  0.0624
 1116YOPC   GL215882  14.928  13.417   6.285 -0.0132  0.0167 -0.0902
 1116YOPC   C1A15883  15.249  13.003   6.685  0.0093 -0.1950  0.0782
 1116YOPC   D2A15884  15.134  12.844   7.069 -0.0467 -0.0739  0.0636
 1116YOPC   C3A15885  14.908  12.650   7.461 -0.1258 -0.2365  0.1062
 1116YOPC   C4A15886  14.893  12.881   7.839  0.0048 -0.1198  0.0732
 1116YOPC   C1B15887  15.193  13.482   6.690 -0.0143 -0.2057  0.1220
 1116YOPC   C2B15888  15.475  13.272   7.031 -0.0308 -0.2646 -0.0229
 1116YOPC   D3B15889  15.552  13.459   7.499  0.0648  0.0695  0.1283
 1116YOPC   C4B15890  15.297  13.284   7.847 -0.2232 -0.3516 -0.1298
 1117YOPC   NC315891   5.189   4.133   5.945 -0.1539  0.1129  0.1782
 1117YOPC   PO415892   5.537   4.413   5.811 -0.1798  0.0528  0.0820
 1117YOPC   GL115893   5.342   4.562   6.201 -0.0225  0.0669  0.2067
 1117YOPC   GL215894   5.603   4.546   6.411  0.0656 -0.3407 -0.0246
 1117YOPC   C1A15895   4.932   4.655   6.321  0.1059  0.0832  0.1094
 1117YOPC   D2A15896   4.813   4.585   6.764  0.1997  0.1503 -0.1812
 1117YOPC   C3A15897   4.736   4.131   6.903 -0.1389  0.0815 -0.3631
 1117YOPC   C4A15898   4.656   3.785   7.140  0.0902 -0.0613  0.5378
 1117YOPC   C1B15899   5.908   4.280   6.606  0.0577 -0.2649  0.0884
 1117YOPC   C2B15900   6.005   4.205   7.097  0.0088  0.1167 -0.0210
 1117YOPC   D3B15901   6.412   4.058   7.195  0.0550  0.1442  0.3372
 1117YOPC   C4B15902   6.687   4.070   7.430  0.2491  0.2360 -0.0126
 1118YOPC   NC315903  16.721  13.829   5.515 -0.0932 -0.0798 -0.0850
 1118YOPC   PO415904  16.541  13.501   5.831 -0.2053 -0.2589  0.1404
 1118YOPC   GL115905  16.209  13.660   6.054 -0.0061  0.0569  0.0454
 1118YOPC   GL215906  15.973  13.422   5.998  0.2660 -0.0445 -0.0725
 1118YOPC   C1A15907  16.109  13.717   6.464  0.0880  0.1179 -0.3023
 1118YOPC   D2A15908  15.829  13.735   6.859 -0.0175  0.3145  0.3329
 1118YOPC   C3A15909  15.974  13.558   7.231 -0.2113  0.2527 -0.0419
 1118YOPC   C4A15910  16.064  13.773   7.724  0.1199  0.0368  0.0569
 1118YOPC   C1B15911  16.193  13.229   6.452  0.1033  0.0349 -0.2367
 1118YOPC   C2B15912  16.171  13.376   6.823  0.2557 -0.3328  0.1961
 1118YOPC   D3B15913  16.384  13.743   6.948  0.0756  0.2139 -0.0890
 1118YOPC   C4B15914  16.414  14.159   6.782  0.1631 -0.0247  0.1388
 1119YOPC   NC315915   1.126  11.893   5.895 -0.3028 -0.0859  0.1030
 1119YOPC   PO415916   1.673  11.761   6.033  0.1104 -0.1306  0.1184
 1119YOPC   GL115917   1.645  11.693   6.401 -0.0894  0.2001 -0.1050
 1119YOPC   GL215918   1.975  11.753   6.459 -0.0018 -0.0575 -0.3054
 1119YOPC   C1A15919   1.573  11.758   6.855 -0.1298 -0.2129  0.0388
 1119YOPC   D2A15920   1.517  11.823   7.279 -0.0838  0.4241  0.0917
 1119YOPC   C3A15921   1.613  11.571   7.557  0.2790 -0.0058  0.1445
 1119YOPC   C4A15922   1.671  11.605   8.015 -0.0191  0.1679 -0.3433
 1119YOPC   C1B15923   1.977  11.900   7.041 -0.4483 -0.0948 -0.2112
 1119YOPC   C2B15924   1.948  12.094   7.430 -0.1785  0.0610  0.0671
 1119YOPC   D3B15925   2.070  11.952   7.822 -0.3636 -0.3457 -0.3758
 1119YOPC   C4B15926   2.166  11.643   8.275 -0.0659 -0.2068  0.3403
 1120YOPC   NC315927  11.860   4.553   4.796 -0.0601  0.0681 -0.0173
 1120YOPC   PO415928  11.985   4.919   5.116 -0.1444  0.0888 -0.0651
 1120YOPC   GL115929  12.091   4.851   5.599  0.0528 -0.1114  0.0847
 1120YOPC   GL215930  12.456   4.851   5.678  0.2134 -0.2294 -0.0575
 1120YOPC   C1A15931  12.075   5.050   6.017 -0.1132 -0.1076  0.0029
 1120YOPC   D2A15932  11.985   5.493   6.043 -0.2645  0.1471 -0.0566
 1120YOPC   C3A15933  11.824   5.707   6.256 -0.2896 -0.0628 -0.1973
 1120YOPC   C4A15934  12.127   5.686   6.677 -0.0632  0.2498 -0.0067
 1120YOPC   C1B15935  12.530   4.904   6.125  0.0774 -0.1482 -0.1705
 1120YOPC   C2B15936  12.129   4.885   6.447  0.0576  0.0830  0.1238
 1120YOPC   D3B15937  12.384   4.893   6.791  0.0094  0.1209 -0.0816
 1120YOPC   C4B15938  12.525   5.092   7.168  0.0923 -0.2044 -0.0761
 1121YOPC   NC315939  17.258   3.691   5.555 -0.0243  0.4089 -0.1548
 1121YOPC   PO415940  17.697   3.536   5.689 -0.1569  0.0069 -0.1874
 1121YOPC   GL115941  17.871   3.373   5.990 -0.0345 -0.2939  0.0501
 1121YOPC   GL215942  17.665   3.324   6.259 -0.1225  0.3843  0.1775
 1121YOPC   C1A15943  18.228   3.575   6.317 -0.1730 -0.0310  0.0005
 1121YOPC   D2A15944  18.478   3.647   6.728 -0.0753 -0.3805  0.5009
 1121YOPC   C3A15945  18.154   3.720   7.008  0.1160 -0.5081  0.1646
 1121YOPC   C4A15946  17.938   3.937   7.277  0.0504 -0.0313 -0.0479
 1121YOPC   C1B15947  17.336   3.332   6.582  0.0103  0.0540 -0.1129
 1121YOPC   C2B15948  17.427   3.271   7.077 -0.1906 -0.1077 -0.2819
 1121YOPC   D3B15949  17.449   2.814   7.169  0.0884 -0.1282 -0.2893
 1121YOPC   C4B15950  17.116   2.432   7.314  0.1603 -0.0402  0.2725
 1122YOPC   NC315951   9.835  14.959   5.812  0.1549 -0.1506  0.1926
 1122YOPC   PO415952  10.246  14.910   5.993 -0.1421 -0.0587  0.2266
 1122YOPC   GL115953  10.051  14.852   6.367  0.2774 -0.2000 -0.0101
 1122YOPC   GL215954   9.865  14.693   6.214  0.1261 -0.4609 -0.3172
 1122YOPC   C1A15955   9.736  15.030   6.560 -0.2812 -0.3336  0.0924
 1122YOPC   D2A15956   9.579  15.557   6.579  0.1231  0.0025  0.2262
 1122YOPC   C3A15957   9.224  15.734   6.942 -0.3860  0.1160 -0.0145
 1122YOPC   C4A15958   8.963  15.504   7.015  0.0275  0.2700  0.1335
 1122YOPC   C1B15959   9.602  14.540   6.659 -0.0783 -0.1770  0.1478
 1122YOPC   C2B15960   9.521  14.754   7.139  0.0583  0.2767  0.1873
 1122YOPC   D3B15961   9.821  15.039   7.331  0.0374  0.3024  0.3095
 1122YOPC   C4B15962   9.776  15.428   7.504 -0.2968 -0.0206 -0.0359
 1123YOPC   NC315963   9.075   8.925   5.658 -0.2913  0.0865  0.1796
 1123YOPC   PO415964   8.558   9.017   5.688 -0.2080 -0.2766  0.1728
 1123YOPC   GL115965   8.626   8.956   6.067 -0.0679  0.0499 -0.1920
 1123YOPC   GL215966   8.363   8.637   6.192  0.1686  0.0606  0.1133
 1123YOPC   C1A15967   8.814   8.890   6.438  0.2228  0.1278 -0.1405
 1123YOPC   D2A15968   8.813   8.707   6.845  0.1864 -0.1393 -0.0636
 1123YOPC   C3A15969   9.033   8.856   7.057 -0.0951 -0.1147  0.1545
 1123YOPC   C4A15970   9.199   9.217   7.259  0.4050 -0.2057  0.0371
 1123YOPC   C1B15971   8.292   8.868   6.540 -0.2645 -0.0261 -0.2336
 1123YOPC   C2B15972   8.465   9.026   6.823  0.2063 -0.1939  0.2553
 1123YOPC   D3B15973   8.880   9.234   6.768  0.0317  0.0446  0.1658
 1123YOPC   C4B15974   9.241   9.134   6.642  0.1987  0.0029 -0.0520
 1124YOPC   NC315975   4.891  10.473   5.818 -0.0796 -0.0813 -0.1769
 1124YOPC   PO415976   5.030  10.598   6.165  0.0553 -0.0670  0.1810
 1124YOPC   GL115977   5.132  10.807   6.571  0.2947  0.0782 -0.0974
 1124YOPC   GL215978   5.333  10.591   6.704 -0.0600 -0.1024  0.2693
 1124YOPC   C1A15979   4.816  11.122   6.659  0.0614 -0.2001 -0.1331
 1124YOPC   D2A15980   4.852  11.490   6.889  0.1994  0.0426  0.0169
 1124YOPC   C3A15981   4.647  11.634   7.261  0.3184 -0.0675  0.1751
 1124YOPC   C4A15982   4.487  11.399   7.548  0.1000  0.1487  0.5118
 1124YOPC   C1B15983   5.542  10.822   7.004 -0.0657 -0.0805 -0.1261
 1124YOPC   C2B15984   5.647  10.788   7.481  0.1888 -0.1077 -0.0984
 1124YOPC   D3B15985   6.049  10.833   7.660  0.3823  0.1023  0.0317
 1124YOPC   C4B15986   6.254  10.943   7.997  0.0234 -0.0153 -0.1449
 1125YOPC   NC315987  13.179  15.454   5.827  0.2147  0.1901 -0.0030
 1125YOPC   PO415988  12.995  15.114   6.084  0.1963 -0.0562  0.0286
 1125YOPC   GL115989  12.893  15.088   6.466 -0.0631 -0.0645  0.1529
 1125YOPC   GL215990  12.640  15.337   6.715 -0.0608 -0.0797  0.1319
 1125YOPC   C1A15991  12.832  15.029   6.983 -0.1806  0.1645  0.1550
 1125YOPC   D2A15992  12.839  15.197   7.368  0.4434 -0.0731 -0.0157
 1125YOPC   C3A15993  13.066  15.094   7.680 -0.1092 -0.0560 -0.0310
 1125YOPC   C4A15994  13.481  15.313   7.781 -0.0192  0.1647 -0.1157
 1125YOPC   C1B15995  12.423  15.505   7.062  0.0997 -0.0793  0.1278
 1125YOPC   C2B15996  12.340  15.711   7.444 -0.0405  0.1592  0.0154
 1125YOPC   D3B15997  12.529  15.348   7.755 -0.3152 -0.1124  0.1966
 1125YOPC   C4B15998  12.647  14.865   7.831  0.1559  0.2193  0.0526
 1126YOPC   NC315999   8.479  17.648   6.593  0.3279  0.0224  0.0377
 1126YOPC   PO416000   8.327  18.050   6.340 -0.0021 -0.1547  0.0958
 1126YOPC   GL116001   8.419  18.250   6.722  0.2459  0.1366  0.2570
 1126YOPC   GL216002   8.563  18.460   6.693  0.3216 -0.1484 -0.0976
 1126YOPC   C1A16003   8.237  18.413   7.108  0.0043 -0.2457 -0.1382
 1126YOPC   D2A16004   8.127  18.546   7.469 -0.0968  0.3649 -0.2771
 1126YOPC   C3A16005   8.305  18.579   7.903 -0.1495 -0.2783  0.0653
 1126YOPC   C4A16006   8.631  18.718   8.187 -0.0528  0.3222 -0.0784
 1126YOPC   C1B16007   8.685  18.604   6.961 -0.3449 -0.1517 -0.4238
 1126YOPC   C2B16008   8.838  18.823   7.289 -0.1442 -0.0481  0.0526
 1126YOPC   D3B16009   8.934  18.958   7.715  0.2242 -0.1166  0.3074
 1126YOPC   C4B16010   8.950  19.052   8.110  0.0574 -0.0770  0.0780
 1127YOPC   NC316011   3.978  15.607   6.357  0.0314 -0.1069  0.2428
 1127YOPC   PO416012   3.563  15.663   6.234  0.1573  0.0690 -0.0927
 1127YOPC   GL116013   3.596  15.879   6.617 -0.2264 -0.0119 -0.3921
 1127YOPC   GL216014   3.752  15.585   6.766  0.1485 -0.0541  0.0442
 1127YOPC   C1A16015   3.535  16.069   7.022 -0.0363  0.1518 -0.2118
 1127YOPC   D2A16016   3.390  16.056   7.429 -0.2970 -0.0939 -0.0940
 1127YOPC   C3A16017   3.310  16.377   7.775 -0.0311 -0.2561 -0.1248
 1127YOPC   C4A16018   3.427  16.640   8.129  0.0751 -0.0434  0.2857
 1127YOPC   C1B16019   3.735  15.633   7.170 -0.0642  0.1786 -0.1647
 1127YOPC   C2B16020   3.757  15.759   7.448  0.1580  0.0515  0.2215
 1127YOPC   D3B16021   3.457  15.610   7.786 -0.1914 -0.0526 -0.3807
 1127YOPC   C4B16022   3.690  15.541   8.168  0.1144  0.0309  0.0689
 1128YOPC   NC316023  10.989   1.634   5.451  0.0855  0.1589 -0.0455
 1128YOPC   PO416024  11.319   1.301   5.573  0.2410 -0.4311 -0.1229
 1128YOPC   GL116025  11.652   1.375   5.981  0.3856 -0.1481  0.1338
 1128YOPC   GL216026  11.656   1.651   6.160 -0.0593  0.0769  0.0119
 1128YOPC   C1A16027  11.958   1.277   6.382  0.1051 -0.2199 -0.0347
 1128YOPC   D2A16028  12.249   1.387   6.717 -0.1805 -0.0437 -0.0520
 1128YOPC   C3A16029  12.015   1.667   6.866  0.3224 -0.1547 -0.0021
 1128YOPC   C4A16030  11.965   1.940   7.223 -0.0967 -0.0022  0.2241
 1128YOPC   C1B16031  11.630   1.602   6.574  0.3984  0.3832  0.3244
 1128YOPC   C2B16032  11.662   1.321   6.862 -0.0408 -0.0490 -0.3077
 1128YOPC   D3B16033  11.548   1.654   7.268  0.1891  0.0353  0.1847
 1128YOPC   C4B16034  11.423   1.807   7.642  0.1558  0.2183  0.1881
 1129YOPC   NC316035   8.932   8.191   5.487 -0.4013 -0.0976  0.1691
 1129YOPC   PO416036   8.554   8.254   5.290  0.2745 -0.0139 -0.1096
 1129YOPC   GL116037   8.563   8.066   5.801  0.0894 -0.2029  0.1907
 1129YOPC   GL216038   8.842   7.876   5.824  0.4227  0.1439 -0.3112
 1129YOPC   C1A16039   8.430   8.158   6.211 -0.0551  0.3451 -0.0909
 1129YOPC   D2A16040   8.732   8.321   6.583  0.0741 -0.0620 -0.2265
 1129YOPC   C3A16041   8.527   8.191   7.032 -0.0825  0.2661 -0.0213
 1129YOPC   C4A16042   8.418   8.154   7.461 -0.1214  0.4033  0.2302
 1129YOPC   C1B16043   8.928   7.913   6.229 -0.1251 -0.2223 -0.2303
 1129YOPC   C2B16044   8.554   7.873   6.602 -0.1514  0.0076 -0.3330
 1129YOPC   D3B16045   8.589   7.547   6.941  0.0609 -0.1966 -0.1637
 1129YOPC   C4B16046   8.675   7.086   7.203  0.0312 -0.0190 -0.1281
 1130YOPC   NC316047  15.470   4.569   4.947 -0.0508 -0.1047  0.1991
 1130YOPC   PO416048  15.324   4.987   4.957 -0.0781  0.4024 -0.2752
 1130YOPC   GL116049  15.382   5.246   5.356  0.2469  0.2992 -0.1249
 1130YOPC   GL216050  15.496   5.624   5.485  0.1314  0.2601 -0.0002
 1130YOPC   C1A16051  15.180   5.217   5.736 -0.2681  0.0105  0.1247
 1130YOPC   D2A16052  15.179   4.994   6.039  0.0131  0.1201 -0.1147
 1130YOPC   C3A16053  14.982   4.869   6.266  0.0687  0.0911  0.2378
 1130YOPC   C4A16054  14.687   4.803   6.531  0.3190 -0.1203  0.1805
 1130YOPC   C1B16055  15.641   5.700   5.958 -0.1546 -0.1714  0.3278
 1130YOPC   C2B16056  16.037   5.446   6.106 -0.1198  0.0299 -0.0195
 1130YOPC   D3B16057  16.100   5.065   6.238 -0.2423 -0.1038 -0.1316
 1130YOPC   C4B16058  16.188   4.817   6.533  0.1526 -0.0954 -0.0760
 1131YOPC   NC316059  15.386   0.962   5.625  0.0018 -0.0033 -0.1046
 1131YOPC   PO416060  15.214   1.319   5.781 -0.0517  0.1644  0.0697
 1131YOPC   GL116061  15.340   1.263   6.194  0.3330 -0.0231 -0.0288
 1131YOPC   GL216062  15.717   1.228   6.206  0.1105  0.0808 -0.0584
 1131YOPC   C1A16063  15.193   1.439   6.618  0.0330  0.0495 -0.1362
 1131YOPC   D2A16064  14.741   1.343   6.879  0.1616 -0.1038 -0.1367
 1131YOPC   C3A16065  14.665   0.992   7.153  0.0401 -0.4108  0.2167
 1131YOPC   C4A16066  14.648   0.574   7.040  0.0464 -0.0277  0.0102
 1131YOPC   C1B16067  15.701   1.289   6.649  0.1094  0.1966 -0.0355
 1131YOPC   C2B16068  15.732   1.190   7.132  0.0592  0.0174  0.0047
 1131YOPC   D3B16069  15.857   1.493   7.441 -0.2772  0.0124  0.2216
 1131YOPC   C4B16070  16.156   1.574   7.775 -0.0510  0.1516  0.2062
 1132YOPC   NC316071   6.158  12.220   5.179  0.1572 -0.0101 -0.2317
 1132YOPC   PO416072   5.897  12.003   5.585 -0.2563  0.1113  0.0487
 1132YOPC   GL116073   5.813  11.590   5.940 -0.1531 -0.3003 -0.0026
 1132YOPC   GL216074   5.507  11.470   6.066 -0.0397  0.3645 -0.0449
 1132YOPC   C1A16075   6.017  11.308   6.159  0.0119  0.1613 -0.0462
 1132YOPC   D2A16076   6.112  11.369   6.468  0.2422 -0.1604 -0.0885
 1132YOPC   C3A16077   6.647  11.481   6.598 -0.3152  0.0851  0.1839
 1132YOPC   C4A16078   6.933  11.783   6.429  0.2214  0.1294  0.0657
 1132YOPC   C1B16079   5.660  11.623   6.481 -0.0765  0.0556 -0.2762
 1132YOPC   C2B16080   6.004  11.853   6.639 -0.0714  0.0678  0.0439
 1132YOPC   D3B16081   5.973  11.979   7.082 -0.2238 -0.1036 -0.1405
 1132YOPC   C4B16082   6.086  11.987   7.590  0.1578 -0.1019 -0.0304
 1133YOPC   NC316083  12.367  17.303   5.725  0.0809  0.2624 -0.1179
 1133YOPC   PO416084  12.702  17.543   6.046 -0.0329 -0.0392  0.1069
 1133YOPC   GL116085  12.793  17.760   6.493 -0.1589 -0.2233  0.0488
 1133YOPC   GL216086  13.039  17.664   6.633  0.1405 -0.5097  0.0191
 1133YOPC   C1A16087  12.630  17.997   6.778 -0.1629  0.1966  0.1536
 1133YOPC   D2A16088  12.740  18.228   7.120  0.0396  0.0725 -0.2089
 1133YOPC   C3A16089  12.732  18.458   7.463  0.1131  0.0414 -0.0705
 1133YOPC   C4A16090  12.947  18.799   7.588 -0.2024  0.0532  0.4434
 1133YOPC   C1B16091  12.895  17.744   7.072 -0.0845  0.2649  0.2126
 1133YOPC   C2B16092  12.685  17.719   7.400 -0.2385  0.0418  0.0953
 1133YOPC   D3B16093  12.389  18.066   7.464  0.0343 -0.2661  0.1027
 1133YOPC   C4B16094  12.069  18.342   7.539  0.0656 -0.4170  0.0180
 1134YOPC   NC316095  14.185   5.227   5.396 -0.0813 -0.0675  0.2314
 1134YOPC   PO416096  13.966   4.842   5.341  0.3038  0.1623  0.1426
 1134YOPC   GL116097  14.011   4.828   5.697  0.1771  0.2072 -0.2068
 1134YOPC   GL216098  13.726   4.568   5.768 -0.3128 -0.2662  0.2358
 1134YOPC   C1A16099  14.271   4.792   6.175  0.3043 -0.3780 -0.2715
 1134YOPC   D2A16100  14.159   4.657   6.561 -0.2441 -0.4056  0.2433
 1134YOPC   C3A16101  14.260   4.850   6.933  0.2278  0.0271 -0.0329
 1134YOPC   C4A16102  14.375   5.055   7.278  0.0570  0.1191  0.1767
 1134YOPC   C1B16103  13.558   4.934   6.056  0.1287  0.0477  0.2221
 1134YOPC   C2B16104  13.702   4.891   6.376  0.2017 -0.0737  0.0433
 1134YOPC   D3B16105  13.873   5.094   6.752 -0.0145 -0.2112 -0.1457
 1134YOPC   C4B16106  13.908   5.214   7.134  0.3094 -0.0185  0.0244
 1135YOPC   NC316107  14.394   8.048   5.602  0.1538  0.1367 -0.4071
 1135YOPC   PO416108  14.710   8.285   5.381 -0.4276 -0.1425 -0.0989
 1135YOPC   GL116109  14.914   8.203   5.775 -0.0372 -0.0353 -0.0341
 1135YOPC   GL216110  14.968   8.443   5.976  0.0625 -0.2602 -0.1265
 1135YOPC   C1A16111  15.024   8.097   6.285 -0.3107  0.1841 -0.0920
 1135YOPC   D2A16112  14.883   8.129   6.650  0.0145 -0.0494 -0.0919
 1135YOPC   C3A16113  15.096   8.180   6.956 -0.1222 -0.0189 -0.0998
 1135YOPC   C4A16114  15.494   8.104   7.144  0.1816 -0.1465 -0.0099
 1135YOPC   C1B16115  14.870   8.600   6.359  0.1735  0.2097 -0.0364
 1135YOPC   C2B16116  14.857   8.588   6.788 -0.0602  0.0392  0.0790
 1135YOPC   D3B16117  14.676   8.332   7.139 -0.1578  0.1220 -0.1675
 1135YOPC   C4B16118  14.462   8.197   7.539  0.0206 -0.2159 -0.0627
 1136YOPC   NC316119   2.590   3.960   5.436 -0.1117  0.1246 -0.1579
 1136YOPC   PO416120   2.608   3.948   5.937 -0.1191 -0.0871 -0.1759
 1136YOPC   GL116121   2.800   4.034   6.333  0.0112  0.4243 -0.2064
 1136YOPC   GL216122   3.182   3.994   6.293 -0.1010 -0.1826 -0.0377
 1136YOPC   C1A16123   2.959   4.117   6.842 -0.3496 -0.1293  0.2688
 1136YOPC   D2A16124   3.000   4.184   7.181 -0.0725 -0.1385 -0.0285
 1136YOPC   C3A16125   2.792   4.212   7.571  0.2217 -0.3406  0.1544
 1136YOPC   C4A16126   3.025   4.128   7.988  0.1339 -0.3890 -0.0555
 1136YOPC   C1B16127   3.485   4.021   6.705  0.1568  0.1590  0.1551
 1136YOPC   C2B16128   3.480   4.040   7.165  0.0254  0.0049  0.1653
 1136YOPC   D3B16129   3.661   4.318   7.557 -0.0377 -0.0877  0.2864
 1136YOPC   C4B16130   3.568   4.105   7.980 -0.1122 -0.3610 -0.0639
 1137YOPC   NC316131   5.333  17.034   6.041 -0.1334  0.2353  0.2828
 1137YOPC   PO416132   5.194  17.187   6.353  0.0824 -0.2681  0.1323
 1137YOPC   GL116133   5.160  16.859   6.799  0.2873 -0.2167  0.1188
 1137YOPC   GL216134   5.388  17.106   7.010 -0.1407 -0.0900 -0.0326
 1137YOPC   C1A16135   5.327  16.632   7.077  0.3186 -0.2519 -0.1816
 1137YOPC   D2A16136   5.472  16.167   7.303 -0.0566 -0.1079 -0.2478
 1137YOPC   C3A16137   5.309  15.862   7.081 -0.0550  0.2083  0.1439
 1137YOPC   C4A16138   5.223  15.772   6.688 -0.0895  0.1179  0.0802
 1137YOPC   C1B16139   4.871  17.203   6.971 -0.0941 -0.1860  0.1567
 1137YOPC   C2B16140   4.463  17.212   7.154 -0.0278 -0.0132  0.1417
 1137YOPC   D3B16141   4.419  17.273   7.502 -0.3691 -0.1599 -0.3530
 1137YOPC   C4B16142   4.477  17.593   7.756  0.2478  0.3771  0.1668
 1138YOPC   NC316143  11.873   1.893   5.722 -0.2433 -0.2228 -0.2994
 1138YOPC   PO416144  11.417   1.872   5.639  0.1217  0.0482  0.1118
 1138YOPC   GL116145  11.377   2.072   6.025 -0.0051 -0.2722  0.1091
 1138YOPC   GL216146  11.166   2.380   6.050  0.0307 -0.0432 -0.2833
 1138YOPC   C1A16147  11.753   2.193   6.297  0.0828  0.0701  0.2912
 1138YOPC   D2A16148  12.003   2.510   6.390 -0.0877 -0.4452 -0.1788
 1138YOPC   C3A16149  12.233   2.825   6.793  0.1232  0.0528 -0.0948
 1138YOPC   C4A16150  12.479   2.848   7.166 -0.0313 -0.1166  0.1115
 1138YOPC   C1B16151  11.328   2.354   6.510 -0.2764 -0.0509 -0.0660
 1138YOPC   C2B16152  11.560   2.558   6.780  0.0861 -0.0896 -0.1283
 1138YOPC   D3B16153  11.598   2.303   7.187 -0.0493  0.0197 -0.0773
 1138YOPC   C4B16154  11.794   2.296   7.562 -0.0442  0.0612 -0.0548
 1139YOPC   NC316155   6.708   2.527   5.578  0.2528 -0.2015 -0.1939
 1139YOPC   PO416156   6.642   2.860   5.810 -0.0155  0.0374 -0.1583
 1139YOPC   GL116157   6.501   2.764   6.224 -0.3433 -0.1435 -0.0513
 1139YOPC   GL216158   6.644   2.908   6.342  0.0665 -0.0761 -0.2178
 1139YOPC   C1A16159   6.330   2.632   6.597  0.0839 -0.0285  0.1651
 1139YOPC   D2A16160   6.282   2.466   6.947  0.0128  0.2068  0.0793
 1139YOPC   C3A16161   6.263   2.741   7.366  0.1400 -0.0949  0.0189
 1139YOPC   C4A16162   5.956   2.828   7.641  0.0124 -0.1516  0.1950
 1139YOPC   C1B16163   6.735   2.723   6.773  0.0279 -0.1923 -0.1119
 1139YOPC   C2B16164   6.776   2.592   7.223 -0.1654 -0.2699 -0.3997
 1139YOPC   D3B16165   6.669   2.616   7.635  0.0216 -0.2402  0.0896
 1139YOPC   C4B16166   6.697   2.902   8.105 -0.0460  0.1497 -0.1075
 1140YOPC   NC316167   7.862  14.635   6.097  0.2635  0.3396  0.4915
 1140YOPC   PO416168   8.083  14.943   6.229  0.2903  0.1154  0.2374
 1140YOPC   GL116169   8.032  14.854   6.603  0.1587  0.1939 -0.3235
 1140YOPC   GL216170   7.928  14.504   6.655 -0.3977  0.0445  0.1676
 1140YOPC   C1A16171   7.725  14.932   6.847 -0.0098 -0.2845 -0.2205
 1140YOPC   D2A16172   7.712  14.909   7.312  0.1641 -0.3242 -0.1071
 1140YOPC   C3A16173   7.452  14.935   7.626 -0.2319 -0.3631 -0.1255
 1140YOPC   C4A16174   7.137  15.117   7.957  0.0678 -0.0537  0.1091
 1140YOPC   C1B16175   7.670  14.470   6.965  0.2934 -0.0794 -0.3246
 1140YOPC   C2B16176   7.309  14.249   7.107 -0.0528 -0.1749  0.0736
 1140YOPC   D3B16177   7.292  13.947   7.456 -0.3162  0.0327 -0.3605
 1140YOPC   C4B16178   7.428  13.741   7.695 -0.1728 -0.1374  0.0260
 1141YOPC   NC316179  10.638  13.206   5.510  0.1124  0.0452  0.4302
 1141YOPC   PO416180  10.460  12.987   5.705 -0.0606  0.1943  0.2455
 1141YOPC   GL116181  10.391  12.747   6.067  0.2099 -0.1323 -0.1144
 1141YOPC   GL216182  10.716  12.748   6.298  0.0716 -0.2665  0.1841
 1141YOPC   C1A16183  10.242  12.669   6.493 -0.0941 -0.0478 -0.0605
 1141YOPC   D2A16184  10.033  12.549   6.875 -0.0643  0.0571 -0.1493
 1141YOPC   C3A16185  10.151  12.587   7.270 -0.0324  0.1668 -0.1656
 1141YOPC   C4A16186  10.496  12.567   7.555 -0.1176  0.1267 -0.0799
 1141YOPC   C1B16187  10.576  13.144   6.515 -0.1611 -0.0119 -0.1811
 1141YOPC   C2B16188  10.171  13.154   6.712 -0.2153  0.1744 -0.1662
 1141YOPC   D3B16189  10.156  13.380   7.091 -0.2098 -0.0069 -0.0512
 1141YOPC   C4B16190  10.036  13.304   7.460 -0.3715  0.1644  0.5160
 1142YOPC   NC316191  13.027  10.605   5.619  0.0125 -0.1449  0.3068
 1142YOPC   PO416192  13.193  11.075   5.623 -0.0084 -0.1679  0.1830
 1142YOPC   GL116193  13.290  11.315   5.934  0.2477  0.1074 -0.3740
 1142YOPC   GL216194  13.547  11.300   6.009  0.2274  0.1914  0.0856
 1142YOPC   C1A16195  13.026  11.472   6.376 -0.2885 -0.0156 -0.3326
 1142YOPC   D2A16196  12.801  11.695   6.655  0.5833  0.0068  0.1660
 1142YOPC   C3A16197  12.591  11.683   7.013  0.1590  0.0914 -0.0725
 1142YOPC   C4A16198  12.194  11.544   7.117 -0.0811  0.1917 -0.0541
 1142YOPC   C1B16199  13.516  11.350   6.393  0.3583 -0.0280  0.3806
 1142YOPC   C2B16200  13.353  11.240   6.737  0.1909 -0.0857 -0.0292
 1142YOPC   D3B16201  13.447  11.015   7.009  0.0697 -0.2761  0.0269
 1142YOPC   C4B16202  13.514  10.994   7.457  0.1017  0.0022 -0.1388
 1143ERGO   ROH16203  16.468   5.324   9.518 -0.0440  0.1774 -0.0668
 1143ERGO    R116204  16.585   5.405   9.274 -0.1899  0.2700 -0.1075
 1143ERGO    R216205  16.676   5.225   9.085  0.2118  0.3312  0.0177
 1143ERGO    R316206  16.512   5.365   8.919 -0.0777 -0.1162 -0.0908
 1143ERGO    R416207  16.698   5.227   8.740  0.2690  0.1909  0.0202
 1143ERGO    R516208  16.656   5.440   8.743 -0.2077  0.1090 -0.1037
 1143ERGO    C116209  16.557   5.359   8.384  0.0305 -0.3108 -0.0801
 1143ERGO    C216210  16.639   5.322   8.059 -0.0989 -0.0557  0.4511
 1144ERGO   ROH16211   0.675  12.581   6.173 -0.1082 -0.2623  0.1248
 1144ERGO    R116212   0.610  12.542   6.446 -0.2401 -0.1461  0.1114
 1144ERGO    R216213   0.751  12.662   6.651 -0.2041 -0.2272  0.1344
 1144ERGO    R316214   0.505  12.750   6.725 -0.1537  0.0098  0.0292
 1144ERGO    R416215   0.655  12.730   6.976 -0.2750 -0.1238  0.0923
 1144ERGO    R516216   0.461  12.639   6.933 -0.3454  0.0570  0.0164
 1144ERGO    C116217   0.367  12.852   7.235 -0.2689  0.1587 -0.0310
 1144ERGO    C216218   0.046  12.921   7.447 -0.0795  0.2271 -0.1063
 1145ERGO   ROH16219  12.689  13.662   6.643 -0.0368 -0.3855 -0.0983
 1145ERGO    R116220  12.533  13.541   6.846  0.0004 -0.1897  0.0508
 1145ERGO    R216221  12.511  13.647   7.100  0.0502  0.0566 -0.0428
 1145ERGO    R316222  12.244  13.632   7.048  0.0409  0.0099  0.0197
 1145ERGO    R416223  12.261  13.733   7.323  0.0848  0.0418  0.0012
 1145ERGO    R516224  12.148  13.560   7.255  0.0972  0.0187  0.0471
 1145ERGO    C116225  11.866  13.769   7.404  0.0962 -0.0107  0.0856
 1145ERGO    C216226  11.640  13.842   7.627  0.1587 -0.3780 -0.0839
 1146ERGO   ROH16227  17.021   0.523   6.199  0.0762 -0.1461  0.2840
 1146ERGO    R116228  17.053   0.721   6.399  0.1120 -0.0510  0.1856
 1146ERGO    R216229  17.232   0.930   6.373  0.0360 -0.0023  0.0104
 1146ERGO    R316230  17.012   1.081   6.423  0.0105 -0.0537  0.0515
 1146ERGO    R416231  17.233   1.231   6.543  0.0001  0.0255 -0.0392
 1146ERGO    R516232  17.049   1.171   6.642  0.0484 -0.0074  0.0238
 1146ERGO    C116233  17.027   1.549   6.689 -0.0448 -0.0065 -0.0297
 1146ERGO    C216234  16.953   1.832   6.804  0.1121  0.1651  0.0133
 1147ERGO   ROH16235  11.175   7.886   9.315 -0.2226  0.1094 -0.0596
 1147ERGO    R116236  11.120   7.762   9.067 -0.2964 -0.0759  0.0473
 1147ERGO    R216237  10.881   7.796   8.933 -0.1954  0.1320 -0.0885
 1147ERGO    R316238  11.043   7.870   8.728  0.0048 -0.3169 -0.1029
 1147ERGO    R416239  10.787   7.805   8.600 -0.1904  0.3491 -0.0855
 1147ERGO    R516240  10.983   7.723   8.548 -0.3970 -0.1831 -0.0856
 1147ERGO    C116241  10.885   7.879   8.214  0.0005  0.0539 -0.0973
 1147ERGO    C216242  10.836   7.890   7.848 -0.0523 -0.0329  0.1112
 1148ERGO   ROH16243  16.386   0.898  10.382 -0.3147  0.1803 -0.2325
 1148ERGO    R116244  16.565   0.879  10.163 -0.1897  0.1356 -0.1263
 1148ERGO    R216245  16.647   0.637  10.058 -0.0924  0.1174  0.0034
 1148ERGO    R316246  16.556   0.744   9.825  0.0245  0.0209 -0.0897
 1148ERGO    R416247  16.723   0.518   9.742 -0.1088 -0.1597  0.1003
 1148ERGO    R516248  16.741   0.724   9.674  0.0464 -0.2126 -0.0412
 1148ERGO    C116249  16.682   0.549   9.340 -0.0086 -0.4117  0.0693
 1148ERGO    C216250  16.816   0.509   8.992 -0.1564 -0.5003  0.0364
 1149ERGO   ROH16251   8.028   2.162   6.459  0.1420  0.0471 -0.1132
 1149ERGO    R116252   8.204   2.292   6.639  0.0195  0.0099  0.0363
 1149ERGO    R216253   8.235   2.211   6.901 -0.0153 -0.1694 -0.0112
 1149ERGO    R316254   8.498   2.201   6.833  0.0104  0.0222  0.0550
 1149ERGO    R416255   8.494   2.152   7.122 -0.0388 -0.1217  0.0287
 1149ERGO    R516256   8.611   2.303   7.018 -0.1008 -0.0003  0.1353
 1149ERGO    C116257   8.892   2.108   7.187 -0.0284  0.0858  0.1139
 1149ERGO    C216258   9.219   2.027   7.280 -0.3247 -0.2682  0.0419
 1150ERGO   ROH16259  16.727   5.708   9.651 -0.0201  0.0891 -0.2610
 1150ERGO    R116260  16.839   5.783   9.402  0.0312  0.0539 -0.2484
 1150ERGO    R216261  17.076   5.678   9.307  0.0217  0.0011 -0.2085
 1150ERGO    R316262  16.924   5.617   9.090  0.0426  0.0222 -0.2292
 1150ERGO    R416263  17.194   5.659   8.983  0.0355  0.1444 -0.2125
 1150ERGO    R516264  17.012   5.757   8.916  0.0024  0.1087 -0.1831
 1150ERGO    C116265  17.121   5.591   8.590  0.0632  0.2477 -0.2343
 1150ERGO    C216266  17.110   5.554   8.207 -0.0078  0.0912  0.1204
 1151ERGO   ROH16267  16.755  15.003   9.978  0.0132  0.3918 -0.0931
 1151ERGO    R116268  16.608  15.010   9.736 -0.0881  0.1546 -0.0408
 1151ERGO    R216269  16.624  15.220   9.558 -0.3326  0.0859 -0.1491
 1151ERGO    R316270  16.684  15.023   9.381 -0.2370  0.0498 -0.0773
 1151ERGO    R416271  16.594  15.246   9.214 -0.1822  0.0018 -0.1698
 1151ERGO    R516272  16.517  15.043   9.211 -0.1629 -0.0049 -0.1565
 1151ERGO    C116273  16.632  15.076   8.848 -0.0050 -0.0812 -0.1145
 1151ERGO    C216274  16.568  15.127   8.561 -0.1105  0.0879 -0.1560
 1152ERGO   ROH16275   2.701   2.719   6.671  0.1487 -0.2860 -0.1303
 1152ERGO    R116276   2.887   2.745   6.883  0.0568 -0.1445 -0.0662
 1152ERGO    R216277   2.820   2.860   7.126 -0.1080 -0.1765 -0.0962
 1152ERGO    R316278   2.916   2.626   7.225  0.0208 -0.1044 -0.0485
 1152ERGO    R416279   2.912   2.807   7.455 -0.2441 -0.1035 -0.0460
 1152ERGO    R516280   3.082   2.692   7.384 -0.1135  0.0271  0.0426
 1152ERGO    C116281   3.055   2.557   7.740 -0.2024  0.0066  0.0281
 1152ERGO    C216282   2.948   2.486   8.085  0.3808 -0.1385  0.2524
 1153ERGO   ROH16283   8.005  10.736   9.771 -0.2205 -0.0039 -0.0125
 1153ERGO    R116284   7.880  10.831   9.535 -0.0955  0.0765 -0.0473
 1153ERGO    R216285   7.972  11.051   9.395  0.0600  0.0412  0.0005
 1153ERGO    R316286   7.973  10.877   9.186  0.0430  0.0577 -0.0135
 1153ERGO    R416287   7.908  11.136   9.067  0.0272  0.0690  0.0139
 1153ERGO    R516288   7.795  10.952   9.046  0.0273  0.0677  0.0097
 1153ERGO    C116289   7.873  11.023   8.679 -0.0078  0.1007  0.0084
 1153ERGO    C216290   7.847  11.106   8.409  0.0562  0.1735 -0.0802
 1154ERGO   ROH16291  14.012   4.114   9.074 -0.0417 -0.1234  0.0700
 1154ERGO    R116292  13.864   4.136   8.834 -0.1395 -0.1551  0.1258
 1154ERGO    R216293  13.986   4.154   8.586 -0.2356 -0.0185  0.0852
 1154ERGO    R316294  13.827   3.941   8.528 -0.1233 -0.1041  0.0920
 1154ERGO    R416295  13.906   4.047   8.267 -0.0974 -0.1362  0.0895
 1154ERGO    R516296  13.702   4.010   8.336 -0.0991 -0.2100  0.0395
 1154ERGO    C116297  13.710   3.785   8.027  0.0885 -0.2850  0.0982
 1154ERGO    C216298  13.648   3.704   7.676 -0.1168 -0.2605  0.0544
 1155ERGO   ROH16299   9.311  17.985   6.864  0.0235 -0.1663  0.0522
 1155ERGO    R116300   9.444  18.186   7.012  0.0752 -0.1989  0.0496
 1155ERGO    R216301   9.353  18.276   7.257  0.0346 -0.0916 -0.0058
 1155ERGO    R316302   9.604  18.212   7.338 -0.0261 -0.2011  0.1006
 1155ERGO    R416303   9.480  18.337   7.573  0.0285  0.1537 -0.0486
 1155ERGO    R516304   9.669  18.394   7.480  0.0906 -0.0923 -0.0855
 1155ERGO    C116305   9.791  18.312   7.832 -0.0321  0.1940  0.0264
 1155ERGO    C216306  10.004  18.406   8.199  0.0656  0.0273 -0.2489
 1156ERGO   ROH16307  11.344  17.994   6.639 -0.0683 -0.1631 -0.0097
 1156ERGO    R116308  11.220  18.132   6.852 -0.2217 -0.2948 -0.0110
 1156ERGO    R216309  11.096  18.002   7.062  0.0260 -0.4337  0.0554
 1156ERGO    R316310  11.262  18.156   7.213 -0.1580 -0.1449 -0.0275
 1156ERGO    R416311  11.027  18.113   7.382 -0.0695 -0.4190  0.0297
 1156ERGO    R516312  11.116  18.304   7.330 -0.3478 -0.3080 -0.0525
 1156ERGO    C116313  11.144  18.320   7.710 -0.2978 -0.1397 -0.0630
 1156ERGO    C216314  11.357  18.294   7.982 -0.0556  0.0451  0.0500
 1157ERGO   ROH16315   9.905   9.334   6.260 -0.1249  0.2088 -0.2259
 1157ERGO    R116316   9.706   9.336   6.461 -0.0836  0.1885 -0.1856
 1157ERGO    R216317   9.763   9.289   6.727 -0.0618 -0.0579 -0.2344
 1157ERGO    R316318   9.637   9.528   6.762  0.1048  0.0027 -0.0203
 1157ERGO    R416319   9.643   9.407   7.029 -0.0315 -0.2737 -0.1363
 1157ERGO    R516320   9.467   9.482   6.925  0.0400 -0.0394 -0.0975
 1157ERGO    C116321   9.456   9.699   7.239  0.1425 -0.3424  0.1219
 1157ERGO    C216322   9.350   9.798   7.575 -0.1591 -0.2674 -0.0575
 1158ERGO   ROH16323  10.536   3.451   6.403  0.0982  0.1277 -0.0365
 1158ERGO    R116324  10.673   3.574   6.618 -0.0652  0.1664  0.0461
 1158ERGO    R216325  10.559   3.606   6.867 -0.1016 -0.1783  0.0765
 1158ERGO    R316326  10.784   3.477   6.951  0.0894  0.0773 -0.0298
 1158ERGO    R416327  10.639   3.543   7.198 -0.0439 -0.3799  0.0263
 1158ERGO    R516328  10.847   3.592   7.151 -0.1072 -0.0172  0.0910
 1158ERGO    C116329  10.897   3.387   7.469  0.1691 -0.2572 -0.1027
 1158ERGO    C216330  11.007   3.176   7.807  0.0565 -0.3133 -0.3939
 1159ERGO   ROH16331   8.663   4.042   5.845 -0.1677 -0.0303 -0.2419
 1159ERGO    R116332   8.643   4.238   6.049 -0.0419 -0.0410 -0.2183
 1159ERGO    R216333   8.432   4.416   6.064 -0.0156 -0.0195 -0.0985
 1159ERGO    R316334   8.408   4.318   6.316  0.1034 -0.0325 -0.0918
 1159ERGO    R416335   8.305   4.591   6.333  0.1222 -0.0287 -0.0268
 1159ERGO    R516336   8.461   4.503   6.458  0.1801 -0.0418 -0.1070
 1159ERGO    C116337   8.209   4.600   6.727  0.3142 -0.0461  0.0213
 1159ERGO    C216338   7.869   4.682   6.711 -0.2123 -0.0764  0.2759
 1160ERGO   ROH16339   4.904   7.023   9.694 -0.1975  0.2547  0.1541
 1160ERGO    R116340   4.786   7.099   9.447 -0.0465  0.3376  0.1058
 1160ERGO    R216341   4.927   7.233   9.250  0.1654  0.1263  0.1071
 1160ERGO    R316342   4.842   7.026   9.095 -0.0415  0.1879  0.1370
 1160ERGO    R416343   4.915   7.234   8.904 -0.0589  0.1738  0.1142
 1160ERGO    R516344   4.725   7.130   8.915 -0.1068  0.2698  0.2252
 1160ERGO    C116345   4.828   7.041   8.559 -0.3837  0.2593  0.1462
 1160ERGO    C216346   4.841   7.039   8.252  0.2483 -0.0373  0.0266
 1161ERGO   ROH16347   0.422   6.727   6.191 -0.0051 -0.0269  0.1001
 1161ERGO    R116348   0.406   6.862   6.439  0.0580 -0.0325  0.1076
 1161ERGO    R216349   0.410   6.730   6.681  0.0961 -0.0407  0.1050
 1161ERGO    R316350   0.616   6.899   6.734  0.1227 -0.0609  0.0644
 1161ERGO    R416351   0.578   6.749   6.983  0.1176 -0.0071  0.0908
 1161ERGO    R516352   0.582   6.966   6.961  0.1473 -0.0142  0.0524
 1161ERGO    C116353   0.870   6.919   7.207  0.1551 -0.0066  0.0444
 1161ERGO    C216354   0.981   6.775   7.444  0.2338  0.3510 -0.2949
 1162ERGO   ROH16355  13.050  12.544   9.960 -0.1387 -0.2713  0.0847
 1162ERGO    R116356  13.048  12.482   9.684 -0.2442 -0.1626  0.0596
 1162ERGO    R216357  12.841  12.555   9.516 -0.1702  0.1732  0.1027
 1162ERGO    R316358  13.041  12.668   9.371 -0.0325 -0.0271  0.1346
 1162ERGO    R416359  12.848  12.577   9.171 -0.1000  0.1952  0.1058
 1162ERGO    R516360  13.060  12.529   9.177 -0.1530 -0.0294  0.1272
 1162ERGO    C116361  13.041  12.696   8.834  0.0700  0.0199  0.1376
 1162ERGO    C216362  12.817  12.679   8.555 -0.2019  0.0941  0.2135
 1163ERGO   ROH16363   1.810  11.102   6.472  0.0970  0.1558  0.0632
 1163ERGO    R116364   1.749  11.227   6.718  0.0749  0.1563  0.0584
 1163ERGO    R216365   1.834  11.127   6.962 -0.0567  0.0827  0.0800
 1163ERGO    R316366   1.936  11.377   6.992  0.0586  0.0281  0.1390
 1163ERGO    R416367   1.941  11.263   7.261 -0.3255  0.0953  0.1722
 1163ERGO    R516368   1.851  11.452   7.202 -0.1427  0.1325  0.0192
 1163ERGO    C116369   2.099  11.577   7.463 -0.3738  0.0516  0.2812
 1163ERGO    C216370   2.452  11.808   7.488  0.0829 -0.0982 -0.1108
 1164ERGO   ROH16371   0.429  15.563   6.597 -0.1849  0.2144 -0.0811
 1164ERGO    R116372   0.446  15.478   6.867  0.0325  0.1604 -0.1092
 1164ERGO    R216373   0.639  15.571   7.041  0.0028  0.3418 -0.1697
 1164ERGO    R316374   0.424  15.634   7.195 -0.0073  0.0504 -0.0595
 1164ERGO    R416375   0.655  15.734   7.345 -0.0467  0.1072 -0.0394
 1164ERGO    R516376   0.500  15.600   7.420  0.0763 -0.0743 -0.1061
 1164ERGO    C116377   0.462  15.888   7.667 -0.0850 -0.3029  0.1399
 1164ERGO    C216378   0.358  15.951   8.010  0.0756  0.0744  0.1092
 1165ERGO   ROH16379   3.129   8.355   6.474 -0.0729 -0.2264 -0.0580
 1165ERGO    R116380   2.925   8.515   6.587  0.1055 -0.0189 -0.0234
 1165ERGO    R216381   2.716   8.408   6.732 -0.1018  0.1658 -0.1816
 1165ERGO    R316382   2.798   8.585   6.921  0.0772 -0.0818 -0.0204
 1165ERGO    R416383   2.539   8.490   7.017  0.0556 -0.0288 -0.0248
 1165ERGO    R516384   2.598   8.698   6.989  0.1691 -0.0309  0.1744
 1165ERGO    C116385   2.513   8.704   7.361  0.3153 -0.3746  0.2177
 1165ERGO    C216386   2.571   8.772   7.689 -0.2878  0.2630  0.0797
 1166ERGO   ROH16387  15.554   7.614   9.270 -0.1631  0.1695 -0.0324
 1166ERGO    R116388  15.647   7.517   9.021  0.0046  0.0919  0.0603
 1166ERGO    R216389  15.545   7.607   8.780  0.1154 -0.0428 -0.0244
 1166ERGO    R316390  15.807   7.658   8.726  0.1304  0.0077  0.0828
 1166ERGO    R416391  15.669   7.692   8.468  0.2532 -0.3979 -0.0731
 1166ERGO    R516392  15.841   7.564   8.508  0.3027 -0.2777  0.2148
 1166ERGO    C116393  15.986   7.790   8.236  0.3473 -0.5573 -0.0007
 1166ERGO    C216394  16.140   7.709   7.830 -0.3129  0.1358  0.1597
 1167ERGO   ROH16395   1.778   9.127   6.521  0.1751  0.2808 -0.0933
 1167ERGO    R116396   1.890   9.148   6.781  0.0357  0.1179 -0.0181
 1167ERGO    R216397   2.008   8.934   6.910  0.0106  0.0489 -0.1092
 1167ERGO    R316398   2.218   9.105   6.932 -0.0339  0.0766  0.1240
 1167ERGO    R416399   2.198   8.978   7.195 -0.1781 -0.0843  0.0393
 1167ERGO    R516400   2.201   9.192   7.154 -0.1915 -0.0580  0.1670
 1167ERGO    C116401   2.506   9.164   7.382 -0.3296 -0.1360  0.3446
 1167ERGO    C216402   2.830   9.174   7.656 -0.2085  0.0157  0.1907
 1168ERGO   ROH16403  12.497  12.310   6.141 -0.2145  0.0865  0.0051
 1168ERGO    R116404  12.651  12.244   6.369 -0.2023 -0.1374 -0.0652
 1168ERGO    R216405  12.713  12.428   6.564  0.2534 -0.1911 -0.1463
 1168ERGO    R316406  12.602  12.243   6.730 -0.0033  0.0537 -0.0371
 1168ERGO    R416407  12.814  12.368   6.889  0.0871 -0.0726 -0.0710
 1168ERGO    R516408  12.787  12.155   6.853 -0.1420 -0.0689  0.0816
 1168ERGO    C116409  12.769  12.160   7.234 -0.2506  0.2260  0.0754
 1168ERGO    C216410  12.718  12.255   7.563 -0.1570 -0.2970  0.1393
 1169ERGO   ROH16411  17.528  15.466  10.232  0.3076  0.1921 -0.0204
 1169ERGO    R116412  17.610  15.482   9.961  0.1642 -0.0726 -0.0813
 1169ERGO    R216413  17.528  15.300   9.770 -0.2880 -0.0103  0.0540
 1169ERGO    R316414  17.448  15.524   9.638  0.0292  0.0798  0.0010
 1169ERGO    R416415  17.586  15.363   9.435 -0.2675 -0.2334  0.0132
 1169ERGO    R516416  17.628  15.571   9.486  0.0809 -0.2652 -0.0655
 1169ERGO    C116417  17.544  15.609   9.116  0.0424 -0.2786 -0.0602
 1169ERGO    C216418  17.525  15.598   8.753 -0.0036  0.2437  0.2480
 1170ERGO   ROH16419   6.358  10.293   9.959 -0.1470 -0.3980  0.0507
 1170ERGO    R116420   6.427  10.320   9.686  0.0174 -0.3747  0.0946
 1170ERGO    R216421   6.255  10.251   9.481  0.0632 -0.1604 -0.0117
 1170ERGO    R316422   6.302  10.505   9.399  0.3293 -0.1763  0.0800
 1170ERGO    R416423   6.200  10.367   9.160 -0.2722  0.1106  0.1368
 1170ERGO    R516424   6.386  10.481   9.176 -0.0570 -0.1828 -0.0786
 1170ERGO    C116425   6.213  10.674   8.896 -0.2177  0.2535  0.3094
 1170ERGO    C216426   6.212  10.698   8.504 -0.0709  0.1090  0.0392
 1171ERGO   ROH16427  13.865  15.544  10.004 -0.1437 -0.2679 -0.0135
 1171ERGO    R116428  13.942  15.440   9.752 -0.2348 -0.4313  0.0239
 1171ERGO    R216429  13.759  15.386   9.552 -0.2604 -0.0251 -0.0764
 1171ERGO    R316430  13.920  15.547   9.405  0.1810 -0.3652  0.0149
 1171ERGO    R416431  13.767  15.396   9.207 -0.1200  0.0462 -0.0712
 1171ERGO    R516432  13.984  15.413   9.217 -0.0732 -0.4725  0.0053
 1171ERGO    C116433  13.923  15.553   8.868  0.3762 -0.2317  0.0174
 1171ERGO    C216434  13.869  15.635   8.525  0.0264 -0.1423 -0.0695
 1172ERGO   ROH16435  14.115   6.886   5.935 -0.0046 -0.1714 -0.0265
 1172ERGO    R116436  14.127   6.919   6.216  0.1062 -0.1491 -0.0331
 1172ERGO    R216437  13.901   6.930   6.374  0.1446  0.2962  0.0085
 1172ERGO    R316438  14.025   6.729   6.508 -0.1997  0.0789  0.0119
 1172ERGO    R416439  13.906   6.895   6.718  0.0155  0.2344  0.0045
 1172ERGO    R516440  14.114   6.834   6.704 -0.0767 -0.0915  0.0459
 1172ERGO    C116441  14.025   6.686   7.044 -0.3828 -0.0056  0.0054
 1172ERGO    C216442  13.847   6.760   7.365  0.1983 -0.2280 -0.3519
 1173ERGO   ROH16443  17.755   9.633   5.978  0.1664  0.1578  0.0341
 1173ERGO    R116444  17.796   9.847   6.159  0.0598  0.2383 -0.0357
 1173ERGO    R216445  17.588   9.973   6.290  0.0165 -0.0359  0.1645
 1173ERGO    R316446  17.732   9.910   6.511  0.3383  0.1900  0.0265
 1173ERGO    R416447  17.504  10.064   6.612  0.1448 -0.2175  0.2512
 1173ERGO    R516448  17.715  10.104   6.650  0.1203  0.1521  0.0596
 1173ERGO    C116449  17.591  10.059   7.008  0.5218 -0.1113  0.1721
 1173ERGO    C216450  17.701   9.943   7.298  0.1433  0.1507  0.0897
 1174ERGO   ROH16451   7.377   6.247   9.561  0.0020 -0.3946 -0.1818
 1174ERGO    R116452   7.301   6.156   9.304  0.0109 -0.1543 -0.2724
 1174ERGO    R216453   7.039   6.161   9.215 -0.0057 -0.1962 -0.2250
 1174ERGO    R316454   7.146   6.299   9.007 -0.1124  0.0902 -0.0937
 1174ERGO    R416455   6.969   6.101   8.882  0.1731 -0.0547 -0.2892
 1174ERGO    R516456   7.180   6.134   8.837  0.1520  0.2471 -0.2019
 1174ERGO    C116457   7.028   6.197   8.493  0.1771  0.2965 -0.2034
 1174ERGO    C216458   6.964   6.111   8.221  0.0201  0.0162  0.2484
 1175ERGO   ROH16459  16.263   4.358   6.124  0.2257  0.2017 -0.0876
 1175ERGO    R116460  16.345   4.188   6.335 -0.0701  0.1024 -0.0502
 1175ERGO    R216461  16.609   4.161   6.411 -0.1356 -0.2123  0.0673
 1175ERGO    R316462  16.511   4.226   6.656 -0.1656 -0.0989  0.0262
 1175ERGO    R416463  16.781   4.125   6.709 -0.1208  0.0340  0.0905
 1175ERGO    R516464  16.597   4.056   6.801 -0.0997  0.0184  0.1308
 1175ERGO    C116465  16.789   4.166   7.112 -0.1407  0.2839  0.0655
 1175ERGO    C216466  17.012   4.060   7.195  0.2312 -0.2390 -0.0734
 1176ERGO   ROH16467   4.116   0.478   7.120  0.1839  0.5092 -0.0375
 1176ERGO    R116468   4.235   0.516   7.374  0.0291  0.2903  0.0695
 1176ERGO    R216469   4.095   0.484   7.610 -0.1119  0.0797 -0.0447
 1176ERGO    R316470   4.297   0.313   7.670 -0.1437  0.0330 -0.0651
 1176ERGO    R416471   4.183   0.390   7.930 -0.0906  0.0821 -0.0489
 1176ERGO    R516472   4.393   0.403   7.871 -0.0920  0.0272 -0.0833
 1176ERGO    C116473   4.425   0.174   8.174 -0.1081  0.0397 -0.0706
 1176ERGO    C216474   4.176   0.141   8.447 -0.2565  0.0248 -0.0764
 1177ERGO   ROH16475  13.119  16.127  10.185 -0.1329 -0.1631 -0.1141
 1177ERGO    R116476  13.003  16.129   9.927 -0.0706  0.0434 -0.1413
 1177ERGO    R216477  13.066  16.321   9.738  0.2262  0.0033 -0.0850
 1177ERGO    R316478  13.122  16.104   9.584 -0.0229 -0.0401 -0.1199
 1177ERGO    R416479  13.071  16.319   9.392  0.0262  0.0070 -0.0896
 1177ERGO    R516480  12.975  16.124   9.396 -0.1198  0.0745 -0.0369
 1177ERGO    C116481  13.127  16.114   9.047 -0.3240 -0.0315 -0.1253
 1177ERGO    C216482  13.125  16.146   8.761  0.1555  0.0950 -0.1580
 1178ERGO   ROH16483   9.316   1.075   6.567 -0.1192 -0.1678  0.0180
 1178ERGO    R116484   9.415   1.209   6.796  0.1163 -0.1334 -0.1018
 1178ERGO    R216485   9.303   1.177   7.048  0.1717  0.1522 -0.0441
 1178ERGO    R316486   9.557   1.112   7.117  0.1263 -0.0897 -0.0910
 1178ERGO    R416487   9.417   1.144   7.372  0.2848  0.4696 -0.0472
 1178ERGO    R516488   9.601   1.243   7.312  0.3976  0.1451 -0.2947
 1178ERGO    C116489   9.723   1.064   7.626  0.3080  0.4273 -0.0930
 1178ERGO    C216490   9.823   1.073   7.909  0.0071 -0.2076 -0.2873
 1179ERGO   ROH16491  14.430  14.267   6.490 -0.0113  0.0374  0.1952
 1179ERGO    R116492  14.355  14.314   6.759 -0.1378  0.0092  0.1618
 1179ERGO    R216493  14.120  14.217   6.866 -0.0100 -0.3003  0.1288
 1179ERGO    R316494  14.286  14.111   7.053  0.0948  0.0006  0.2182
 1179ERGO    R416495  14.030  14.141   7.191 -0.1497 -0.6761  0.0099
 1179ERGO    R516496  14.222  14.218   7.258 -0.3644 -0.2320  0.2249
 1179ERGO    C116497  14.134  13.996   7.555 -0.1326 -0.6124  0.0245
 1179ERGO    C216498  13.791  13.844   7.802  0.2568  0.2040  0.2399
 1180ERGO   ROH16499  12.044  12.805  10.213 -0.2272 -0.1194 -0.0589
 1180ERGO    R116500  12.010  13.009  10.020 -0.1210 -0.1414 -0.1013
 1180ERGO    R216501  12.216  13.176   9.941 -0.1046 -0.0781  0.0769
 1180ERGO    R316502  12.148  13.089   9.693  0.1484 -0.1127  0.0164
 1180ERGO    R416503  12.200  13.375   9.659  0.0941 -0.0966  0.0509
 1180ERGO    R516504  12.020  13.268   9.600  0.1779 -0.1549 -0.1097
 1180ERGO    C116505  12.127  13.409   9.262  0.4472 -0.1399 -0.0211
 1180ERGO    C216506  12.049  13.467   8.857 -0.0184  0.1436 -0.0621
 1181ERGO   ROH16507   1.135   0.812   6.809  0.0162 -0.0113  0.2055
 1181ERGO    R116508   0.897   0.861   6.954 -0.0263  0.0285  0.1248
 1181ERGO    R216509   0.724   0.659   7.030 -0.0726  0.0508  0.0957
 1181ERGO    R316510   0.760   0.765   7.278 -0.1352  0.0777  0.0922
 1181ERGO    R416511   0.586   0.533   7.321 -0.0233  0.0048  0.0986
 1181ERGO    R516512   0.548   0.738   7.385 -0.1221 -0.0153  0.0865
 1181ERGO    C116513   0.539   0.560   7.723 -0.0533  0.0032  0.0970
 1181ERGO    C216514   0.564   0.377   8.007  0.3882 -0.1465 -0.2572
 1182ERGO   ROH16515   9.460   8.267   9.510  0.1647 -0.1678 -0.1194
 1182ERGO    R116516   9.591   8.343   9.271  0.1339  0.0607 -0.0657
 1182ERGO    R216517   9.601   8.180   9.048  0.3247  0.1669 -0.1349
 1182ERGO    R316518   9.496   8.397   8.924  0.1412  0.1245 -0.0586
 1182ERGO    R416519   9.566   8.213   8.706  0.2313  0.2229 -0.1203
 1182ERGO    R516520   9.628   8.421   8.725  0.0865  0.2670 -0.0813
 1182ERGO    C116521   9.447   8.437   8.390  0.0047  0.2158 -0.0400
 1182ERGO    C216522   9.299   8.468   8.099 -0.0514  0.2315  0.0420
 1183ERGO   ROH16523   9.026   5.528   5.614 -0.0758  0.0321  0.0219
 1183ERGO    R116524   8.997   5.568   5.892  0.0696  0.1294  0.0239
 1183ERGO    R216525   8.917   5.367   6.064 -0.0678  0.2509  0.1013
 1183ERGO    R316526   9.145   5.432   6.196  0.0493  0.0541  0.0010
 1183ERGO    R416527   8.983   5.289   6.394 -0.1078  0.4158  0.1495
 1183ERGO    R516528   9.072   5.486   6.418  0.1606  0.3237 -0.0225
 1183ERGO    C116529   9.237   5.304   6.710 -0.0210  0.3270  0.0835
 1183ERGO    C216530   9.415   5.430   6.992 -0.5300 -0.0310  0.0377
 1184ERGO   ROH16531   0.394   2.057  10.264  0.0280 -0.0708  0.0267
 1184ERGO    R116532   0.388   1.917  10.018  0.0151 -0.0478  0.0129
 1184ERGO    R216533   0.235   2.000   9.804 -0.0715 -0.0792  0.0567
 1184ERGO    R316534   0.472   1.989   9.671 -0.0990  0.0212  0.0000
 1184ERGO    R416535   0.271   1.909   9.472 -0.0937 -0.2098  0.0906
 1184ERGO    R516536   0.450   1.798   9.528 -0.0042 -0.0595  0.0956
 1184ERGO    C116537   0.515   1.845   9.155 -0.1324 -0.1916  0.0570
 1184ERGO    C216538   0.533   1.936   8.788 -0.1897 -0.0718 -0.1731
 1185ERGO   ROH16539   8.998  16.940  10.295  0.2291 -0.1385 -0.0554
 1185ERGO    R116540   8.984  17.081  10.050  0.2051 -0.0521 -0.0055
 1185ERGO    R216541   9.186  17.074   9.862  0.1803 -0.0013 -0.0377
 1185ERGO    R316542   8.985  16.997   9.695  0.1509  0.0688 -0.0344
 1185ERGO    R416543   9.211  17.058   9.518  0.1472  0.0448 -0.0419
 1185ERGO    R516544   9.009  17.139   9.504  0.1662  0.0908 -0.0140
 1185ERGO    C116545   9.037  16.975   9.161  0.1004  0.1375 -0.0413
 1185ERGO    C216546   9.174  17.057   8.911  0.1107  0.1524 -0.3469
 1186ERGO   ROH16547  13.680   7.787   5.895  0.0723  0.1589 -0.0010
 1186ERGO    R116548  13.608   7.782   6.168 -0.0383 -0.0981 -0.0334
 1186ERGO    R216549  13.487   7.562   6.286  0.1839 -0.3204 -0.2209
 1186ERGO    R316550  13.694   7.583   6.461  0.0836 -0.1702 -0.1155
 1186ERGO    R416551  13.456   7.562   6.630 -0.0402  0.0983 -0.2331
 1186ERGO    R516552  13.608   7.718   6.640  0.0013  0.0729 -0.3259
 1186ERGO    C116553  13.633   7.581   6.995 -0.2648  0.4830 -0.1415
 1186ERGO    C216554  13.688   7.482   7.408 -0.3943 -0.2865  0.0953
 1187ERGO   ROH16555   8.385  10.912   6.126 -0.0361 -0.0145  0.0266
 1187ERGO    R116556   8.373  10.886   6.408  0.0844 -0.0325  0.0301
 1187ERGO    R216557   8.531  11.036   6.577  0.0434  0.0697 -0.0255
 1187ERGO    R316558   8.293  11.102   6.689  0.0385 -0.0974  0.0682
 1187ERGO    R416559   8.493  11.237   6.856  0.0092  0.2467 -0.1558
 1187ERGO    R516560   8.336  11.103   6.925  0.1888  0.1279  0.0458
 1187ERGO    C116561   8.246  11.416   7.123 -0.0152  0.1928 -0.1437
 1187ERGO    C216562   7.854  11.523   7.277  0.0621  0.2016 -0.0257
 1188ERGO   ROH16563   6.454   5.559   6.181 -0.0460 -0.1623  0.0184
 1188ERGO    R116564   6.610   5.662   6.394  0.0205 -0.0417 -0.0880
 1188ERGO    R216565   6.534   5.883   6.540 -0.0369 -0.0839 -0.0571
 1188ERGO    R316566   6.568   5.715   6.751  0.2128 -0.0458 -0.0627
 1188ERGO    R416567   6.649   5.978   6.852 -0.2119  0.0916 -0.0436
 1188ERGO    R516568   6.766   5.794   6.859  0.0846  0.2700 -0.0429
 1188ERGO    C116569   6.748   5.875   7.232 -0.0794  0.2296 -0.0411
 1188ERGO    C216570   6.595   5.684   7.550  0.1530  0.4042  0.0884
 1189ERGO   ROH16571   0.469   2.603   6.396  0.0738  0.1623  0.1767
 1189ERGO    R116572   0.394   2.617   6.669 -0.0436  0.1242  0.1477
 1189ERGO    R216573   0.577   2.605   6.875 -0.1526 -0.1731  0.2363
 1189ERGO    R316574   0.460   2.837   6.951  0.0699 -0.0725  0.2770
 1189ERGO    R416575   0.566   2.724   7.199  0.0730 -0.1547  0.2377
 1189ERGO    R516576   0.361   2.788   7.163  0.1115  0.0152  0.3161
 1189ERGO    C116577   0.449   3.013   7.459  0.4133 -0.0496  0.2766
 1189ERGO    C216578   0.664   3.141   7.722 -0.2277 -0.1285 -0.2877
 1190ERGO   ROH16579   9.899  11.986   9.539 -0.1475 -0.1598 -0.0505
 1190ERGO    R116580   9.955  11.910   9.272 -0.1321 -0.1645 -0.0463
 1190ERGO    R216581   9.762  11.807   9.103 -0.1596 -0.0173 -0.1065
 1190ERGO    R316582   9.844  12.009   8.940  0.0135 -0.0500 -0.0621
 1190ERGO    R416583   9.738  11.805   8.758 -0.1162  0.0555 -0.1100
 1190ERGO    R516584   9.935  11.898   8.749 -0.0434 -0.0888 -0.0676
 1190ERGO    C116585   9.799  11.993   8.405  0.0717  0.0671 -0.0702
 1190ERGO    C216586   9.469  12.068   8.253  0.0180 -0.2054  0.1802
 1191ERGO   ROH16587  17.496  13.622   6.277 -0.1667  0.1574  0.1512
 1191ERGO    R116588  17.606  13.377   6.366 -0.3540  0.0718  0.1543
 1191ERGO    R216589  17.850  13.362   6.494 -0.1397 -0.1608 -0.2570
 1191ERGO    R316590  17.706  13.233   6.685 -0.0019  0.1979  0.1047
 1191ERGO    R416591  17.972  13.108   6.694 -0.2272 -0.3765 -0.4732
 1191ERGO    R516592  17.781  13.005   6.671 -0.5187  0.0238 -0.0202
 1191ERGO    C116593  17.908  12.838   6.989 -0.1487 -0.1652 -0.2595
 1191ERGO    C216594  17.978  12.791   7.353 -0.4354 -0.0152  0.0386
 1192ERGO   ROH16595   5.567   0.791   6.663  0.1284  0.0312 -0.0078
 1192ERGO    R116596   5.576   0.786   6.946  0.1666  0.0682 -0.0085
 1192ERGO    R216597   5.729   0.964   7.093  0.0535  0.1967 -0.0471
 1192ERGO    R316598   5.492   1.014   7.217  0.0312  0.0357 -0.0219
 1192ERGO    R416599   5.695   1.118   7.401 -0.0172  0.2328 -0.0726
 1192ERGO    R516600   5.537   0.976   7.449  0.0988  0.1160 -0.0200
 1192ERGO    C116601   5.452   1.255   7.696 -0.0793  0.1026 -0.0639
 1192ERGO    C216602   5.436   1.486   7.993  0.1097 -0.2336 -0.2625
 1193ERGO   ROH16603  17.866  14.301   6.169 -0.0214  0.1894 -0.1423
 1193ERGO    R116604  17.855  14.430   6.420 -0.0259  0.1116 -0.1020
 1193ERGO    R216605  17.679  14.354   6.619 -0.0033  0.0242 -0.1132
 1193ERGO    R316606  17.906  14.336   6.768  0.0091  0.0126 -0.1339
 1193ERGO    R416607  17.690  14.371   6.964  0.0319  0.0271 -0.1146
 1193ERGO    R516608  17.871  14.492   6.948  0.0363  0.0155 -0.1325
 1193ERGO    C116609  17.909  14.364   7.305  0.0640  0.0179 -0.1348
 1193ERGO    C216610  17.934  14.455   7.680  0.0087 -0.1306 -0.0942
 1194ERGO   ROH16611  17.695  12.945   9.622 -0.0594  0.2040 -0.0635
 1194ERGO    R116612  17.612  13.040   9.369  0.0682  0.3126 -0.0659
 1194ERGO    R216613  17.766  13.210   9.215  0.3718 -0.0157 -0.1359
 1194ERGO    R316614  17.731  13.018   9.025 -0.0419  0.0023 -0.0880
 1194ERGO    R416615  17.792  13.261   8.874  0.4794 -0.1520 -0.1496
 1194ERGO    R516616  17.620  13.131   8.846  0.1911  0.2019 -0.1136
 1194ERGO    C116617  17.774  13.111   8.498  0.1538 -0.2145 -0.1126
 1194ERGO    C216618  17.755  13.151   8.199 -0.0849 -0.2110 -0.1764
 1195ERGO   ROH16619  10.793   3.213   9.563 -0.0854  0.1415  0.0153
 1195ERGO    R116620  10.654   3.080   9.355 -0.1323  0.1687  0.0289
 1195ERGO    R216621  10.524   3.216   9.152  0.0362  0.1936 -0.0667
 1195ERGO    R316622  10.678   3.059   8.992 -0.0405  0.0025  0.0443
 1195ERGO    R416623  10.483   3.180   8.811  0.1944  0.1851 -0.0859
 1195ERGO    R516624  10.525   2.967   8.833 -0.0473  0.1430 -0.0286
 1195ERGO    C116625  10.603   3.011   8.463  0.2145  0.0008  0.0073
 1195ERGO    C216626  10.540   2.955   8.170  0.3374 -0.2280  0.1606
 1196ERGO   ROH16627   6.956  12.531  10.248  0.1364 -0.1641 -0.1760
 1196ERGO    R116628   6.820  12.490  10.003  0.1592 -0.1529 -0.1904
 1196ERGO    R216629   6.632  12.668   9.906  0.1165 -0.1844 -0.1649
 1196ERGO    R316630   6.791  12.665   9.685  0.1279 -0.0991 -0.1581
 1196ERGO    R416631   6.518  12.625   9.583  0.1031  0.1993 -0.2160
 1196ERGO    R516632   6.692  12.499   9.544  0.0110  0.1034 -0.3204
 1196ERGO    C116633   6.601  12.598   9.187  0.1061  0.5027 -0.2392
 1196ERGO    C216634   6.633  12.612   8.929  0.1568  0.0741  0.3343
 1197ERGO   ROH16635  17.206  15.257   6.312 -0.1912  0.1780 -0.0020
 1197ERGO    R116636  17.351  15.266   6.555 -0.1264  0.1641 -0.0394
 1197ERGO    R216637  17.302  15.455   6.751 -0.2132  0.0309  0.0710
 1197ERGO    R316638  17.273  15.236   6.909 -0.0028 -0.0728 -0.0305
 1197ERGO    R416639  17.427  15.425   7.071 -0.0702 -0.0529  0.0079
 1197ERGO    R516640  17.481  15.219   7.026  0.0536  0.0072 -0.1198
 1197ERGO    C116641  17.473  15.202   7.407  0.2108 -0.1991 -0.1242
 1197ERGO    C216642  17.523  15.353   7.697  0.0280  0.2235 -0.1980
 1198ERGO   ROH16643   7.113  13.403   6.615 -0.0666 -0.0207 -0.0535
 1198ERGO    R116644   6.987  13.296   6.846 -0.0147 -0.0582 -0.0425
 1198ERGO    R216645   6.790  13.103   6.832 -0.0559 -0.0169 -0.0327
 1198ERGO    R316646   6.955  12.969   7.001 -0.0281 -0.0940 -0.1198
 1198ERGO    R416647   6.686  12.874   7.069 -0.0331 -0.0069 -0.0131
 1198ERGO    R516648   6.833  12.958   7.207  0.0573 -0.0738 -0.0672
 1198ERGO    C116649   6.780  12.615   7.367  0.0064 -0.0736 -0.0835
 1198ERGO    C216650   6.767  12.371   7.691 -0.0797  0.1890  0.0643
 1199ERGO   ROH16651   8.326   3.889   9.785 -0.0712 -0.1576 -0.0151
 1199ERGO    R116652   8.456   3.797   9.551  0.0547 -0.0080 -0.0056
 1199ERGO    R216653   8.336   3.625   9.371  0.2214 -0.0500 -0.0805
 1199ERGO    R316654   8.401   3.819   9.192  0.1311  0.0427 -0.0141
 1199ERGO    R416655   8.324   3.589   9.027  0.3411  0.0296 -0.0935
 1199ERGO    R516656   8.510   3.701   9.014  0.2640  0.1668 -0.0152
 1199ERGO    C116657   8.378   3.750   8.659  0.3260  0.1630 -0.0388
 1199ERGO    C216658   8.300   3.625   8.355 -0.0997 -0.1845  0.1070
 1200ERGO   ROH16659   2.769  14.333   6.765  0.1432 -0.2698 -0.1083
 1200ERGO    R116660   2.645  14.297   7.017  0.0342 -0.2597 -0.1587
 1200ERGO    R216661   2.649  14.056   7.153  0.2250 -0.1832 -0.0128
 1200ERGO    R316662   2.751  14.208   7.354 -0.0565  0.0546 -0.0447
 1200ERGO    R416663   2.623  13.982   7.490  0.1760 -0.0334  0.0160
 1200ERGO    R516664   2.588  14.193   7.529 -0.1114 -0.0590 -0.1093
 1200ERGO    C116665   2.705  14.082   7.874 -0.1169  0.2770  0.0028
 1200ERGO    C216666   2.862  14.026   8.219  0.0513  0.0642 -0.4616
 1201ERGO   ROH16667  11.523  12.905   5.929 -0.1337  0.0152 -0.0870
 1201ERGO    R116668  11.455  12.904   6.203 -0.1517 -0.2319 -0.0897
 1201ERGO    R216669  11.292  13.095   6.317  0.1146 -0.1278  0.1396
 1201ERGO    R316670  11.150  12.878   6.400 -0.2059 -0.0376 -0.1492
 1201ERGO    R416671  11.090  13.086   6.598  0.2255 -0.2537  0.2165
 1201ERGO    R516672  11.165  12.886   6.639 -0.0838 -0.4496 -0.1394
 1201ERGO    C116673  10.840  12.878   6.839 -0.0108 -0.2422 -0.0099
 1201ERGO    C216674  10.470  12.858   6.943 -0.2599  0.1101  0.0319
 1202ERGO   ROH16675  13.805  12.805   6.514  0.2212  0.1029  0.2278
 1202ERGO    R116676  13.853  12.623   6.726  0.2914  0.1181  0.2253
 1202ERGO    R216677  14.001  12.690   6.949  0.0695  0.2503  0.3369
 1202ERGO    R316678  13.780  12.605   7.082  0.0742 -0.0298  0.1752
 1202ERGO    R416679  13.987  12.627   7.288 -0.0834  0.1707  0.3166
 1202ERGO    R516680  13.864  12.452   7.246  0.1429  0.0343  0.2006
 1202ERGO    C116681  13.770  12.511   7.611 -0.1681 -0.1386  0.1529
 1202ERGO    C216682  13.882  12.512   7.961 -0.0564  0.0404  0.0735
 1203ERGO   ROH16683  15.309  12.139   5.954  0.0336  0.0205 -0.0466
 1203ERGO    R116684  15.277  12.188   6.231 -0.0411 -0.0656 -0.0391
 1203ERGO    R216685  15.114  12.033   6.391 -0.0233 -0.1662 -0.1136
 1203ERGO    R316686  15.340  12.007   6.540 -0.0440 -0.1294 -0.0763
 1203ERGO    R416687  15.125  11.913   6.715 -0.0924  0.1199 -0.0024
 1203ERGO    R516688  15.273  12.066   6.762 -0.0310  0.0989 -0.1320
 1203ERGO    C116689  15.344  11.818   7.043 -0.1520  0.3210  0.0975
 1203ERGO    C216690  15.395  11.653   7.343 -0.2706 -0.0544  0.2121
 1204ERGO   ROH16691  16.127   9.075   9.268  0.2092 -0.2181  0.0629
 1204ERGO    R116692  16.062   9.131   8.998  0.0269 -0.0271  0.1436
 1204ERGO    R216693  16.249   9.218   8.815 -0.0606 -0.0567  0.0385
 1204ERGO    R316694  16.159   9.006   8.671 -0.3234  0.0814 -0.0076
 1204ERGO    R416695  16.261   9.195   8.471  0.0293 -0.0492  0.0411
 1204ERGO    R516696  16.063   9.104   8.475 -0.1103  0.2408 -0.0363
 1204ERGO    C116697  16.184   8.982   8.134 -0.1650  0.0847 -0.0004
 1204ERGO    C216698  16.369   8.987   7.832  0.1144  0.1482 -0.0900
 1205ERGO   ROH16699  15.832   7.042   6.283 -0.0009 -0.0319 -0.0632
 1205ERGO    R116700  15.793   7.044   6.564  0.0327 -0.1020 -0.0578
 1205ERGO    R216701  15.805   6.814   6.718  0.2331 -0.1147 -0.0921
 1205ERGO    R316702  15.989   6.958   6.858  0.1388  0.0099 -0.0938
 1205ERGO    R416703  15.928   6.730   7.030  0.2624 -0.0152 -0.0763
 1205ERGO    R516704  15.919   6.940   7.085  0.1325 -0.0124 -0.0958
 1205ERGO    C116705  16.172   6.816   7.343  0.1908  0.1598 -0.0689
 1205ERGO    C216706  16.404   6.693   7.721  0.3956  0.0535 -0.0847
 1206ERGO   ROH16707  10.370  16.493  10.261  0.1109 -0.1624 -0.2353
 1206ERGO    R116708  10.368  16.614  10.006 -0.1674 -0.0236 -0.1740
 1206ERGO    R216709  10.540  16.536   9.803 -0.0694  0.3835 -0.2665
 1206ERGO    R316710  10.309  16.507   9.663 -0.0639  0.0444 -0.2121
 1206ERGO    R416711  10.508  16.584   9.462 -0.2599  0.5055 -0.2317
 1206ERGO    R516712  10.317  16.682   9.499 -0.4252  0.1457 -0.1255
 1206ERGO    C116713  10.273  16.586   9.132 -0.3657  0.2582 -0.1604
 1206ERGO    C216714  10.423  16.480   8.800  0.1347 -0.0571 -0.1171
 1207ERGO   ROH16715   5.277   5.184   6.387  0.3016  0.0606  0.0017
 1207ERGO    R116716   5.176   5.037   6.607  0.1530 -0.0852 -0.1606
 1207ERGO    R216717   5.276   4.791   6.680  0.3515  0.0275 -0.0408
 1207ERGO    R316718   5.305   4.911   6.923 -0.1520  0.0458  0.0212
 1207ERGO    R416719   5.312   4.623   6.980  0.3281  0.0412 -0.0303
 1207ERGO    R516720   5.181   4.771   7.073 -0.0647 -0.2185 -0.1468
 1207ERGO    C116721   5.360   4.638   7.383 -0.1582  0.0664  0.0341
 1207ERGO    C216722   5.455   4.321   7.570  0.0794 -0.0252  0.0241
 1208ERGO   ROH16723  11.825  10.031   6.209 -0.0321 -0.1425  0.0229
 1208ERGO    R116724  11.658  10.144   6.408  0.0681  0.0642 -0.0070
 1208ERGO    R216725  11.520   9.990   6.592 -0.2121  0.2249 -0.0748
 1208ERGO    R316726  11.646  10.150   6.771 -0.0308  0.0125 -0.0092
 1208ERGO    R416727  11.401  10.066   6.907  0.0367 -0.0308  0.0851
 1208ERGO    R516728  11.470  10.271   6.879  0.0851 -0.0265  0.2311
 1208ERGO    C116729  11.450  10.261   7.259  0.3517 -0.3790  0.2400
 1208ERGO    C216730  11.544  10.071   7.529 -0.1705 -0.0281 -0.3885
 1209ERGO   ROH16731  12.471   3.904   9.418 -0.1318 -0.0021 -0.0432
 1209ERGO    R116732  12.343   3.728   9.237 -0.1204  0.0171 -0.0690
 1209ERGO    R216733  12.094   3.780   9.130 -0.0899  0.0494 -0.1125
 1209ERGO    R316734  12.224   3.742   8.894 -0.0569  0.0335 -0.0926
 1209ERGO    R416735  11.947   3.660   8.841 -0.0535 -0.0097 -0.1070
 1209ERGO    R516736  12.126   3.542   8.804 -0.0284  0.0040 -0.0711
 1209ERGO    C116737  11.983   3.556   8.451 -0.0014 -0.0591 -0.0851
 1209ERGO    C216738  11.878   3.668   8.154  0.2466 -0.2460 -0.2193
 1210ERGO   ROH16739  16.624  13.252   6.278  0.2892  0.0329 -0.1295
 1210ERGO    R116740  16.745  13.221   6.532  0.1790  0.1490 -0.0611
 1210ERGO    R216741  16.668  13.368   6.753 -0.1134  0.0497 -0.0909
 1210ERGO    R316742  16.638  13.122   6.866  0.0929  0.0051 -0.1312
 1210ERGO    R416743  16.673  13.305   7.093 -0.1074 -0.0002 -0.1004
 1210ERGO    R516744  16.788  13.124   7.053  0.0623  0.1117 -0.1096
 1210ERGO    C116745  16.648  13.037   7.397  0.0901 -0.0713 -0.1437
 1210ERGO    C216746  16.517  12.910   7.665 -0.1150 -0.2645  0.1654
 1211ERGO   ROH16747  12.503   8.840   6.134 -0.2470  0.2675  0.0561
 1211ERGO    R116748  12.289   8.774   6.307 -0.2974  0.1414 -0.0527
 1211ERGO    R216749  12.026   8.766   6.223 -0.2363 -0.1751 -0.2279
 1211ERGO    R316750  12.034   8.515   6.325 -0.0451 -0.1136 -0.0874
 1211ERGO    R416751  11.749   8.570   6.290 -0.0911 -0.3276 -0.0637
 1211ERGO    R516752  11.846   8.504   6.473 -0.0091 -0.1591 -0.0446
 1211ERGO    C116753  11.596   8.220   6.426  0.1729 -0.3588  0.1638
 1211ERGO    C216754  11.297   8.176   6.401  0.1090 -0.0003  0.0416
 1212ERGO   ROH16755   2.534   3.607   6.403  0.1794  0.0083  0.0742
 1212ERGO    R116756   2.416   3.689   6.647  0.1045  0.0898  0.0121
 1212ERGO    R216757   2.562   3.724   6.879  0.0067 -0.0175  0.0959
 1212ERGO    R316758   2.449   3.971   6.875  0.1852  0.0646  0.0300
 1212ERGO    R416759   2.496   3.916   7.158 -0.1092 -0.0061  0.0605
 1212ERGO    R516760   2.307   3.975   7.067  0.0152  0.1411 -0.0983
 1212ERGO    C116761   2.351   4.260   7.317 -0.0092  0.0776 -0.0220
 1212ERGO    C216762   2.362   4.524   7.432  0.2483  0.3372 -0.0045
 1213ERGO   ROH16763  13.100   5.309   8.953 -0.1086  0.0510 -0.0488
 1213ERGO    R116764  13.119   5.392   8.683 -0.5061  0.1385 -0.0560
 1213ERGO    R216765  13.301   5.285   8.506 -0.1322  0.8130 -0.1191
 1213ERGO    R316766  13.080   5.238   8.355 -0.0396 -0.0208 -0.0424
 1213ERGO    R416767  13.297   5.278   8.161 -0.2364  0.8832 -0.1184
 1213ERGO    R516768  13.106   5.384   8.166 -0.6772  0.1495 -0.0198
 1213ERGO    C116769  13.087   5.230   7.817 -0.2102  0.1412 -0.0462
 1213ERGO    C216770  12.930   4.930   7.583 -0.1091  0.2116 -0.1687
 1214ERGO   ROH16771   6.134   5.481   9.817  0.0412 -0.3075 -0.2112
 1214ERGO    R116772   6.068   5.659   9.607 -0.1325 -0.1575 -0.0336
 1214ERGO    R216773   6.197   5.655   9.362 -0.0942  0.2452 -0.0250
 1214ERGO    R316774   5.945   5.630   9.265 -0.0568  0.0605 -0.0808
 1214ERGO    R416775   6.117   5.605   9.030  0.0209 -0.0256 -0.0149
 1214ERGO    R516776   5.950   5.743   9.054 -0.0506 -0.0842 -0.1591
 1214ERGO    C116777   5.833   5.552   8.746  0.1231 -0.3566 -0.0615
 1214ERGO    C216778   5.837   5.554   8.463 -0.0590 -0.1348 -0.0491
 1215ERGO   ROH16779   6.773   9.955   6.245  0.1476 -0.0015 -0.0220
 1215ERGO    R116780   6.919  10.037   6.473  0.2048 -0.0727 -0.0316
 1215ERGO    R216781   6.988  10.301   6.519  0.3529 -0.1040 -0.0461
 1215ERGO    R316782   6.864  10.258   6.757  0.3364 -0.0295 -0.0392
 1215ERGO    R416783   7.017  10.505   6.796  0.5363 -0.1589 -0.0240
 1215ERGO    R516784   7.025  10.327   6.920  0.4027 -0.1775 -0.0437
 1215ERGO    C116785   6.917  10.584   7.181  0.6275 -0.1209 -0.0047
 1215ERGO    C216786   6.725  10.856   7.249  0.0046  0.1149  0.1781
 1216ERGO   ROH16787   4.420   1.486   6.636  0.0790  0.0086  0.0441
 1216ERGO    R116788   4.490   1.561   6.900  0.1910  0.0359  0.0087
 1216ERGO    R216789   4.442   1.399   7.118 -0.0294  0.1957  0.0925
 1216ERGO    R316790   4.708   1.434   7.162  0.0254 -0.1511  0.0553
 1216ERGO    R416791   4.596   1.382   7.427 -0.0468  0.2911  0.1058
 1216ERGO    R516792   4.720   1.552   7.370  0.2035  0.0481 -0.0697
 1216ERGO    C116793   4.936   1.404   7.648 -0.0055  0.0211  0.0786
 1216ERGO    C216794   4.976   1.312   7.926  0.2477  0.2719 -0.2799
 1217ERGO   ROH16795   9.731   4.753   5.572 -0.1022  0.3306  0.1779
 1217ERGO    R116796   9.716   4.787   5.852 -0.2090  0.2945  0.1782
 1217ERGO    R216797   9.554   4.631   6.013  0.0010  0.0235  0.1427
 1217ERGO    R316798   9.786   4.585   6.147  0.0569  0.3828  0.1776
 1217ERGO    R416799   9.577   4.570   6.352  0.0471  0.0380  0.1412
 1217ERGO    R516800   9.756   4.694   6.357 -0.1503  0.3224  0.1786
 1217ERGO    C116801   9.808   4.490   6.675  0.1266  0.3838  0.1731
 1217ERGO    C216802   9.885   4.308   6.935 -0.2072 -0.0537 -0.0956
 1218ERGO   ROH16803  17.684  14.364  10.137  0.0401  0.1119  0.0303
 1218ERGO    R116804  17.756  14.568   9.954  0.2675 -0.0164 -0.0291
 1218ERGO    R216805  17.966  14.541   9.776  0.0880 -0.4049 -0.2054
 1218ERGO    R316806  17.775  14.603   9.592  0.0402 -0.0655 -0.0452
 1218ERGO    R416807  18.029  14.647   9.453 -0.0113 -0.2816 -0.1837
 1218ERGO    R516808  17.866  14.790   9.473  0.1745 -0.1030  0.0092
 1218ERGO    C116809  17.887  14.768   9.093 -0.1138  0.1088 -0.0207
 1218ERGO    C216810  17.883  14.721   8.791 -0.2151 -0.0489  0.2471
 1219ERGO   ROH16811  13.658  15.957   6.397  0.2825  0.0189  0.1533
 1219ERGO    R116812  13.703  15.933   6.675  0.1331 -0.2152  0.1596
 1219ERGO    R216813  13.598  16.111   6.859  0.4095 -0.0988  0.2081
 1219ERGO    R316814  13.499  15.885   6.972 -0.0804  0.0267  0.0571
 1219ERGO    R416815  13.547  16.066   7.198  0.3151 -0.2138  0.1796
 1219ERGO    R516816  13.622  15.862   7.177 -0.1192 -0.3720  0.0459
 1219ERGO    C116817  13.425  15.828   7.502 -0.1999 -0.1631  0.0211
 1219ERGO    C216818  13.606  15.783   7.753  0.2471 -0.1021 -0.2597
 1220ERGO   ROH16819  11.303  11.919   6.216 -0.1689 -0.0257 -0.0411
 1220ERGO    R116820  11.187  12.006   6.459 -0.1136 -0.0536 -0.0037
 1220ERGO    R216821  10.927  11.945   6.531 -0.0907 -0.0880  0.0640
 1220ERGO    R316822  11.046  11.850   6.756 -0.0156 -0.0897  0.0231
 1220ERGO    R416823  10.776  11.923   6.841  0.0741  0.0723  0.1573
 1220ERGO    R516824  10.962  11.989   6.931  0.1575 -0.0019  0.0346
 1220ERGO    C116825  10.799  11.821   7.232  0.2405  0.1640  0.1732
 1220ERGO    C216826  10.615  11.563   7.403  0.1737 -0.0469  0.1479
 1221ERGO   ROH16827   8.197   3.268   6.061 -0.1468 -0.1906  0.1080
 1221ERGO    R116828   8.237   3.181   6.327 -0.0307 -0.0481  0.1378
 1221ERGO    R216829   8.422   3.299   6.495 -0.0406  0.1195  0.0321
 1221ERGO    R316830   8.207   3.326   6.660 -0.0077  0.0914  0.0802
 1221ERGO    R416831   8.437   3.303   6.841  0.0328  0.0684  0.0299
 1221ERGO    R516832   8.255   3.182   6.845  0.0347  0.0636  0.0492
 1221ERGO    C116833   8.244   3.331   7.196  0.1064  0.0123  0.0737
 1221ERGO    C216834   8.119   3.422   7.496 -0.0581 -0.3007  0.1335
 1222ERGO   ROH16835  13.457  11.175   9.678 -0.1485 -0.1897 -0.0600
 1222ERGO    R116836  13.471  11.288   9.419  0.2358 -0.1739 -0.0342
 1222ERGO    R216837  13.575  11.151   9.202 -0.1710 -0.4655 -0.0338
 1222ERGO    R316838  13.335  11.214   9.090  0.0186  0.3238 -0.0713
 1222ERGO    R416839  13.521  11.198   8.864  0.0017 -0.6717 -0.0951
 1222ERGO    R516840  13.389  11.365   8.913  0.6136 -0.0691 -0.2726
 1222ERGO    C116841  13.264  11.284   8.562  0.2804 -0.0509 -0.1660
 1222ERGO    C216842  13.130  11.277   8.315  0.0061 -0.1568  0.0950
 1223ERGO   ROH16843   8.964  10.224   9.630  0.0349  0.2004 -0.0770
 1223ERGO    R116844   8.900  10.356   9.388 -0.0076  0.1343 -0.1042
 1223ERGO    R216845   9.008  10.281   9.145 -0.0075  0.1008 -0.1016
 1223ERGO    R316846   8.747  10.265   9.070 -0.0091  0.0292 -0.0724
 1223ERGO    R416847   8.886  10.366   8.833 -0.0784  0.1432 -0.0601
 1223ERGO    R516848   8.713  10.456   8.930 -0.0957  0.0530 -0.0145
 1223ERGO    C116849   8.570  10.400   8.582 -0.1212  0.1008 -0.0087
 1223ERGO    C216850   8.495  10.267   8.237  0.2901  0.1506  0.3550
 1224ERGO   ROH16851   0.263  15.055  10.229 -0.0183  0.0632  0.0586
 1224ERGO    R116852   0.471  15.093  10.041 -0.0304 -0.0031  0.0322
 1224ERGO    R216853   0.544  14.899   9.859 -0.1103 -0.0292  0.0304
 1224ERGO    R316854   0.502  15.098   9.679 -0.0725 -0.0224  0.0278
 1224ERGO    R416855   0.580  14.866   9.517 -0.1410 -0.0484  0.0284
 1224ERGO    R516856   0.671  15.064   9.512 -0.0907 -0.0701  0.0173
 1224ERGO    C116857   0.561  15.034   9.148 -0.1233 -0.0533  0.0250
 1224ERGO    C216858   0.459  15.036   8.836 -0.2873 -0.0756  0.0234
 1225ERGO   ROH16859   5.729  10.039   6.141  0.0432  0.2275 -0.0708
 1225ERGO    R116860   5.729  10.051   6.424 -0.1698 -0.1204 -0.0496
 1225ERGO    R216861   5.691   9.827   6.583  0.2606 -0.4273 -0.3485
 1225ERGO    R316862   5.926   9.907   6.694  0.0115  0.0092 -0.1126
 1225ERGO    R416863   5.783   9.776   6.912  0.0947 -0.3795 -0.2947
 1225ERGO    R516864   5.867   9.976   6.915 -0.3150 -0.2038 -0.1302
 1225ERGO    C116865   6.056   9.822   7.208 -0.2357  0.0581 -0.0419
 1225ERGO    C216866   6.173   9.653   7.507  0.1177 -0.1005 -0.0503
 1226ERGO   ROH16867  16.039  12.712   9.758  0.2357 -0.1151  0.0006
 1226ERGO    R116868  15.864  12.670   9.540  0.2572 -0.1451 -0.0107
 1226ERGO    R216869  15.781  12.876   9.374  0.2017 -0.1529  0.0092
 1226ERGO    R316870  15.877  12.713   9.179  0.2582 -0.1024 -0.0062
 1226ERGO    R416871  15.752  12.934   9.035 -0.1034 -0.2853  0.0090
 1226ERGO    R516872  15.712  12.723   9.006  0.1220 -0.3457  0.1029
 1226ERGO    C116873  15.825  12.816   8.654 -0.2280 -0.3151 -0.0056
 1226ERGO    C216874  15.781  12.819   8.301  0.1210 -0.0632  0.0292
 1227ERGO   ROH16875  15.220  14.166   6.346  0.0530  0.0378 -0.0179
 1227ERGO    R116876  15.181  13.977   6.552  0.0520 -0.0601 -0.1080
 1227ERGO    R216877  15.372  13.924   6.744 -0.0181 -0.0259 -0.0353
 1227ERGO    R316878  15.169  13.980   6.916 -0.1335 -0.2044 -0.1096
 1227ERGO    R416879  15.350  13.806   7.068  0.0440  0.0501 -0.0027
 1227ERGO    R516880  15.136  13.776   7.037  0.0782 -0.2125 -0.0529
 1227ERGO    C116881  15.147  13.790   7.418 -0.0282 -0.0732 -0.0535
 1227ERGO    C216882  15.114  13.960   7.767  0.1111  0.1478 -0.1622
 1228ERGO   ROH16883  14.899   2.688   6.472  0.1404  0.1113 -0.0068
 1228ERGO    R116884  14.875   2.666   6.753  0.0550 -0.1023 -0.0308
 1228ERGO    R216885  14.833   2.885   6.917  0.1470 -0.2142  0.1301
 1228ERGO    R316886  14.620   2.739   7.003  0.0359 -0.1540 -0.0306
 1228ERGO    R416887  14.601   2.993   7.148  0.3300 -0.3289  0.3741
 1228ERGO    R516888  14.602   2.794   7.236  0.1724 -0.4826  0.0723
 1228ERGO    C116889  14.265   2.920   7.364  0.3323 -0.3392  0.3653
 1228ERGO    C216890  14.222   3.039   7.694 -0.0381  0.2045 -0.5439
 1229ERGO   ROH16891  17.609  12.048   9.768  0.1269  0.1555  0.0535
 1229ERGO    R116892  17.596  11.937   9.507 -0.1205  0.0473  0.1062
 1229ERGO    R216893  17.379  11.973   9.340 -0.1932  0.1633  0.2114
 1229ERGO    R316894  17.568  12.065   9.168 -0.2059 -0.0751  0.0689
 1229ERGO    R416895  17.331  12.020   9.001 -0.3849  0.2305  0.2479
 1229ERGO    R516896  17.531  11.940   8.967 -0.5144 -0.0220  0.0938
 1229ERGO    C116897  17.481  12.134   8.642 -0.5088  0.0457  0.1354
 1229ERGO    C216898  17.507  12.190   8.331  0.0829  0.1245 -0.0974
 1230ERGO   ROH16899  11.293  13.435  10.338 -0.0323 -0.4135 -0.0282
 1230ERGO    R116900  11.288  13.393  10.058 -0.1627 -0.1918 -0.0619
 1230ERGO    R216901  11.053  13.373   9.915 -0.2336  0.0461  0.0073
 1230ERGO    R316902  11.164  13.572   9.766 -0.1826  0.1067  0.1270
 1230ERGO    R416903  10.910  13.512   9.633  0.0394 -0.0945 -0.2042
 1230ERGO    R516904  11.107  13.516   9.540  0.1585  0.0376  0.0569
 1230ERGO    C116905  10.931  13.780   9.329  0.2460 -0.1194 -0.2150
 1230ERGO    C216906  10.848  13.967   9.022 -0.1414 -0.1522 -0.3438
 1231ERGO   ROH16907  16.929   3.288   6.263  0.1767 -0.0761 -0.0927
 1231ERGO    R116908  16.844   3.232   6.527 -0.0112  0.0436 -0.1241
 1231ERGO    R216909  16.891   2.989   6.651 -0.1195  0.0835  0.0156
 1231ERGO    R316910  17.004   3.145   6.843 -0.2310  0.1585  0.0186
 1231ERGO    R416911  16.925   2.903   6.984  0.0946  0.0451 -0.0157
 1231ERGO    R516912  16.872   3.106   7.038 -0.1140 -0.0347  0.0533
 1231ERGO    C116913  17.050   3.000   7.358  0.1144  0.0932 -0.0311
 1231ERGO    C216914  16.954   2.997   7.781 -0.1656  0.2355  0.1427
 1232ERGO   ROH16915  10.742   0.823   6.293 -0.0763  0.0018  0.0341
 1232ERGO    R116916  10.659   0.828   6.564 -0.2271 -0.0874 -0.0093
 1232ERGO    R216917  10.808   0.949   6.763 -0.2104 -0.3706  0.1573
 1232ERGO    R316918  10.576   1.082   6.810 -0.1003 -0.1561  0.1051
 1232ERGO    R416919  10.751   1.159   7.032 -0.1061 -0.3658  0.1767
 1232ERGO    R516920  10.550   1.076   7.048 -0.1896 -0.1763  0.0931
 1232ERGO    C116921  10.500   1.406   7.232  0.0582 -0.1617  0.1389
 1232ERGO    C216922  10.433   1.472   7.534 -0.2581 -0.0992  0.1885
 1233ERGO   ROH16923   3.945   1.902   6.388 -0.1262 -0.1290  0.0192
 1233ERGO    R116924   3.767   1.952   6.603 -0.1270 -0.1937  0.0340
 1233ERGO    R216925   3.503   1.873   6.599 -0.1097 -0.2481  0.0367
 1233ERGO    R316926   3.568   1.753   6.834 -0.0758 -0.2644  0.0188
 1233ERGO    R416927   3.302   1.869   6.880  0.0760  0.0477  0.1786
 1233ERGO    R516928   3.481   1.901   7.001  0.2029 -0.1200  0.0464
 1233ERGO    C116929   3.246   1.754   7.264  0.2160  0.2046  0.2445
 1233ERGO    C216930   3.267   1.726   7.561  0.0859  0.1035  0.1317
 1234ERGO   ROH16931   5.799   9.723   9.857 -0.1965 -0.2261  0.1336
 1234ERGO    R116932   5.728   9.864   9.622 -0.2126 -0.2330  0.1343
 1234ERGO    R216933   5.914   9.945   9.435 -0.1960 -0.0268  0.2373
 1234ERGO    R316934   5.753   9.810   9.263 -0.0014 -0.1288  0.1319
 1234ERGO    R416935   5.906   9.993   9.093 -0.0073 -0.0300  0.2311
 1234ERGO    R516936   5.689   9.973   9.100 -0.0013 -0.1679  0.0925
 1234ERGO    C116937   5.749   9.893   8.732  0.2854 -0.1276  0.1286
 1234ERGO    C216938   5.743   9.948   8.408  0.4541 -0.0097  0.0494
 1235ERGO   ROH16939  15.540  11.186   9.477 -0.0508 -0.0369 -0.1857
 1235ERGO    R116940  15.628  11.164   9.209  0.0088  0.0331 -0.1719
 1235ERGO    R216941  15.495  11.012   9.021  0.0685  0.0579 -0.2327
 1235ERGO    R316942  15.494  11.244   8.880  0.0692  0.0881 -0.1837
 1235ERGO    R416943  15.551  11.036   8.681  0.1981  0.1405 -0.2063
 1235ERGO    R516944  15.669  11.216   8.718  0.1416  0.1622 -0.1210
 1235ERGO    C116945  15.583  11.269   8.350  0.2741  0.2169 -0.1449
 1235ERGO    C216946  15.517  11.206   8.025 -0.2475  0.0392 -0.0234
 1236ERGO   ROH16947  17.617  13.895   9.945  0.2170  0.1362  0.0800
 1236ERGO    R116948  17.692  14.098   9.763  0.0707  0.0924 -0.0313
 1236ERGO    R216949  17.911  14.074   9.596  0.1006  0.1676 -0.0034
 1236ERGO    R316950  17.729  14.128   9.402  0.0694 -0.0854 -0.0477
 1236ERGO    R416951  17.989  14.154   9.269  0.0721  0.2470  0.0092
 1236ERGO    R516952  17.830  14.303   9.272 -0.1281  0.0413 -0.0366
 1236ERGO    C116953  17.864  14.251   8.896  0.0256  0.0558 -0.0251
 1236ERGO    C216954  17.924  14.290   8.570 -0.1767  0.0473 -0.3447
 1237ERGO   ROH16955  14.341  17.778   6.737  0.0082  0.0479 -0.0987
 1237ERGO    R116956  14.290  17.807   7.014 -0.0957  0.0703 -0.1201
 1237ERGO    R216957  14.446  17.964   7.179 -0.0603 -0.0459 -0.0448
 1237ERGO    R316958  14.208  18.079   7.242 -0.0093  0.1169 -0.1434
 1237ERGO    R416959  14.374  18.116   7.481 -0.1306 -0.1485 -0.0093
 1237ERGO    R516960  14.175  18.026   7.473 -0.2044  0.0168 -0.1900
 1237ERGO    C116961  14.108  18.312   7.716 -0.1238 -0.0553 -0.0813
 1237ERGO    C216962  13.959  18.610   7.898 -0.4192 -0.0129 -0.1764
 1238ERGO   ROH16963  14.594   8.062   9.356  0.1300  0.0131 -0.1275
 1238ERGO    R116964  14.562   8.170   9.096 -0.0796  0.0494 -0.0915
 1238ERGO    R216965  14.766   8.170   8.908 -0.1490  0.2792 -0.1906
 1238ERGO    R316966  14.580   8.045   8.754 -0.1097  0.1399 -0.1220
 1238ERGO    R416967  14.782   8.140   8.564 -0.0754 -0.0718 -0.1577
 1238ERGO    R516968  14.568   8.178   8.556 -0.0561 -0.0701 -0.2559
 1238ERGO    C116969  14.617   8.005   8.220  0.0044 -0.4069 -0.0740
 1238ERGO    C216970  14.730   8.059   7.879 -0.1287 -0.1354  0.1446
 1239ERGO   ROH16971  17.749  15.473   6.416 -0.0923  0.1392  0.2135
 1239ERGO    R116972  17.790  15.425   6.692 -0.0632  0.1370  0.2085
 1239ERGO    R216973  18.017  15.509   6.825 -0.0406  0.1151  0.1792
 1239ERGO    R316974  17.836  15.626   6.992 -0.0068  0.1331  0.2035
 1239ERGO    R416975  18.053  15.536   7.168 -0.0915 -0.0963  0.2028
 1239ERGO    R516976  17.840  15.490   7.189 -0.1276  0.0181  0.1315
 1239ERGO    C116977  17.905  15.662   7.524 -0.0895 -0.2025  0.2394
 1239ERGO    C216978  17.870  15.837   7.805 -0.3274  0.0245 -0.0533
 1240ERGO   ROH16979  18.144  10.253  10.102  0.0408  0.1202 -0.0527
 1240ERGO    R116980  18.251  10.314   9.847  0.0824 -0.1459 -0.1015
 1240ERGO    R216981  18.230  10.142   9.632 -0.2822 -0.1808 -0.0407
 1240ERGO    R316982  18.120  10.358   9.510  0.0662 -0.0190 -0.0806
 1240ERGO    R416983  18.225  10.193   9.291 -0.1988 -0.2460 -0.0523
 1240ERGO    R516984  18.268  10.404   9.327  0.1478 -0.2991 -0.0938
 1240ERGO    C116985  18.118  10.426   8.977  0.1767 -0.1321 -0.0966
 1240ERGO    C216986  18.233  10.339   8.576  0.1794  0.0518  0.2910
 1241ERGO   ROH16987   7.245   7.893   5.904 -0.0370  0.0051 -0.0048
 1241ERGO    R116988   7.240   7.732   6.136  0.1016 -0.0894 -0.0661
 1241ERGO    R216989   7.453   7.572   6.211  0.2917  0.1598 -0.0609
 1241ERGO    R316990   7.431   7.708   6.445  0.0394  0.0474 -0.0164
 1241ERGO    R416991   7.633   7.502   6.497  0.3363  0.3223 -0.0478
 1241ERGO    R516992   7.452   7.539   6.614  0.2515  0.0158 -0.0726
 1241ERGO    C116993   7.717   7.588   6.884  0.1254  0.3113  0.0015
 1241ERGO    C216994   7.752   7.668   7.290  0.0096  0.0205 -0.1440
 1242ERGO   ROH16995   8.054   7.958   9.611  0.1489  0.1234 -0.0676
 1242ERGO    R116996   8.052   8.103   9.367 -0.0153  0.0428 -0.1139
 1242ERGO    R216997   8.210   8.034   9.152  0.0072  0.1111 -0.1087
 1242ERGO    R316998   7.973   8.033   9.019 -0.0107 -0.1340 -0.0832
 1242ERGO    R416999   8.177   8.048   8.808 -0.0250  0.5900 -0.0931
 1242ERGO    R517000   8.008   8.183   8.835 -0.2969  0.2379  0.1425
 1242ERGO    C117001   7.935   8.056   8.483 -0.0605  0.6388 -0.0601
 1242ERGO    C217002   7.805   8.163   8.091  0.1760  0.0832 -0.4844
 1243ERGO   ROH17003  16.456   8.085   9.168 -0.1248 -0.1652 -0.0237
 1243ERGO    R117004  16.593   8.168   8.935 -0.2684  0.0381 -0.0386
 1243ERGO    R217005  16.812   8.032   8.834 -0.0445  0.3791 -0.0354
 1243ERGO    R317006  16.664   8.030   8.606 -0.0583  0.1163 -0.0273
 1243ERGO    R417007  16.941   8.068   8.516 -0.0997  0.3098 -0.0659
 1243ERGO    R517008  16.769   8.194   8.466 -0.2138  0.1291 -0.1292
 1243ERGO    C117009  16.878   8.088   8.116 -0.1446  0.0226 -0.0761
 1243ERGO    C217010  17.105   8.201   7.867 -0.3293 -0.1210  0.1893
 1244ERGO   ROH17011  11.430   9.832   9.594 -0.0037 -0.3292  0.1297
 1244ERGO    R117012  11.510   9.888   9.329  0.1003 -0.1688  0.1929
 1244ERGO    R217013  11.401   9.760   9.109  0.2721 -0.1276  0.0773
 1244ERGO    R317014  11.353  10.014   9.025  0.1850 -0.1128  0.1728
 1244ERGO    R417015  11.408   9.864   8.780  0.0865 -0.0280  0.1041
 1244ERGO    R517016  11.506  10.047   8.845  0.0854 -0.0319  0.1053
 1244ERGO    C117017  11.367  10.163   8.509 -0.1033  0.0440  0.2093
 1244ERGO    C217018  11.371  10.362   8.256  0.0524 -0.2847  0.2855
 1245ERGO   ROH17019  10.626  10.079   6.264  0.2729 -0.3841  0.2106
 1245ERGO    R117020  10.494  10.140   6.507  0.1667 -0.1056  0.0885
 1245ERGO    R217021  10.482   9.962   6.718 -0.1786  0.0144  0.1863
 1245ERGO    R317022  10.586  10.171   6.857 -0.0385 -0.0216  0.1340
 1245ERGO    R417023  10.471   9.998   7.062 -0.1463  0.1208  0.1760
 1245ERGO    R517024  10.430  10.209   7.034 -0.0029  0.1334  0.1249
 1245ERGO    C117025  10.562  10.215   7.392  0.0040  0.1490  0.1209
 1245ERGO    C217026  10.545  10.365   7.680 -0.0898 -0.1984  0.3752
 1246ERGO   ROH17027  15.143   5.745   9.024 -0.1383 -0.0753 -0.0598
 1246ERGO    R117028  15.223   5.653   8.768 -0.0491 -0.0144 -0.0525
 1246ERGO    R217029  15.059   5.670   8.547  0.0323  0.0376 -0.0994
 1246ERGO    R317030  15.273   5.799   8.439  0.0694  0.0597 -0.0047
 1246ERGO    R417031  15.116   5.708   8.208  0.0609  0.2166 -0.0772
 1246ERGO    R517032  15.328   5.670   8.245  0.0576  0.1520 -0.0774
 1246ERGO    C117033  15.351   5.850   7.909  0.1124  0.3415  0.0248
 1246ERGO    C217034  15.361   5.714   7.674  0.0029 -0.2120 -0.1380
 1247ERGO   ROH17035  14.434   4.985   9.251  0.0724  0.2863  0.1489
 1247ERGO    R117036  14.648   5.005   9.067  0.0663  0.1072  0.1187
 1247ERGO    R217037  14.738   4.790   8.918 -0.1394  0.0305  0.0942
 1247ERGO    R317038  14.694   4.958   8.709 -0.0278  0.0794  0.1113
 1247ERGO    R417039  14.831   4.728   8.591 -0.3552 -0.0846  0.0534
 1247ERGO    R517040  14.890   4.937   8.573 -0.1129 -0.1563  0.0257
 1247ERGO    C117041  14.845   4.851   8.205 -0.3761 -0.1057  0.0455
 1247ERGO    C217042  14.744   4.985   7.879  0.1383 -0.3922 -0.2082
 1248ERGO   ROH17043  16.982   9.422   9.012  0.0750 -0.0524 -0.0505
 1248ERGO    R117044  17.196   9.300   8.875  0.1134  0.0645 -0.0937
 1248ERGO    R217045  17.158   9.130   8.660  0.1544 -0.0432 -0.0110
 1248ERGO    R317046  17.328   9.302   8.535 -0.0272  0.0414 -0.1506
 1248ERGO    R417047  17.358   9.049   8.390  0.0332  0.0260 -0.1239
 1248ERGO    R517048  17.518   9.167   8.479  0.0220  0.1425 -0.2440
 1248ERGO    C117049  17.634   9.163   8.116 -0.2079  0.1458 -0.3206
 1248ERGO    C217050  17.829   9.113   7.747  0.0485 -0.1671 -0.0085
 1249ERGO   ROH17051   6.358  17.187   6.940  0.1209  0.2205  0.1129
 1249ERGO    R117052   6.425  17.003   7.144 -0.0586  0.0979  0.0647
 1249ERGO    R217053   6.547  17.080   7.379  0.2478 -0.1114 -0.0163
 1249ERGO    R317054   6.336  16.951   7.493  0.0902  0.2586  0.1273
 1249ERGO    R417055   6.534  16.977   7.709  0.3610 -0.2355 -0.0503
 1249ERGO    R517056   6.438  16.793   7.642 -0.0794 -0.0176 -0.0445
 1249ERGO    C117057   6.329  16.796   8.008  0.2789  0.0396  0.0648
 1249ERGO    C217058   6.475  16.839   8.353 -0.2551 -0.0026  0.2864
 1250ERGO   ROH17059  12.997   9.785   9.524  0.4174 -0.2036  0.0981
 1250ERGO    R117060  12.962   9.867   9.255  0.3643 -0.0659  0.1465
 1250ERGO    R217061  13.162   9.846   9.066  0.2811 -0.0978  0.0648
 1250ERGO    R317062  12.972   9.710   8.927  0.1522  0.0724  0.0705
 1250ERGO    R417063  13.146   9.828   8.721  0.3697 -0.2320  0.0664
 1250ERGO    R517064  12.929   9.848   8.736  0.3839  0.0450 -0.0077
 1250ERGO    C117065  12.958   9.689   8.390  0.3002 -0.1503  0.0730
 1250ERGO    C217066  13.137   9.669   7.996  0.0614  0.0524 -0.3221
 1251ERGO   ROH17067  14.327   6.489   5.907  0.0929  0.1136  0.0255
 1251ERGO    R117068  14.469   6.254   5.975  0.0339  0.0554 -0.0499
 1251ERGO    R217069  14.745   6.241   5.972  0.0350  0.0200  0.0514
 1251ERGO    R317070  14.712   6.156   6.228 -0.0790 -0.1181 -0.0082
 1251ERGO    R417071  14.944   6.006   6.131 -0.0662 -0.0995  0.0030
 1251ERGO    R517072  14.764   5.922   6.221 -0.1137 -0.1219 -0.1150
 1251ERGO    C117073  15.028   5.790   6.463 -0.2323 -0.2988 -0.0811
 1251ERGO    C217074  15.207   5.722   6.818  0.1812  0.1754  0.3053
 1252ERGO   ROH17075  11.780  11.989   9.792 -0.0985  0.1572  0.1065
 1252ERGO    R117076  11.769  12.205   9.609  0.0182  0.1393  0.0769
 1252ERGO    R217077  11.984  12.279   9.452  0.0421 -0.0328  0.0270
 1252ERGO    R317078  11.806  12.249   9.249 -0.0158  0.0613  0.0635
 1252ERGO    R417079  11.985  12.462   9.159  0.2672 -0.2345 -0.1026
 1252ERGO    R517080  11.767  12.471   9.170  0.2749  0.0625 -0.0891
 1252ERGO    C117081  11.817  12.541   8.798  0.3439 -0.2635 -0.1438
 1252ERGO    C217082  11.795  12.678   8.531  0.0957 -0.1061 -0.3396
 1253ERGO   ROH17083  16.544   2.960   6.306 -0.1892 -0.1580 -0.1193
 1253ERGO    R117084  16.507   2.739   6.478 -0.0795 -0.0207  0.0852
 1253ERGO    R217085  16.670   2.516   6.470 -0.3183 -0.1925 -0.1183
 1253ERGO    R317086  16.700   2.568   6.735  0.2657 -0.0664 -0.1945
 1253ERGO    R417087  16.683   2.276   6.718 -0.3230 -0.0603  0.0118
 1253ERGO    R517088  16.561   2.406   6.844  0.1432  0.2603  0.1638
 1253ERGO    C117089  16.719   2.185   7.112  0.2226  0.1350  0.0160
 1253ERGO    C217090  16.682   2.045   7.442 -0.2078 -0.0855  0.0381
 1254ERGO   ROH17091  11.331   6.253   9.626  0.1456  0.0888 -0.1118
 1254ERGO    R117092  11.455   6.294   9.375  0.0019  0.1055 -0.1819
 1254ERGO    R217093  11.507   6.086   9.199  0.1579  0.0740 -0.1054
 1254ERGO    R317094  11.368   6.241   9.025 -0.0858 -0.1581 -0.1219
 1254ERGO    R417095  11.492   6.034   8.858  0.4059  0.1324 -0.1266
 1254ERGO    R517096  11.506   6.250   8.830 -0.0179  0.1742 -0.0616
 1254ERGO    C117097  11.352   6.150   8.496  0.3214 -0.0515 -0.1547
 1254ERGO    C217098  11.416   6.052   8.134  0.0851 -0.3455  0.0567
 1255ERGO   ROH17099  17.954   5.234   6.360 -0.0064  0.0207  0.1887
 1255ERGO    R117100  17.845   5.319   6.607 -0.1630  0.0619  0.1072
 1255ERGO    R217101  17.579   5.285   6.672 -0.1466 -0.1947  0.0620
 1255ERGO    R317102  17.681   5.162   6.892 -0.0572  0.0601  0.1660
 1255ERGO    R417103  17.403   5.221   6.963 -0.1572 -0.2717  0.0392
 1255ERGO    R517104  17.581   5.277   7.076 -0.2699  0.0261  0.0700
 1255ERGO    C117105  17.397   5.069   7.338 -0.0790 -0.0773  0.1235
 1255ERGO    C217106  17.266   4.793   7.596 -0.0347 -0.1016 -0.2524
 1256ERGO   ROH17107  13.400   9.435   5.919  0.0806 -0.0174 -0.2594
 1256ERGO    R117108  13.355   9.262   6.139  0.1886  0.3900  0.0964
 1256ERGO    R217109  13.363   8.986   6.116 -0.6967  0.3090  0.3969
 1256ERGO    R317110  13.544   9.007   6.317 -0.0282  0.0552 -0.1413
 1256ERGO    R417111  13.393   8.764   6.379 -0.5325  0.5125  0.5533
 1256ERGO    R517112  13.427   8.934   6.512  0.3198  0.5871  0.2988
 1256ERGO    C117113  13.581   8.655   6.721  0.1906  0.3927  0.1391
 1256ERGO    C217114  13.591   8.506   7.057 -0.1894 -0.0010 -0.1024
 1257ERGO   ROH17115  15.725  17.994   6.673  0.0443 -0.0759 -0.2957
 1257ERGO    R117116  15.728  17.872   6.929 -0.1340 -0.0484 -0.2796
 1257ERGO    R217117  15.590  17.639   6.984  0.0105 -0.1681 -0.4158
 1257ERGO    R317118  15.834  17.553   7.069 -0.0023  0.0584 -0.1323
 1257ERGO    R417119  15.643  17.377   7.204  0.0035 -0.2335 -0.4915
 1257ERGO    R517120  15.800  17.494   7.298 -0.2514 -0.1067 -0.2076
 1257ERGO    C117121  15.902  17.144   7.410 -0.0127 -0.0592 -0.2695
 1257ERGO    C217122  15.823  16.924   7.457  0.0710 -0.2910  0.1504
 1258ERGO   ROH17123  13.369  14.775  10.170 -0.3059  0.0149 -0.0179
 1258ERGO    R117124  13.281  14.869   9.918  0.0062  0.2286 -0.0526
 1258ERGO    R217125  13.456  14.957   9.722  0.3114 -0.3023 -0.0370
 1258ERGO    R317126  13.326  14.773   9.569 -0.1967  0.0267 -0.0266
 1258ERGO    R417127  13.448  14.957   9.377  0.1774 -0.2137 -0.0349
 1258ERGO    R517128  13.238  14.899   9.386  0.0285  0.2834  0.0332
 1258ERGO    C117129  13.322  14.784   9.032 -0.3777  0.1468 -0.0236
 1258ERGO    C217130  13.269  14.707   8.747  0.1159  0.0030  0.1654
 1259ERGO   ROH17131  12.944   0.030  10.201  0.0395 -0.0096 -0.0730
 1259ERGO    R117132  12.986  -0.130   9.972  0.0411  0.0138 -0.0893
 1259ERGO    R217133  12.781  -0.267   9.847  0.0622 -0.0674 -0.0356
 1259ERGO    R317134  12.869  -0.134   9.627 -0.0547 -0.0243 -0.0568
 1259ERGO    R417135  12.753  -0.381   9.522  0.1773 -0.1549 -0.0154
 1259ERGO    R517136  12.953  -0.305   9.483  0.1100  0.0253 -0.0224
 1259ERGO    C117137  12.819  -0.322   9.126  0.1346 -0.1658 -0.0236
 1259ERGO    C217138  12.836  -0.453   8.620  0.1986 -0.0417  0.0615
 1260ERGO   ROH17139  10.044   7.641   5.849 -0.1199 -0.0771  0.0893
 1260ERGO    R117140  10.130   7.728   6.104 -0.0974 -0.1085  0.0929
 1260ERGO    R217141   9.977   7.895   6.264 -0.0433 -0.0509  0.0881
 1260ERGO    R317142  10.013   7.697   6.447 -0.1234 -0.0656  0.0875
 1260ERGO    R417143   9.947   7.935   6.606 -0.0031 -0.0363  0.0896
 1260ERGO    R517144  10.121   7.806   6.631 -0.0622 -0.1157  0.0798
 1260ERGO    C117145   9.963   7.773   6.977 -0.0549 -0.0415  0.0900
 1260ERGO    C217146  10.121   7.740   7.243  0.0520  0.5876  0.0993
 1261ERGO   ROH17147  11.260  12.982   7.855  0.0814 -0.0044 -0.0222
 1261ERGO    R117148  11.243  13.150   7.628 -0.0100  0.0211  0.0046
 1261ERGO    R217149  11.087  13.378   7.624  0.0878  0.0861  0.1377
 1261ERGO    R317150  11.320  13.497   7.550  0.0847 -0.0051 -0.0257
 1261ERGO    R417151  11.112  13.647   7.407  0.0163  0.1905  0.2563
 1261ERGO    R517152  11.287  13.553   7.319 -0.1167  0.1358  0.0302
 1261ERGO    C117153  11.345  13.914   7.211 -0.0282  0.1657  0.1720
 1261ERGO    C217154  11.418  14.098   6.960  0.0250 -0.0298  0.1844
 1262ERGO   ROH17155  18.304   5.456   7.629 -0.1648  0.0188 -0.0793
 1262ERGO    R117156  18.399   5.200   7.702 -0.0556  0.0122 -0.2433
 1262ERGO    R217157  18.255   5.028   7.863  0.1679 -0.0135 -0.0720
 1262ERGO    R317158  18.291   4.855   7.656 -0.1045  0.0131 -0.1462
 1262ERGO    R417159  18.208   4.686   7.880  0.3545 -0.0369  0.0045
 1262ERGO    R517160  18.386   4.660   7.757  0.1644  0.0518 -0.3070
 1262ERGO    C117161  18.215   4.324   7.696  0.2074 -0.0254 -0.0206
 1262ERGO    C217162  17.934   4.075   7.789 -0.2189 -0.1619 -0.0277
 1263ERGO   ROH17163  10.196  16.515   6.521 -0.0466 -0.1226 -0.1028
 1263ERGO    R117164  10.195  16.460   6.799  0.0637  0.1863 -0.0376
 1263ERGO    R217165  10.112  16.645   6.987 -0.3623  0.2240 -0.2507
 1263ERGO    R317166   9.947  16.444   7.065  0.0773 -0.0699 -0.0386
 1263ERGO    R417167   9.996  16.598   7.309 -0.2779  0.3258 -0.2051
 1263ERGO    R517168  10.025  16.384   7.283  0.2050  0.3485  0.0393
 1263ERGO    C117169   9.773  16.381   7.570  0.1840  0.1093  0.0206
 1263ERGO    C217170   9.605  16.389   7.906  0.2025  0.0427 -0.2352
 1264ERGO   ROH17171   3.512  13.486   6.653 -0.0118 -0.0730  0.0739
 1264ERGO    R117172   3.486  13.578   6.920 -0.0532 -0.0193  0.0512
 1264ERGO    R217173   3.289  13.486   7.091 -0.0641 -0.0015  0.0456
 1264ERGO    R317174   3.500  13.432   7.252 -0.0797  0.0532  0.0852
 1264ERGO    R417175   3.269  13.426   7.431 -0.0833  0.2770  0.0959
 1264ERGO    R517176   3.450  13.544   7.457 -0.0398  0.2374 -0.0017
 1264ERGO    C117177   3.456  13.341   7.780 -0.1091  0.4907  0.1624
 1264ERGO    C217178   3.711  13.322   8.038  0.0354 -0.1840 -0.0232
 1265ERGO   ROH17179  12.955  14.623  10.292 -0.0141 -0.0559 -0.0841
 1265ERGO    R117180  12.970  14.540  10.022 -0.0973 -0.0352 -0.0961
 1265ERGO    R217181  12.749  14.526   9.858 -0.1609 -0.0863 -0.0121
 1265ERGO    R317182  12.898  14.686   9.697 -0.2662 -0.0333 -0.0575
 1265ERGO    R417183  12.743  14.520   9.512 -0.1547 -0.1811 -0.0106
 1265ERGO    R517184  12.959  14.545   9.513 -0.1743 -0.0403 -0.0187
 1265ERGO    C117185  12.880  14.667   9.160 -0.2499 -0.1864 -0.0524
 1265ERGO    C217186  12.795  14.547   8.916  0.2040  0.4462  0.2498
 1266ERGO   ROH17187   6.079   3.773   6.419  0.1700 -0.1628 -0.0857
 1266ERGO    R117188   6.219   3.645   6.629  0.0618 -0.3163 -0.1057
 1266ERGO    R217189   6.224   3.745   6.886  0.3262 -0.2384 -0.1395
 1266ERGO    R317190   6.135   3.496   6.950 -0.0380 -0.0849 -0.0221
 1266ERGO    R417191   6.191   3.624   7.208  0.3811 -0.1202 -0.0884
 1266ERGO    R517192   6.268   3.432   7.139  0.0109 -0.2677 -0.1160
 1266ERGO    C117193   6.088   3.320   7.456  0.0711  0.0927  0.0516
 1266ERGO    C217194   5.835   3.427   7.702  0.2498  0.1881 -0.0019
 1267ERGO   ROH17195  14.535   8.083   6.039  0.0141 -0.0252  0.0612
 1267ERGO    R117196  14.543   8.245   6.272 -0.0548  0.0731 -0.0031
 1267ERGO    R217197  14.315   8.348   6.389 -0.1009  0.0174 -0.0395
 1267ERGO    R317198  14.413   8.226   6.611 -0.0399  0.1501  0.0067
 1267ERGO    R417199  14.184   8.381   6.707 -0.0785  0.1236 -0.0415
 1267ERGO    R517200  14.388   8.388   6.785 -0.0729  0.2225 -0.0654
 1267ERGO    C117201  14.201   8.285   7.101 -0.0083  0.3100  0.0008
 1267ERGO    C217202  13.954   8.411   7.383 -0.2255  0.0322  0.0523
 1268ERGO   ROH17203   2.801  10.749   6.101 -0.1519  0.0318 -0.0316
 1268ERGO    R117204   2.842  10.765   6.380 -0.0678 -0.0378 -0.0391
 1268ERGO    R217205   2.862  11.006   6.513  0.2148 -0.0667 -0.0182
 1268ERGO    R317206   2.664  10.901   6.667  0.1390  0.1233  0.0155
 1268ERGO    R417207   2.880  10.962   6.856  0.3603 -0.3827 -0.0641
 1268ERGO    R517208   2.779  10.770   6.831  0.0344 -0.2030 -0.1654
 1268ERGO    C117209   2.704  10.837   7.199  0.3738 -0.3884 -0.0592
 1268ERGO    C217210   2.759  10.835   7.528 -0.1601 -0.1619  0.0421
 1269ERGO   ROH17211   7.814  13.919   6.726  0.0789  0.0518 -0.0931
 1269ERGO    R117212   7.908  13.949   6.991 -0.1446  0.2157 -0.0313
 1269ERGO    R217213   7.747  14.042   7.196 -0.5532 -0.3822 -0.0638
 1269ERGO    R317214   7.826  13.812   7.318  0.1108 -0.2178 -0.1392
 1269ERGO    R417215   7.815  14.011   7.534 -0.8191 -0.3529 -0.0043
 1269ERGO    R517216   7.985  13.884   7.483 -0.2959  0.2449  0.0857
 1269ERGO    C117217   7.929  13.778   7.845 -0.3506 -0.1815 -0.0405
 1269ERGO    C217218   8.063  13.637   8.126  0.1117  0.1339 -0.1191
 1270ERGO   ROH17219  12.355   0.924   6.584  0.0274 -0.0920  0.0123
 1270ERGO    R117220  12.576   0.769   6.670  0.0061 -0.2578 -0.2196
 1270ERGO    R217221  12.733   0.623   6.495  0.2122  0.2697 -0.5053
 1270ERGO    R317222  12.935   0.764   6.610  0.0611  0.0460  0.0664
 1270ERGO    R417223  13.042   0.494   6.578  0.0790  0.0997 -0.2658
 1270ERGO    R517224  13.036   0.610   6.762 -0.1839 -0.2387 -0.0567
 1270ERGO    C117225  13.412   0.551   6.735 -0.1406 -0.2092  0.4103
 1270ERGO    C217226  13.704   0.463   6.959  0.1407 -0.4303  0.0978
 1271ERGO   ROH17227  10.481   6.716   5.751  0.1147  0.4432 -0.1081
 1271ERGO    R117228  10.496   6.731   6.033 -0.0503  0.3880 -0.0930
 1271ERGO    R217229  10.736   6.760   6.168 -0.0782 -0.0065  0.0784
 1271ERGO    R317230  10.610   6.974   6.279  0.1775  0.1879 -0.0021
 1271ERGO    R417231  10.776   6.866   6.494 -0.1727 -0.0847  0.1143
 1271ERGO    R517232  10.563   6.905   6.503 -0.1102  0.2568 -0.0484
 1271ERGO    C117233  10.682   7.128   6.789  0.0121  0.0524  0.0597
 1271ERGO    C217234  10.906   7.331   7.159 -0.1534 -0.0170  0.0453
 1272ERGO   ROH17235  12.800  17.274   6.458 -0.0598  0.0049 -0.3300
 1272ERGO    R117236  12.688  17.277   6.718  0.1226  0.0051 -0.2507
 1272ERGO    R217237  12.562  17.500   6.823  0.0807 -0.0399 -0.2140
 1272ERGO    R317238  12.358  17.325   6.864  0.1984 -0.1370 -0.0240
 1272ERGO    R417239  12.314  17.537   7.061  0.0359  0.0821 -0.2790
 1272ERGO    R517240  12.327  17.324   7.101  0.1821  0.1315 -0.0186
 1272ERGO    C117241  11.978  17.395   7.237  0.1201  0.0620 -0.1385
 1272ERGO    C217242  11.737  17.465   7.545  0.2035  0.1398  0.0689
 1273ERGO   ROH17243   7.132   2.477   6.163 -0.0818 -0.0317  0.2240
 1273ERGO    R117244   7.018   2.420   6.416 -0.0364 -0.2732  0.1918
 1273ERGO    R217245   7.098   2.204   6.569  0.4521 -0.0590  0.2543
 1273ERGO    R317246   7.137   2.395   6.759 -0.0906  0.0819  0.2411
 1273ERGO    R417247   7.184   2.141   6.898  0.7380  0.1985  0.2334
 1273ERGO    R517248   7.047   2.299   6.959  0.2466 -0.2106  0.2651
 1273ERGO    C117249   7.271   2.283   7.267  0.3950  0.4808  0.2087
 1273ERGO    C217250   7.434   2.170   7.579 -0.3456  0.4383  0.2009
 1274ERGO   ROH17251   3.351   0.682   7.090 -0.2446  0.3872  0.0322
 1274ERGO    R117252   3.166   0.602   7.288 -0.1767  0.1506  0.0035
 1274ERGO    R217253   3.060   0.347   7.298  0.0313  0.0558 -0.1007
 1274ERGO    R317254   3.153   0.353   7.553  0.0337  0.0262 -0.1013
 1274ERGO    R417255   2.932   0.159   7.558 -0.0085  0.0780 -0.1046
 1274ERGO    R517256   2.956   0.333   7.689  0.0318  0.0671 -0.1003
 1274ERGO    C117257   2.945   0.055   7.950 -0.0295  0.0631 -0.1076
 1274ERGO    C217258   2.918  -0.131   8.283  0.3804  0.1985  0.1112
 1275ERGO   ROH17259  12.310   6.680   9.546 -0.0912  0.1016  0.1103
 1275ERGO    R117260  12.223   6.839   9.329 -0.1646  0.0330  0.0894
 1275ERGO    R217261  12.391   6.915   9.123 -0.2133  0.0376  0.0518
 1275ERGO    R317262  12.198   6.803   8.967 -0.2035 -0.0475  0.0997
 1275ERGO    R417263  12.345   6.982   8.787 -0.3110 -0.0029  0.0564
 1275ERGO    R517264  12.130   6.980   8.821 -0.3034 -0.0839  0.1019
 1275ERGO    C117265  12.138   6.915   8.445 -0.3586 -0.1063  0.1041
 1275ERGO    C217266  12.147   6.904   8.113 -0.1840 -0.0435 -0.2982
 1276ERGO   ROH17267  14.085  13.571  10.104 -0.3200  0.0937  0.0684
 1276ERGO    R117268  13.999  13.475   9.852 -0.1997  0.0999  0.0249
 1276ERGO    R217269  13.941  13.643   9.641 -0.0285  0.1009 -0.0218
 1276ERGO    R317270  14.121  13.488   9.509  0.0046  0.0405  0.0933
 1276ERGO    R417271  13.981  13.635   9.297  0.2106  0.1180  0.0038
 1276ERGO    R517272  14.006  13.418   9.311  0.1150  0.1047  0.0041
 1276ERGO    C117273  14.173  13.484   8.974  0.3807  0.0712  0.1269
 1276ERGO    C217274  14.018  13.605   8.704  0.1369  0.1106  0.2685
 1277ERGO   ROH17275   8.469   0.634   6.887 -0.1659  0.0713  0.0730
 1277ERGO    R117276   8.369   0.717   7.139 -0.1578 -0.1923  0.1665
 1277ERGO    R217277   8.388   0.560   7.365  0.3682 -0.2009  0.1320
 1277ERGO    R317278   8.506   0.781   7.469 -0.0332  0.0523  0.0684
 1277ERGO    R417279   8.418   0.628   7.703  0.3486 -0.0987  0.1130
 1277ERGO    R517280   8.372   0.836   7.660 -0.0807 -0.1897  0.1047
 1277ERGO    C117281   8.547   0.875   7.997 -0.0397  0.1985  0.0423
 1277ERGO    C217282   8.664   1.064   8.264  0.1543 -0.2611  0.3464
 1278ERGO   ROH17283  15.309   6.128   5.864  0.0235  0.4167  0.1297
 1278ERGO    R117284  15.459   6.109   6.104 -0.0659  0.3006  0.1770
 1278ERGO    R217285  15.348   6.158   6.352 -0.1989  0.0247  0.1745
 1278ERGO    R317286  15.445   5.911   6.408 -0.0779  0.0322  0.0056
 1278ERGO    R417287  15.517   6.073   6.641 -0.3747 -0.1442  0.2297
 1278ERGO    R517288  15.652   5.952   6.521 -0.1939  0.0649  0.2142
 1278ERGO    C117289  15.707   5.790   6.862 -0.3634 -0.2355  0.1033
 1278ERGO    C217290  15.603   5.676   7.215 -0.2236 -0.0522 -0.1647
 1279ERGO   ROH17291  14.898   9.112   9.461 -0.0768 -0.1510  0.1118
 1279ERGO    R117292  15.019   9.173   9.212 -0.0331 -0.0120  0.1661
 1279ERGO    R217293  15.128   8.980   9.048  0.0624  0.0871  0.1093
 1279ERGO    R317294  14.961   9.089   8.863  0.0753  0.1183  0.1167
 1279ERGO    R417295  15.163   8.947   8.705  0.0618  0.1160  0.1066
 1279ERGO    R517296  15.106   9.156   8.684  0.0814  0.1212  0.1245
 1279ERGO    C117297  15.027   9.030   8.333  0.0736  0.1621  0.1120
 1279ERGO    C217298  15.126   8.843   8.030 -0.0001  0.1471 -0.1131
 1280ERGO   ROH17299   1.372   3.082   6.392  0.0724  0.1366 -0.0924
 1280ERGO    R117300   1.280   3.083   6.659 -0.0195 -0.1634 -0.1207
 1280ERGO    R217301   1.374   2.905   6.849  0.4061  0.0415 -0.1293
 1280ERGO    R317302   1.426   3.132   6.989 -0.2479  0.1711 -0.0650
 1280ERGO    R417303   1.376   2.929   7.194  0.3369 -0.0482 -0.1218
 1280ERGO    R517304   1.277   3.122   7.177 -0.2313 -0.3134 -0.0649
 1280ERGO    C117305   1.426   3.157   7.526 -0.3174  0.0212 -0.0571
 1280ERGO    C217306   1.548   3.189   7.954  0.1400 -0.1600  0.3447
 1281ERGO   ROH17307  15.372  12.572   6.020  0.0571  0.0914  0.0425
 1281ERGO    R117308  15.545  12.546   6.242 -0.0186  0.0381  0.0956
 1281ERGO    R217309  15.499  12.674   6.483 -0.1202 -0.0494  0.1228
 1281ERGO    R317310  15.521  12.423   6.584 -0.1245 -0.0810  0.0460
 1281ERGO    R417311  15.486  12.594   6.819 -0.0800 -0.1464  0.1019
 1281ERGO    R517312  15.646  12.450   6.786 -0.0943 -0.1489  0.0374
 1281ERGO    C117313  15.499  12.312   7.109 -0.0606 -0.2326  0.0175
 1281ERGO    C217314  15.466  12.387   7.421 -0.0699  0.1219 -0.0794
 1282ERGO   ROH17315   1.348  17.672   6.585  0.2989  0.1395 -0.0549
 1282ERGO    R117316   1.267  17.586   6.842  0.2816  0.1320 -0.0633
 1282ERGO    R217317   1.402  17.656   7.073  0.2786  0.0993 -0.0496
 1282ERGO    R317318   1.157  17.744   7.151  0.2914  0.1197 -0.0574
 1282ERGO    R417319   1.307  17.712   7.400  0.1840 -0.1182 -0.0382
 1282ERGO    R517320   1.113  17.625   7.354  0.1806 -0.0120 -0.1651
 1282ERGO    C117321   1.021  17.826   7.664  0.1409 -0.2256 -0.0388
 1282ERGO    C217322   1.010  18.007   7.959 -0.1114  0.1643  0.1596
 1283ERGO   ROH17323   8.867   6.958   5.817 -0.0692 -0.0212  0.0047
 1283ERGO    R117324   9.012   6.913   6.056  0.0561 -0.0695 -0.0784
 1283ERGO    R217325   9.148   7.114   6.188  0.0380 -0.0706 -0.0492
 1283ERGO    R317326   8.999   7.032   6.400  0.1602 -0.2229 -0.0213
 1283ERGO    R417327   9.214   7.192   6.518 -0.0179  0.0406 -0.0645
 1283ERGO    R517328   9.159   6.989   6.572  0.2293 -0.0158 -0.0351
 1283ERGO    C117329   9.111   7.161   6.909  0.0643 -0.0377 -0.0473
 1283ERGO    C217330   9.078   7.427   7.193 -0.0057 -0.0048 -0.0988
 1284ERGO   ROH17331  11.092  16.345   6.638  0.1776 -0.1858  0.0903
 1284ERGO    R117332  11.168  16.517   6.849  0.1439 -0.2090  0.1211
 1284ERGO    R217333  11.045  16.512   7.096  0.0295 -0.1601  0.0647
 1284ERGO    R317334  11.300  16.480   7.186 -0.0221 -0.2495  0.1828
 1284ERGO    R417335  11.168  16.644   7.392  0.0916  0.2915 -0.1527
 1284ERGO    R517336  11.353  16.691   7.287  0.1680 -0.0985 -0.2103
 1284ERGO    C117337  11.478  16.690   7.648  0.0794  0.4706 -0.1684
 1284ERGO    C217338  11.548  16.673   7.906  0.1541  0.2150 -0.2221
 1285ERGO   ROH17339  16.270   0.475   6.762  0.2582 -0.2505 -0.0795
 1285ERGO    R117340  16.339   0.549   7.026  0.2654 -0.1358 -0.1135
 1285ERGO    R217341  16.151   0.623   7.215  0.2730 -0.0352 -0.1466
 1285ERGO    R317342  16.270   0.428   7.362  0.2580  0.0231 -0.0562
 1285ERGO    R417343  16.170   0.619   7.560 -0.0210 -0.0388 -0.1276
 1285ERGO    R517344  16.374   0.545   7.543  0.0390  0.0753  0.0412
 1285ERGO    C117345  16.293   0.434   7.899 -0.2062  0.0137 -0.0317
 1285ERGO    C217346  16.253   0.609   8.254 -0.3192  0.2970 -0.1300
 1286ERGO   ROH17347   9.191  13.326   6.660 -0.0012  0.0894  0.0849
 1286ERGO    R117348   9.379  13.316   6.870  0.0359 -0.1144  0.0426
 1286ERGO    R217349   9.348  13.459   7.104  0.2805 -0.0191  0.0154
 1286ERGO    R317350   9.379  13.215   7.220 -0.0162 -0.0373  0.0660
 1286ERGO    R417351   9.418  13.407   7.439  0.0577 -0.0398  0.0610
 1286ERGO    R517352   9.555  13.247   7.380 -0.0635 -0.1838  0.1531
 1286ERGO    C117353   9.488  13.148   7.743 -0.3505 -0.0688  0.1351
 1286ERGO    C217354   9.538  13.248   8.159 -0.2168 -0.0595 -0.1302
 1287ERGO   ROH17355   0.804  14.053  10.196 -0.1024  0.0339 -0.0129
 1287ERGO    R117356   0.769  14.156   9.935 -0.1035 -0.0139 -0.0333
 1287ERGO    R217357   0.982  14.226   9.772 -0.1002  0.1581  0.0277
 1287ERGO    R317358   0.861  14.057   9.597  0.0984  0.0340  0.0087
 1287ERGO    R417359   0.963  14.277   9.431 -0.3532  0.2717  0.0578
 1287ERGO    R517360   0.758  14.203   9.437 -0.2229 -0.0729  0.1211
 1287ERGO    C117361   0.838  14.150   9.067 -0.3141  0.2214  0.0575
 1287ERGO    C217362   0.798  14.199   8.691  0.0888  0.0971 -0.1825
 1288ERGO   ROH17363   4.896  13.091   6.341 -0.1246  0.0580  0.0089
 1288ERGO    R117364   4.912  13.113   6.622 -0.0504  0.1330  0.0003
 1288ERGO    R217365   4.727  12.996   6.791 -0.0266  0.2046  0.0815
 1288ERGO    R317366   4.948  12.885   6.904 -0.0131  0.2037  0.0520
 1288ERGO    R417367   4.781  12.968   7.131 -0.0580  0.0477  0.0734
 1288ERGO    R517368   4.990  13.021   7.097 -0.0691  0.1164  0.1244
 1288ERGO    C117369   5.019  12.848   7.436 -0.0636 -0.0445  0.0410
 1288ERGO    C217370   5.027  12.845   7.768 -0.2126  0.1480  0.0477
 1289ERGO   ROH17371   8.236   7.691   5.677  0.0928 -0.3300 -0.1149
 1289ERGO    R117372   8.332   7.541   5.898  0.0666 -0.1736  0.0047
 1289ERGO    R217373   8.597   7.466   5.923  0.0516 -0.2051  0.0605
 1289ERGO    R317374   8.575   7.588   6.164  0.0792 -0.0078 -0.0351
 1289ERGO    R417375   8.818   7.427   6.185  0.0319 -0.0653  0.0986
 1289ERGO    R517376   8.649   7.424   6.322  0.0254  0.0921  0.0972
 1289ERGO    C117377   8.926   7.520   6.565  0.0462  0.2012  0.0311
 1289ERGO    C217378   9.026   7.741   6.806  0.0630  0.2328  0.2762
 1290ERGO   ROH17379  14.532   2.672   6.277  0.0804 -0.0027 -0.0438
 1290ERGO    R117380  14.490   2.858   6.486 -0.0689 -0.0250 -0.0527
 1290ERGO    R217381  14.272   3.027   6.493 -0.2142 -0.2049 -0.0552
 1290ERGO    R317382  14.235   2.918   6.739 -0.1131 -0.2258 -0.0492
 1290ERGO    R417383  14.080   3.166   6.744 -0.1746 -0.2729  0.0128
 1290ERGO    R517384  14.232   3.105   6.887 -0.1189 -0.2387 -0.0375
 1290ERGO    C117385  13.934   3.144   7.122 -0.0565 -0.3321  0.0579
 1290ERGO    C217386  13.714   3.142   7.390 -0.1400 -0.2675  0.2489
 1291ERGO   ROH17387  15.669   9.659   9.500  0.0795 -0.1864 -0.2200
 1291ERGO    R117388  15.709   9.838   9.285  0.1546 -0.1335 -0.1641
 1291ERGO    R217389  15.716   9.756   9.022  0.2131 -0.0671 -0.1912
 1291ERGO    R317390  15.523   9.945   8.991  0.2390 -0.0410 -0.1819
 1291ERGO    R417391  15.613   9.884   8.717  0.0604 -0.1947 -0.1938
 1291ERGO    R517392  15.603  10.081   8.810  0.1580 -0.1509 -0.2946
 1291ERGO    C117393  15.372  10.136   8.511 -0.0042 -0.2444 -0.1869
 1291ERGO    C217394  15.332  10.144   8.132 -0.1838  0.2884 -0.3461
 1292ERGO   ROH17395   2.170  16.000   6.558 -0.2926  0.1989  0.0063
 1292ERGO    R117396   2.040  15.835   6.748 -0.0708  0.0698  0.0494
 1292ERGO    R217397   2.176  15.703   6.949  0.1177  0.2564  0.0455
 1292ERGO    R317398   1.998  15.831   7.110 -0.0098  0.0692  0.0569
 1292ERGO    R417399   2.078  15.593   7.262  0.0993  0.0455 -0.0325
 1292ERGO    R517400   1.874  15.654   7.214  0.0721 -0.0607 -0.0607
 1292ERGO    C117401   1.853  15.649   7.594 -0.0310 -0.2529 -0.0671
 1292ERGO    C217402   1.768  15.521   7.899  0.0208 -0.1839  0.1393
 1293ERGO   ROH17403  14.533   4.833   5.655  0.2316 -0.0635  0.0317
 1293ERGO    R117404  14.647   4.953   5.885  0.1428  0.0458  0.0192
 1293ERGO    R217405  14.707   5.222   5.897 -0.1067  0.1036  0.0100
 1293ERGO    R317406  14.553   5.213   6.121 -0.0774 -0.0372  0.0258
 1293ERGO    R417407  14.694   5.469   6.139 -0.3578  0.1245 -0.0216
 1293ERGO    R517408  14.689   5.313   6.291 -0.1709  0.1367  0.0002
 1293ERGO    C117409  14.542   5.604   6.490 -0.4765  0.0045 -0.0252
 1293ERGO    C217410  14.590   5.771   6.755  0.3340  0.0023 -0.1014
 1294ERGO   ROH17411   8.473  14.567   6.636  0.0172 -0.0807 -0.1296
 1294ERGO    R117412   8.501  14.727   6.868 -0.1837 -0.0016 -0.1575
 1294ERGO    R217413   8.287  14.795   7.029 -0.2546 -0.3564 -0.0939
 1294ERGO    R317414   8.443  14.688   7.225  0.0026 -0.0674 -0.1333
 1294ERGO    R417415   8.247  14.855   7.367 -0.1621 -0.2913 -0.0941
 1294ERGO    R517416   8.464  14.865   7.386 -0.1616  0.0240 -0.2094
 1294ERGO    C117417   8.370  14.790   7.748  0.1333  0.0178 -0.1311
 1294ERGO    C217418   8.331  14.608   8.051 -0.0425 -0.2738 -0.1396
 1295ERGO   ROH17419   2.896  15.526   6.304  0.2883  0.2672  0.0601
 1295ERGO    R117420   3.014  15.426   6.541 -0.0008  0.1012  0.1401
 1295ERGO    R217421   3.207  15.566   6.681  0.1492 -0.1865  0.2348
 1295ERGO    R317422   3.036  15.530   6.889 -0.0339  0.1073  0.1394
 1295ERGO    R417423   3.290  15.601   7.015 -0.0153 -0.2035  0.2773
 1295ERGO    R517424   3.168  15.426   7.059 -0.2828 -0.0256  0.2547
 1295ERGO    C117425   3.177  15.588   7.404 -0.2830  0.0624  0.2124
 1295ERGO    C217426   2.896  15.837   7.641  0.1771  0.1641  0.1692
 1296ERGO   ROH17427  13.161  13.358  10.258 -0.1228  0.1870  0.1516
 1296ERGO    R117428  13.071  13.554  10.075 -0.0043  0.2273  0.1348
 1296ERGO    R217429  13.240  13.680   9.896  0.0584  0.0435  0.0586
 1296ERGO    R317430  13.060  13.592   9.713 -0.0706  0.1570  0.1298
 1296ERGO    R417431  13.273  13.716   9.554  0.0112 -0.1020  0.0382
 1296ERGO    R517432  13.060  13.761   9.544  0.0527  0.1005  0.0744
 1296ERGO    C117433  13.122  13.655   9.183 -0.1376 -0.0802  0.0933
 1296ERGO    C217434  13.142  13.718   8.887 -0.0401 -0.2855  0.1108
 1297ERGO   ROH17435   2.307  14.323   9.652 -0.3560  0.0753  0.0663
 1297ERGO    R117436   2.240  14.376   9.382 -0.1803  0.1029  0.0257
 1297ERGO    R217437   2.430  14.399   9.183 -0.0535  0.0174  0.1294
 1297ERGO    R317438   2.280  14.207   9.062 -0.0713  0.0805  0.0522
 1297ERGO    R417439   2.357  14.388   8.845  0.2541 -0.0524  0.0625
 1297ERGO    R517440   2.154  14.325   8.896  0.1652  0.1047 -0.1081
 1297ERGO    C117441   2.173  14.201   8.535  0.4165 -0.0339 -0.0492
 1297ERGO    C217442   2.370  14.228   8.260 -0.2789  0.2943 -0.1355
 1298ERGO   ROH17443   5.571   6.770   5.982  0.0572  0.1707 -0.0611
 1298ERGO    R117444   5.629   6.596   6.197  0.1375  0.1071 -0.1340
 1298ERGO    R217445   5.864   6.612   6.342  0.0518  0.2753 -0.0135
 1298ERGO    R317446   5.695   6.629   6.554 -0.0707 -0.0285 -0.0800
 1298ERGO    R417447   5.932   6.490   6.658  0.0456  0.1730 -0.0511
 1298ERGO    R517448   5.725   6.422   6.670  0.1083 -0.0666 -0.1835
 1298ERGO    C117449   5.812   6.435   7.041 -0.0730 -0.1717 -0.1355
 1298ERGO    C217450   5.878   6.269   7.362 -0.1096  0.2572  0.1141
 1299ERGO   ROH17451   7.417   5.036   6.092  0.1150 -0.0342  0.1227
 1299ERGO    R117452   7.479   5.185   6.324  0.2530  0.0344  0.0426
 1299ERGO    R217453   7.364   5.132   6.570  0.1829  0.2903  0.0639
 1299ERGO    R317454   7.623   5.115   6.652  0.1631  0.0722  0.0916
 1299ERGO    R417455   7.467   5.126   6.900  0.1348  0.1495  0.0777
 1299ERGO    R517456   7.633   5.256   6.845  0.2473  0.0326  0.1201
 1299ERGO    C117457   7.770   5.107   7.169  0.0882 -0.1372  0.1118
 1299ERGO    C217458   7.971   5.124   7.524 -0.1806  0.0016 -0.1383
 1300ERGO   ROH17459   6.914  11.477  10.091 -0.0958  0.2294  0.1052
 1300ERGO    R117460   6.981  11.598   9.844  0.0609  0.0206  0.0428
 1300ERGO    R217461   7.094  11.458   9.635 -0.1585 -0.2432  0.0991
 1300ERGO    R317462   6.884  11.559   9.495 -0.0263 -0.0011  0.0684
 1300ERGO    R417463   7.115  11.594   9.318  0.0078 -0.5163 -0.0115
 1300ERGO    R517464   6.974  11.749   9.381  0.2694 -0.2303 -0.0961
 1300ERGO    C117465   6.930  11.768   9.002  0.2287 -0.4480 -0.1047
 1300ERGO    C217466   7.067  11.690   8.659  0.1873 -0.3061 -0.1619
 1301ERGO   ROH17467   5.344  14.470   6.653 -0.2876 -0.0651 -0.0526
 1301ERGO    R117468   5.292  14.358   6.908 -0.1391 -0.0351 -0.0083
 1301ERGO    R217469   5.484  14.346   7.106 -0.0483  0.0665 -0.0888
 1301ERGO    R317470   5.293  14.474   7.253 -0.0279  0.0294 -0.0298
 1301ERGO    R417471   5.477  14.361   7.452 -0.0538 -0.1084 -0.0810
 1301ERGO    R517472   5.260  14.333   7.443 -0.0598 -0.0626 -0.1018
 1301ERGO    C117473   5.294  14.489   7.790 -0.0378 -0.2450 -0.0210
 1301ERGO    C217474   5.484  14.443   8.043 -0.3371 -0.1438  0.2744
 1302ERGO   ROH17475  11.064   5.037   5.868  0.0091  0.0613 -0.1509
 1302ERGO    R117476  10.872   4.892   6.018 -0.0226 -0.0055 -0.2570
 1302ERGO    R217477  10.872   4.616   6.032  0.1790  0.0056 -0.1122
 1302ERGO    R317478  10.876   4.662   6.300 -0.1162  0.1474 -0.1273
 1302ERGO    R417479  10.790   4.382   6.274  0.4462 -0.0521 -0.0732
 1302ERGO    R517480  10.687   4.540   6.384  0.0452 -0.1884 -0.2227
 1302ERGO    C117481  10.746   4.290   6.666  0.3247  0.0475 -0.0647
 1302ERGO    C217482  10.807   4.044   6.909 -0.0950  0.1557 -0.0930
 1303ERGO   ROH17483   4.021   2.752   6.683 -0.1280  0.1395  0.0088
 1303ERGO    R117484   4.151   2.861   6.909  0.0888 -0.0427 -0.0251
 1303ERGO    R217485   4.022   2.899   7.151  0.2101  0.1254  0.0116
 1303ERGO    R317486   4.228   2.751   7.248  0.0417 -0.1595 -0.0507
 1303ERGO    R417487   4.106   2.872   7.485  0.3323  0.0989 -0.0202
 1303ERGO    R517488   4.316   2.882   7.428  0.3276 -0.2317 -0.1290
 1303ERGO    C117489   4.348   2.718   7.771  0.2453 -0.1841 -0.0973
 1303ERGO    C217490   4.526   2.492   7.926 -0.0381  0.2903  0.0613
 1304ERGO   ROH17491  11.709   5.282   9.514 -0.1048  0.2180 -0.0042
 1304ERGO    R117492  11.793   5.254   9.245 -0.0402  0.2035  0.0174
 1304ERGO    R217493  11.790   5.010   9.113  0.0915  0.1773  0.0630
 1304ERGO    R317494  11.642   5.147   8.931  0.0665  0.0781  0.0076
 1304ERGO    R417495  11.785   4.946   8.774  0.0937  0.0330  0.0892
 1304ERGO    R517496  11.782   5.161   8.738  0.0602  0.0181 -0.0017
 1304ERGO    C117497  11.644   5.037   8.405  0.0715 -0.1442  0.0527
 1304ERGO    C217498  11.660   5.082   8.103 -0.1261  0.2149 -0.3056
 1305ERGO   ROH17499   6.955   8.243   9.573  0.1769  0.1096 -0.0430
 1305ERGO    R117500   7.005   8.094   9.338  0.1497  0.1297 -0.0621
 1305ERGO    R217501   6.812   7.937   9.217  0.2066 -0.0667  0.0919
 1305ERGO    R317502   6.875   8.085   8.998 -0.0863 -0.0275  0.0302
 1305ERGO    R417503   6.765   7.837   8.889  0.3392 -0.2675  0.1333
 1305ERGO    R517504   6.957   7.926   8.840  0.1775  0.0595  0.0770
 1305ERGO    C117505   6.798   7.917   8.493  0.1413 -0.3477  0.0995
 1305ERGO    C217506   6.755   7.944   8.180  0.2254  0.2179 -0.0283
 1306ERGO   ROH17507   2.820   4.901   6.316  0.2157 -0.0709  0.1542
 1306ERGO    R117508   2.700   5.039   6.532  0.1870  0.1012  0.0300
 1306ERGO    R217509   2.730   4.959   6.794 -0.1541  0.0870  0.0688
 1306ERGO    R317510   2.814   5.215   6.829  0.1360 -0.0118  0.1169
 1306ERGO    R417511   2.731   5.127   7.096 -0.3868  0.1702  0.0255
 1306ERGO    R517512   2.663   5.306   6.992  0.0057  0.2354 -0.1341
 1306ERGO    C117513   2.811   5.465   7.305 -0.2500  0.1259  0.0457
 1306ERGO    C217514   2.763   5.567   7.667  0.0023 -0.1199 -0.1304
 1307ERGO   ROH17515   3.859  13.204   6.694  0.0587  0.0111  0.1351
 1307ERGO    R117516   3.792  13.259   6.964  0.1160  0.1640  0.1201
 1307ERGO    R217517   3.810  13.067   7.163 -0.1448  0.1836  0.1672
 1307ERGO    R317518   3.963  13.256   7.285  0.1002  0.0127  0.1278
 1307ERGO    R417519   3.895  13.067   7.498 -0.2165  0.1857  0.1851
 1307ERGO    R517520   3.865  13.283   7.501  0.0901  0.2341  0.0974
 1307ERGO    C117521   4.089  13.244   7.807 -0.0281  0.0264  0.1585
 1307ERGO    C217522   4.237  13.371   8.127  0.0156 -0.1985  0.1126
 1308ERGO   ROH17523   8.429   7.287   7.567  0.1866 -0.2017  0.0729
 1308ERGO    R117524   8.366   7.234   7.837  0.2052 -0.2947  0.0590
 1308ERGO    R217525   8.525   7.076   7.999  0.4062 -0.0610  0.0920
 1308ERGO    R317526   8.520   7.294   8.161  0.0487 -0.0638  0.0938
 1308ERGO    R417527   8.586   7.070   8.339  0.6259  0.0569  0.0569
 1308ERGO    R517528   8.424   7.214   8.366  0.3329 -0.2736  0.1530
 1308ERGO    C117529   8.617   7.271   8.690  0.4183  0.1229  0.0382
 1308ERGO    C217530   8.600   7.286   9.114 -0.1362 -0.0786 -0.2114
 1309ERGO   ROH17531   5.341  11.928   6.222 -0.3167  0.0891  0.0293
 1309ERGO    R117532   5.324  12.013   6.491 -0.0416  0.0746  0.0534
 1309ERGO    R217533   5.240  11.847   6.695 -0.0665  0.1358  0.0847
 1309ERGO    R317534   5.476  11.921   6.809  0.0889 -0.1157 -0.0600
 1309ERGO    R417535   5.329  11.784   7.023 -0.1818  0.5068  0.1928
 1309ERGO    R517536   5.416  11.984   7.032  0.2050  0.3763 -0.1497
 1309ERGO    C117537   5.601  11.817   7.321 -0.1031  0.4868  0.1198
 1309ERGO    C217538   5.659  11.567   7.558 -0.3723 -0.1502  0.1032
 1310ERGO   ROH17539  16.596  10.894   6.012 -0.0549 -0.2223  0.0265
 1310ERGO    R117540  16.486  11.010   6.246 -0.0460 -0.1308 -0.0106
 1310ERGO    R217541  16.393  10.858   6.458  0.0217 -0.0540  0.0921
 1310ERGO    R317542  16.565  11.011   6.601  0.0169  0.0595 -0.0274
 1310ERGO    R417543  16.378  10.905   6.799  0.2368 -0.0506  0.0994
 1310ERGO    R517544  16.429  11.114   6.768  0.0760 -0.0281  0.0633
 1310ERGO    C117545  16.532  11.076   7.133  0.3579  0.0578 -0.0085
 1310ERGO    C217546  16.523  11.094   7.439  0.3088 -0.2305 -0.2316
 1311ERGO   ROH17547  15.397   6.630   9.490 -0.0319  0.2222  0.0496
 1311ERGO    R117548  15.544   6.684   9.254  0.1069  0.0373  0.0919
 1311ERGO    R217549  15.705   6.496   9.134 -0.1003 -0.1721  0.1365
 1311ERGO    R317550  15.555   6.554   8.914  0.0355  0.0263  0.0934
 1311ERGO    R417551  15.819   6.479   8.808  0.0543 -0.0343  0.1822
 1311ERGO    R517552  15.709   6.663   8.766  0.1614  0.0428  0.2332
 1311ERGO    C117553  15.745   6.525   8.412  0.2719  0.2322  0.1683
 1311ERGO    C217554  15.788   6.416   8.124 -0.1667  0.0303 -0.1727
 1312ERGO   ROH17555   7.519   5.402   7.460 -0.2326  0.1096  0.1334
 1312ERGO    R117556   7.713   5.554   7.321 -0.1825 -0.0061  0.0766
 1312ERGO    R217557   7.668   5.657   7.068 -0.2045  0.0392  0.1037
 1312ERGO    R317558   7.738   5.891   7.187 -0.0073 -0.0106  0.0911
 1312ERGO    R417559   7.690   5.961   6.906 -0.5754  0.1223  0.1991
 1312ERGO    R517560   7.869   6.004   7.021 -0.3434  0.0897 -0.1245
 1312ERGO    C117561   7.768   6.358   6.922 -0.6062  0.1239  0.2430
 1312ERGO    C217562   7.720   6.751   6.943 -0.0072 -0.3922  0.2848
 1313ERGO   ROH17563  12.864   5.017   9.213 -0.0542  0.0129 -0.0674
 1313ERGO    R117564  12.767   5.046   8.948 -0.0869 -0.0374 -0.0606
 1313ERGO    R217565  12.901   4.945   8.729 -0.0401  0.0481 -0.0680
 1313ERGO    R317566  12.662   4.825   8.679  0.0271 -0.0921 -0.0623
 1313ERGO    R417567  12.762   4.904   8.415 -0.1637  0.2603 -0.0430
 1313ERGO    R517568  12.567   4.953   8.501 -0.1648  0.0225  0.1126
 1313ERGO    C117569  12.456   4.768   8.186 -0.1726  0.2524 -0.0231
 1313ERGO    C217570  12.605   4.724   7.907  0.5122  0.0051  0.0397
 1314ERGO   ROH17571   8.213   9.808   6.143  0.2436 -0.0194 -0.0569
 1314ERGO    R117572   8.094   9.907   6.381  0.1396 -0.0608 -0.0915
 1314ERGO    R217573   8.139   9.793   6.628  0.1384 -0.0210 -0.0743
 1314ERGO    R317574   8.210  10.047   6.696 -0.0030  0.0195 -0.0735
 1314ERGO    R417575   8.158   9.912   6.952  0.0023  0.0091 -0.0765
 1314ERGO    R517576   8.070  10.099   6.883 -0.0746 -0.0381 -0.1097
 1314ERGO    C117577   8.236  10.220   7.204 -0.2095  0.0645 -0.0770
 1314ERGO    C217578   8.250  10.275   7.618  0.4014  0.0092  0.2334
 1315ERGO   ROH17579  16.923  10.531   9.543 -0.0045  0.3098  0.1715
 1315ERGO    R117580  16.927  10.523   9.261  0.1081  0.1168  0.1760
 1315ERGO    R217581  16.754  10.672   9.105 -0.0176 -0.1924  0.0042
 1315ERGO    R317582  16.984  10.760   8.990 -0.0745  0.0016  0.0357
 1315ERGO    R417583  16.800  10.719   8.766  0.1055 -0.4874 -0.0225
 1315ERGO    R517584  17.000  10.635   8.787  0.2089 -0.1923  0.1750
 1315ERGO    C117585  17.043  10.829   8.461  0.1233 -0.4772 -0.0084
 1315ERGO    C217586  16.952  10.929   8.182 -0.0708  0.0721  0.0662
 1316ERGO   ROH17587   8.793   5.976   5.647  0.4002  0.0002  0.1893
 1316ERGO    R117588   8.689   5.995   5.910  0.3078 -0.0275  0.1543
 1316ERGO    R217589   8.815   5.883   6.128  0.3517  0.1513  0.2148
 1316ERGO    R317590   8.798   6.136   6.227  0.0837  0.1616  0.1527
 1316ERGO    R417591   8.812   5.962   6.464  0.1789  0.2107  0.2005
 1316ERGO    R517592   8.660   6.113   6.422  0.0415  0.0648  0.1195
 1316ERGO    C117593   8.794   6.246   6.754 -0.1734  0.2551  0.1338
 1316ERGO    C217594   8.991   6.262   7.051 -0.2335 -0.0548 -0.0701
 1317ERGO   ROH17595  13.790   9.418   9.491  0.0607 -0.0786 -0.0753
 1317ERGO    R117596  13.931   9.289   9.282  0.1077  0.1055 -0.1586
 1317ERGO    R217597  13.807   9.119   9.102  0.2023  0.0305 -0.1502
 1317ERGO    R317598  13.919   9.285   8.918 -0.0236  0.1818 -0.1560
 1317ERGO    R417599  13.721   9.131   8.768 -0.0170  0.1079 -0.0931
 1317ERGO    R517600  13.931   9.154   8.719 -0.0597  0.2693 -0.2179
 1317ERGO    C117601  13.775   9.294   8.401 -0.3568  0.2949 -0.0652
 1317ERGO    C217602  13.888   9.507   8.199  0.4213  0.0511 -0.0561
 1318ERGO   ROH17603  16.860   6.163   9.674 -0.0935 -0.2109 -0.0694
 1318ERGO    R117604  16.929   6.275   9.423 -0.1415 -0.2128 -0.0840
 1318ERGO    R217605  17.156   6.201   9.285 -0.1291 -0.1615 -0.0939
 1318ERGO    R317606  16.979   6.154   9.084 -0.1308 -0.2289 -0.0761
 1318ERGO    R417607  17.242   6.146   8.955 -0.1433 -0.1352 -0.1019
 1318ERGO    R517608  17.071   6.268   8.895 -0.1925 -0.1991 -0.0868
 1318ERGO    C117609  17.125   6.069   8.574 -0.1538 -0.1832 -0.0897
 1318ERGO    C217610  17.077   6.050   8.231 -0.1988  0.1122 -0.1413
 1319ERGO   ROH17611  13.246   7.632   9.257  0.0687  0.2423 -0.0272
 1319ERGO    R117612  13.061   7.636   9.042 -0.0392  0.0304  0.0596
 1319ERGO    R217613  13.044   7.846   8.864 -0.2712 -0.0516 -0.0141
 1319ERGO    R317614  13.079   7.650   8.679 -0.2281 -0.0991  0.0430
 1319ERGO    R417615  12.900   7.844   8.550  0.0210  0.0149 -0.1532
 1319ERGO    R517616  12.864   7.630   8.573 -0.1486  0.0373 -0.1574
 1319ERGO    C117617  12.848   7.658   8.193  0.2317  0.0089 -0.1806
 1319ERGO    C217618  12.747   7.625   7.914 -0.4071  0.0174  0.0397
 1320ERGO   ROH17619   2.100  12.387   6.403  0.0512  0.0545 -0.0358
 1320ERGO    R117620   2.202  12.260   6.635  0.0240 -0.0073 -0.0591
 1320ERGO    R217621   2.421  12.357   6.773 -0.0094 -0.0332  0.0009
 1320ERGO    R317622   2.250  12.349   6.985 -0.0370 -0.1128 -0.0220
 1320ERGO    R417623   2.518  12.337   7.105 -0.0284  0.3027  0.0316
 1320ERGO    R517624   2.354  12.197   7.139  0.1368  0.1112  0.0932
 1320ERGO    C117625   2.414  12.318   7.496 -0.0653  0.4237  0.0280
 1320ERGO    C217626   2.522  12.258   7.820 -0.0303  0.2392  0.1144
 1321ERGO   ROH17627  17.644   7.176   5.975 -0.1587  0.0400  0.0590
 1321ERGO    R117628  17.484   7.109   6.198 -0.0962 -0.1408  0.0500
 1321ERGO    R217629  17.521   6.878   6.344  0.2849 -0.0070  0.1681
 1321ERGO    R317630  17.536   7.051   6.554 -0.0769  0.1241  0.0939
 1321ERGO    R417631  17.406   6.811   6.663  0.4576 -0.1358  0.2058
 1321ERGO    R517632  17.331   7.016   6.674 -0.0013 -0.2842  0.1245
 1321ERGO    C117633  17.353   6.935   7.046  0.2183 -0.0876  0.1580
 1321ERGO    C217634  17.234   6.931   7.387  0.0664 -0.2426  0.4652
 1322ERGO   ROH17635   8.164   8.910   9.869 -0.2170 -0.4493 -0.0379
 1322ERGO    R117636   8.084   9.076   9.654  0.0525 -0.2884 -0.0186
 1322ERGO    R217637   8.189   9.050   9.399  0.0387 -0.4076 -0.0166
 1322ERGO    R317638   7.928   9.030   9.328  0.0073  0.0004 -0.0393
 1322ERGO    R417639   8.074   9.028   9.074  0.0150 -0.1377 -0.0288
 1322ERGO    R517640   7.910   9.161   9.128  0.2074  0.0889  0.0011
 1322ERGO    C117641   7.761   8.996   8.818 -0.0282  0.4024 -0.0573
 1322ERGO    C217642   7.601   9.061   8.472  0.0809  0.0219 -0.0967
 1323ERGO   ROH17643   9.114   2.840   6.206  0.1246 -0.0220 -0.1238
 1323ERGO    R117644   9.345   2.881   6.365  0.1410 -0.0416 -0.1427
 1323ERGO    R217645   9.332   2.926   6.638  0.1454  0.2535 -0.1870
 1323ERGO    R317646   9.504   2.716   6.648 -0.0235  0.1207  0.0477
 1323ERGO    R417647   9.622   2.918   6.824  0.1585  0.2374 -0.2073
 1323ERGO    R517648   9.721   2.817   6.658  0.0618 -0.0447 -0.0977
 1323ERGO    C117649   9.953   2.716   6.943  0.0074  0.1034  0.0013
 1323ERGO    C217650  10.235   2.731   7.161  0.1595 -0.1079  0.1858
 1324ERGO   ROH17651  14.023  10.840   9.627  0.0707 -0.2192 -0.1626
 1324ERGO    R117652  13.953  10.984   9.393  0.1034 -0.0297 -0.0580
 1324ERGO    R217653  14.132  11.146   9.259  0.1724 -0.0526  0.0017
 1324ERGO    R317654  14.061  10.993   9.046  0.0300  0.1206 -0.0771
 1324ERGO    R417655  14.210  11.218   8.930  0.2196  0.0504  0.0353
 1324ERGO    R517656  14.010  11.152   8.873  0.1602  0.2542  0.0075
 1324ERGO    C117657  14.189  11.117   8.538  0.1135  0.2728 -0.0191
 1324ERGO    C217658  14.297  11.173   8.167 -0.1265  0.3751 -0.1509
 1325ERGO   ROH17659   2.227   7.189  10.073  0.2462 -0.1319 -0.0384
 1325ERGO    R117660   2.395   7.209   9.846  0.1286  0.2218 -0.1015
 1325ERGO    R217661   2.440   6.996   9.675  0.7151  0.2196  0.0302
 1325ERGO    R317662   2.356   7.172   9.486  0.1132 -0.1368 -0.0676
 1325ERGO    R417663   2.537   6.990   9.344  0.5821  0.2583 -0.0089
 1325ERGO    R517664   2.549   7.207   9.348 -0.0351  0.3199 -0.1779
 1325ERGO    C117665   2.515   7.151   8.973 -0.0604 -0.0536 -0.1235
 1325ERGO    C217666   2.527   7.114   8.598 -0.1802  0.1459  0.0707
 1326ERGO   ROH17667   0.655  11.248   6.293 -0.2135 -0.1114  0.0297
 1326ERGO    R117668   0.570  11.309   6.556  0.0285 -0.1893  0.1288
 1326ERGO    R217669   0.745  11.320   6.770  0.2823  0.0500 -0.0786
 1326ERGO    R317670   0.639  11.568   6.803  0.0111 -0.0753  0.0134
 1326ERGO    R417671   0.715  11.484   7.073  0.3820  0.0322 -0.0591
 1326ERGO    R517672   0.519  11.555   7.009  0.2316 -0.2089  0.1333
 1326ERGO    C117673   0.597  11.812   7.279  0.1854 -0.0957  0.0387
 1326ERGO    C217674   0.642  11.954   7.641 -0.1036 -0.1092  0.0948
 1327ERGO   ROH17675   0.327   1.294   7.326 -0.2782  0.2484  0.1572
 1327ERGO    R117676   0.347   1.261   7.607 -0.0402  0.0190  0.1170
 1327ERGO    R217677   0.443   1.030   7.723  0.0961 -0.0615 -0.1540
 1327ERGO    R317678   0.613   1.201   7.847  0.1704 -0.1382 -0.1478
 1327ERGO    R417679   0.619   0.960   8.012 -0.1102 -0.0766 -0.0292
 1327ERGO    R517680   0.579   1.162   8.081  0.0141 -0.0063 -0.1440
 1327ERGO    C117681   0.882   1.080   8.296 -0.1606 -0.1575  0.0492
 1327ERGO    C217682   1.258   1.117   8.390  0.0084  0.1265 -0.1795
 1328ERGO   ROH17683   1.558   7.230   6.236 -0.0020 -0.0080 -0.0164
 1328ERGO    R117684   1.559   7.193   6.517 -0.0694 -0.1297 -0.0307
 1328ERGO    R217685   1.767   7.070   6.650 -0.1245 -0.2370 -0.0379
 1328ERGO    R317686   1.767   7.298   6.796 -0.1023 -0.2988  0.0578
 1328ERGO    R417687   1.993   7.142   6.902  0.1418 -0.1856 -0.2865
 1328ERGO    R517688   1.828   7.228   7.017  0.2244 -0.3489 -0.0447
 1328ERGO    C117689   2.124   7.400   7.186  0.3177 -0.2138 -0.3414
 1328ERGO    C217690   2.353   7.500   7.501  0.1880 -0.1568  0.0291
 1329ERGO   ROH17691   4.454  14.673   6.665  0.1400  0.1526  0.0421
 1329ERGO    R117692   4.326  14.742   6.908  0.1251  0.1988  0.0210
 1329ERGO    R217693   4.382  14.616   7.148 -0.0065  0.1343  0.0181
 1329ERGO    R317694   4.428  14.870   7.233  0.1263  0.0967  0.0611
 1329ERGO    R417695   4.314  14.732   7.466 -0.1260  0.1651 -0.0183
 1329ERGO    R517696   4.243  14.918   7.377  0.0675  0.2243 -0.0550
 1329ERGO    C117697   4.317  15.038   7.731 -0.0709  0.1477  0.0008
 1329ERGO    C217698   4.485  15.283   7.984 -0.4157  0.2608  0.3151
 1330ERGO   ROH17699   7.449   4.087   6.155  0.0044  0.1387 -0.0564
 1330ERGO    R117700   7.506   4.016   6.423  0.0142  0.0032 -0.0931
 1330ERGO    R217701   7.461   4.187   6.635  0.1786 -0.0388 -0.0196
 1330ERGO    R317702   7.318   3.978   6.732  0.0531  0.0245 -0.0675
 1330ERGO    R417703   7.368   4.147   6.966 -0.0539  0.0569 -0.0720
 1330ERGO    R517704   7.413   3.935   6.948 -0.1041  0.0418  0.0047
 1330ERGO    C117705   7.179   3.927   7.249 -0.3073  0.1720 -0.1475
 1330ERGO    C217706   7.107   3.883   7.620 -0.1098  0.0718  0.2166
 1331ERGO   ROH17707  15.414   8.387   6.280 -0.2943 -0.3142  0.1177
 1331ERGO    R117708  15.322   8.416   6.546 -0.2295 -0.0235  0.1111
 1331ERGO    R217709  15.494   8.432   6.761 -0.1838 -0.0746  0.0734
 1331ERGO    R317710  15.357   8.661   6.813  0.0869  0.1241 -0.0588
 1331ERGO    R417711  15.495   8.599   7.064 -0.3149 -0.1457  0.1146
 1331ERGO    R517712  15.282   8.636   7.039 -0.2410  0.1791 -0.1530
 1331ERGO    C117713  15.367   8.912   7.288 -0.1373 -0.0005  0.0145
 1331ERGO    C217714  15.399   8.885   7.517 -0.2246  0.0239  0.2538
 1332ERGO   ROH17715   8.305   6.479   9.522 -0.1088  0.0556 -0.1433
 1332ERGO    R117716   8.265   6.309   9.299 -0.0597  0.0061 -0.1149
 1332ERGO    R217717   8.146   6.397   9.065 -0.0507 -0.0578 -0.1435
 1332ERGO    R317718   8.373   6.299   8.952 -0.0239 -0.0433 -0.1026
 1332ERGO    R417719   8.183   6.320   8.730  0.0384  0.0189 -0.1519
 1332ERGO    R517720   8.295   6.143   8.788  0.0129 -0.0011 -0.1613
 1332ERGO    C117721   8.417   6.184   8.429  0.1155  0.0772 -0.1183
 1332ERGO    C217722   8.329   6.177   8.010 -0.1854  0.1153  0.1479
 1333ERGO   ROH17723  10.347   6.707   9.325 -0.3501  0.1685 -0.1463
 1333ERGO    R117724  10.386   6.514   9.123 -0.0341  0.0752 -0.0031
 1333ERGO    R217725  10.192   6.450   8.938  0.0896 -0.3297 -0.0103
 1333ERGO    R317726  10.387   6.509   8.759  0.0531 -0.1776  0.0001
 1333ERGO    R417727  10.168   6.402   8.596  0.0608 -0.1144 -0.0392
 1333ERGO    R517728  10.375   6.333   8.597  0.0700 -0.0727 -0.1114
 1333ERGO    C117729  10.338   6.429   8.229  0.0098  0.1538 -0.0463
 1333ERGO    C217730  10.431   6.478   7.861  0.0340 -0.2950 -0.3239
 1334ERGO   ROH17731   5.864  10.998  10.449 -0.0108 -0.5017 -0.1862
 1334ERGO    R117732   5.905  11.212  10.269 -0.4508 -0.1591  0.1004
 1334ERGO    R217733   6.097  11.203  10.068 -0.1146  0.6737  0.3505
 1334ERGO    R317734   5.884  11.261   9.909 -0.1022  0.1407  0.1147
 1334ERGO    R417735   6.112  11.258   9.727  0.0582  0.3801  0.3052
 1334ERGO    R517736   5.968  11.419   9.750 -0.2596  0.1499  0.0370
 1334ERGO    C117737   5.921  11.344   9.380  0.1704 -0.2911  0.0575
 1334ERGO    C217738   6.048  11.341   9.130 -0.0176 -0.0238 -0.0139
 1335ERGO   ROH17739  15.391  16.431   6.662  0.0404 -0.0980  0.1019
 1335ERGO    R117740  15.386  16.395   6.943  0.0312  0.0050  0.1156
 1335ERGO    R217741  15.616  16.356   7.091  0.0373  0.1697  0.1533
 1335ERGO    R317742  15.520  16.567   7.234 -0.0779  0.1791  0.0635
 1335ERGO    R417743  15.661  16.402   7.431 -0.2938  0.1624  0.2010
 1335ERGO    R517744  15.455  16.473   7.444 -0.2975  0.1868 -0.0010
 1335ERGO    C117745  15.597  16.626   7.763 -0.5948  0.1669  0.1444
 1335ERGO    C217746  15.754  16.728   8.062  0.2005  0.0324  0.1183
 1336ERGO   ROH17747  15.646  15.092   6.577 -0.3531 -0.0267  0.1930
 1336ERGO    R117748  15.630  14.937   6.814 -0.2719  0.0107  0.2228
 1336ERGO    R217749  15.749  15.015   7.051 -0.2609  0.0879  0.1894
 1336ERGO    R317750  15.498  14.980   7.150 -0.2354  0.0291  0.2357
 1336ERGO    R417751  15.671  14.981   7.386 -0.1675 -0.1060  0.1934
 1336ERGO    R517752  15.526  14.828   7.332 -0.1824 -0.0784  0.1418
 1336ERGO    C117753  15.390  14.929   7.674 -0.0889 -0.2741  0.2390
 1336ERGO    C217754  15.071  14.896   7.808 -0.5002 -0.0100 -0.0662
 1337ERGO   ROH17755   7.239  14.621   6.727  0.2157 -0.0663  0.2227
 1337ERGO    R117756   7.222  14.772   6.966  0.0225  0.0474  0.1390
 1337ERGO    R217757   6.984  14.872   7.062 -0.1172 -0.2578  0.1128
 1337ERGO    R317758   7.056  14.741   7.288  0.1158 -0.0196  0.1824
 1337ERGO    R417759   6.819  14.898   7.365 -0.1978 -0.4114  0.0831
 1337ERGO    R517760   7.014  14.899   7.464 -0.1948 -0.0008  0.1020
 1337ERGO    C117761   6.791  14.789   7.754 -0.0260 -0.2773  0.1312
 1337ERGO    C217762   6.478  14.703   8.030 -0.1878 -0.0755 -0.0326
 1338ERGO   ROH17763  15.375  15.232  10.178  0.0069  0.2401  0.0597
 1338ERGO    R117764  15.297  15.061   9.966  0.0177  0.1289  0.1460
 1338ERGO    R217765  15.079  15.114   9.805  0.0407  0.0541  0.0984
 1338ERGO    R317766  15.261  15.087   9.604  0.0551 -0.0706  0.1255
 1338ERGO    R417767  14.999  15.071   9.472  0.0561  0.0075  0.0997
 1338ERGO    R517768  15.162  14.926   9.456  0.0005 -0.0680  0.1537
 1338ERGO    C117769  15.123  15.022   9.089  0.0784 -0.1369  0.1258
 1338ERGO    C217770  15.200  15.009   8.788 -0.4071  0.3306 -0.1263
 1339ERGO   ROH17771  12.788   4.308   5.873 -0.1015  0.2847 -0.0593
 1339ERGO    R117772  12.818   4.301   6.154 -0.0351  0.0972 -0.0699
 1339ERGO    R217773  12.706   4.491   6.320  0.1456  0.0811  0.0684
 1339ERGO    R317774  12.599   4.273   6.443  0.0177  0.0873 -0.0292
 1339ERGO    R417775  12.601   4.482   6.649  0.4637 -0.0903  0.1694
 1339ERGO    R517776  12.687   4.282   6.666  0.2560 -0.2129 -0.1011
 1339ERGO    C117777  12.440   4.272   6.956  0.5287 -0.1843  0.1366
 1339ERGO    C217778  12.205   4.179   7.233  0.2810  0.0495 -0.1208
 1340ERGO   ROH17779  14.335   2.712  10.005 -0.2220  0.0725  0.0011
 1340ERGO    R117780  14.288   2.606   9.747 -0.2223 -0.0408  0.0469
 1340ERGO    R217781  14.079   2.690   9.586 -0.1911 -0.0719 -0.0115
 1340ERGO    R317782  14.278   2.734   9.406 -0.1656 -0.1997 -0.0156
 1340ERGO    R417783  14.042   2.675   9.243 -0.2506  0.1164 -0.0144
 1340ERGO    R517784  14.236   2.576   9.231 -0.3523 -0.0816 -0.0802
 1340ERGO    C117785  14.206   2.707   8.874 -0.2613  0.1061 -0.0200
 1340ERGO    C217786  14.158   2.660   8.566 -0.2441 -0.0212 -0.1188
 1341ERGO   ROH17787   7.282  16.405   6.829  0.1091  0.3137  0.2338
 1341ERGO    R117788   7.199  16.204   7.011 -0.1835  0.1101 -0.1125
 1341ERGO    R217789   7.265  16.209   7.279 -0.0580 -0.5180 -0.1186
 1341ERGO    R317790   6.996  16.188   7.312 -0.0924 -0.0895 -0.0596
 1341ERGO    R417791   7.111  16.056   7.548 -0.2530 -0.0748  0.0322
 1341ERGO    R517792   6.965  15.971   7.410 -0.4028  0.0275  0.1208
 1341ERGO    C117793   6.769  15.947   7.735 -0.3989  0.5858  0.1754
 1341ERGO    C217794   6.763  15.781   8.033 -0.1533  0.0742  0.1727
 1342ERGO   ROH17795  17.678  12.000   6.292  0.1600 -0.0923 -0.1109
 1342ERGO    R117796  17.567  11.934   6.544  0.2745 -0.1307 -0.0698
 1342ERGO    R217797  17.719  11.828   6.750  0.4569  0.2285 -0.0111
 1342ERGO    R317798  17.616  12.037   6.889  0.1206  0.1463 -0.1283
 1342ERGO    R417799  17.682  11.838   7.093  0.2880  0.2956 -0.0304
 1342ERGO    R517800  17.489  11.935   7.065  0.1704  0.0394 -0.1531
 1342ERGO    C117801  17.564  12.039   7.424 -0.1262  0.2575 -0.1517
 1342ERGO    C217802  17.444  12.074   7.824  0.0353 -0.0577 -0.2002
 1343ERGO   ROH17803  12.361   6.181   5.466  0.0366  0.1655  0.0778
 1343ERGO    R117804  12.353   6.233   5.744  0.2332  0.2037  0.0777
 1343ERGO    R217805  12.242   6.057   5.925 -0.0138  0.4093  0.1317
 1343ERGO    R317806  12.484   6.078   6.047  0.0776 -0.0090  0.0386
 1343ERGO    R417807  12.297   6.019   6.265  0.0273  0.4576  0.1307
 1343ERGO    R517808  12.437   6.186   6.255  0.3572  0.1849  0.0069
 1343ERGO    C117809  12.556   6.017   6.576  0.1370  0.0931  0.0427
 1343ERGO    C217810  12.730   5.931   6.858 -0.0882  0.0642  0.0389
 1344ERGO   ROH17811   2.079  13.274   6.488 -0.1549 -0.1340 -0.2418
 1344ERGO    R117812   1.909  13.282   6.715 -0.1522  0.0316 -0.2449
 1344ERGO    R217813   1.940  13.112   6.930 -0.3715 -0.0558 -0.2819
 1344ERGO    R317814   1.947  13.344   7.071 -0.0827 -0.0916 -0.2299
 1344ERGO    R417815   1.928  13.133   7.274 -0.4037 -0.1181 -0.2789
 1344ERGO    R517816   1.797  13.306   7.254 -0.1697  0.0682 -0.2647
 1344ERGO    C117817   1.927  13.362   7.608 -0.1513 -0.1880 -0.2283
 1344ERGO    C217818   1.923  13.366   7.928  0.2890 -0.0802 -0.0415
 1345W        W17819  12.790   0.397   0.055 -0.3032 -0.1426  0.0800
 1346W        W17820   2.304   9.882  13.152  0.0559 -0.2660 -0.1464
 1347W        W17821   3.843   3.347   6.216 -0.1832  0.0347 -0.1044
 1348W        W17822  16.971   1.619  11.301 -0.0772  0.0490 -0.1734
 1349W        W17823   0.413   8.710  12.678  0.1013  0.2369  0.2600
 1350W        W17824  11.889   3.429   0.024  0.0849  0.1735 -0.0062
 1351W        W17825   8.019   3.788  14.502 -0.1921 -0.0314  0.2195
 1352W        W17826  14.655   7.483   4.301  0.2218  0.2374 -0.0422
 1353W        W17827   5.246   7.405   1.391  0.0517  0.2285  0.0052
 1354W        W17828   8.037   4.733  14.892 -0.0694 -0.0130 -0.1197
 1355W        W17829   1.411   6.574  15.189 -0.0977 -0.0430  0.0772
 1356W        W17830   3.045  18.334  13.113  0.4996 -0.0657  0.1243
 1357W        W17831   4.821   7.718   5.030 -0.3833 -0.4617  0.0132
 1358W        W17832  11.422  17.914  16.020 -0.0950 -0.0426  0.1177
 1359W        W17833  10.076   0.552   5.425 -0.2542 -0.1002 -0.0344
 1360W        W17834  11.059   6.189  13.283  0.0169  0.1659 -0.2243
 1361W        W17835   6.458  18.073  16.062 -0.0860 -0.0894  0.2513
 1362W        W17836   8.085   1.599   4.348  0.3957  0.3494 -0.2990
 1363W        W17837  12.727   5.602  10.717  0.1349  0.3111  0.1582
 1364W        W17838   5.019  11.570  12.852 -0.3004  0.0164 -0.0037
 1365W        W17839   8.796   5.847   2.057 -0.2245 -0.3539 -0.0083
 1366W        W17840  10.407   9.058   2.717  0.1255  0.0719 -0.0807
 1367W        W17841   4.435   4.963  14.029 -0.0098  0.0103  0.2732
 1368W        W17842   2.963   0.201   2.427  0.2196 -0.4676  0.0144
 1369W        W17843   6.449  14.297   2.047  0.1202  0.1049 -0.2419
 1370W        W17844   0.116  13.407   2.375  0.3570  0.2565 -0.1291
 1371W        W17845  12.586   2.170   0.135 -0.0798 -0.1104 -0.1287
 1372W        W17846   0.452   0.708   2.125 -0.1555  0.0063  0.0664
 1373W        W17847   1.986  10.148  16.155 -0.0738 -0.1232 -0.4352
 1374W        W17848   7.041   8.601  13.639  0.0310  0.0325  0.1521
 1375W        W17849   3.614  16.486   5.433 -0.4731 -0.0345  0.0148
 1376W        W17850  10.385  13.326  15.351 -0.3490 -0.2836 -0.1417
 1377W        W17851  10.733  11.782  13.877 -0.1521 -0.0305  0.0420
 1378W        W17852   3.644   0.530  13.524 -0.3403  0.1019 -0.2565
 1379W        W17853  10.675  18.178  15.335  0.3728 -0.1103 -0.0776
 1380W        W17854   6.443   3.040  13.419  0.1811 -0.1146  0.0735
 1381W        W17855   2.045  14.080   1.661 -0.2391 -0.2693 -0.0806
 1382W        W17856   6.704  12.415  13.300  0.0095 -0.0460 -0.0968
 1383W        W17857  14.581  14.560  16.324 -0.0218  0.1355  0.2557
 1384W        W17858   7.924   3.665  13.134  0.2491 -0.0586  0.2335
 1385W        W17859   3.407   0.350   3.614 -0.1871  0.0432 -0.0040
 1386W        W17860  18.009  14.906  12.458  0.0546  0.1448  0.0163
 1387W        W17861   9.376  15.799  15.760  0.0145  0.1520 -0.0925
 1388W        W17862   8.353   1.179   4.632  0.0841 -0.3054  0.2836
 1389W        W17863  15.378   8.601   1.622 -0.2560 -0.1197 -0.2149
 1390W        W17864   5.708  14.597   4.591 -0.0673 -0.2419 -0.0456
 1391W        W17865   7.717   1.198   5.266  0.2272  0.1571  0.2229
 1392W        W17866  13.018  14.368   0.571 -0.1738 -0.1710 -0.0787
 1393W        W17867   0.561   5.775  11.237  0.1776  0.2749 -0.2466
 1394W        W17868   7.968   6.728   4.232  0.0128  0.1782  0.2269
 1395W        W17869   9.748   3.208  14.420  0.0237 -0.0672  0.3271
 1396W        W17870  12.513   3.349   1.207 -0.2112  0.1391  0.1049
 1397W        W17871  11.604   7.370  13.568 -0.0365  0.0500 -0.0671
 1398W        W17872  12.805  14.116  14.563 -0.1567  0.3810 -0.0284
 1399W        W17873   1.012   6.021   3.864  0.2252 -0.0228 -0.1926
 1400W        W17874  10.477   4.725   2.026  0.0927  0.1496 -0.1043
 1401W        W17875  18.153   7.486  15.073 -0.3017  0.3342 -0.1414
 1402W        W17876  11.017  10.124   0.128  0.0727 -0.0799 -0.1282
 1403W        W17877   9.886   8.357   3.125 -0.0919 -0.1826 -0.1576
 1404W        W17878   9.796  11.038   0.466 -0.2543 -0.2438  0.3777
 1405W        W17879  18.022   0.058   3.557  0.1385 -0.2252  0.1708
 1406W        W17880  11.180   1.789  13.037  0.0295 -0.0103 -0.4050
 1407W        W17881  16.159   6.163  13.109 -0.2142  0.1243 -0.3595
 1408W        W17882  13.655  14.561   3.188 -0.0000 -0.1453  0.0183
 1409W        W17883   5.161  16.228  12.317 -0.2359 -0.0987  0.4546
 1410W        W17884   9.945  17.527  14.792  0.1110  0.3609  0.3141
 1411W        W17885  10.986  16.288   2.325  0.0369 -0.0118 -0.0058
 1412W        W17886  16.774   5.196  13.688  0.1632  0.2581 -0.1664
 1413W        W17887   1.035  13.636  13.124 -0.1944 -0.0689 -0.1138
 1414W        W17888   8.740  12.289   2.905  0.0016 -0.1025 -0.0451
 1415W        W17889   7.008  13.503  15.728 -0.2121  0.1343 -0.6332
 1416W        W17890   0.566   8.192  13.584  0.1714  0.0719 -0.0437
 1417W        W17891  15.617   6.454  11.392  0.4032 -0.1047 -0.3130
 1418W        W17892  11.692   8.550  15.551 -0.0876  0.0331  0.1471
 1419W        W17893  10.508  13.690  13.925  0.2289 -0.0213 -0.1041
 1420W        W17894  12.024   4.176   2.101  0.2316  0.1949  0.1437
 1421W        W17895   1.809  13.513  13.661  0.0182  0.0626 -0.1061
 1422W        W17896   9.317   8.991   3.915 -0.0846 -0.0456 -0.1322
 1423W        W17897  11.262   8.747   2.145 -0.0484 -0.0551 -0.2937
 1424W        W17898   4.744  10.310   4.724  0.1736 -0.0314 -0.2053
 1425W        W17899  12.945  16.404  12.126  0.0292 -0.0013  0.0719
 1426W        W17900   7.378   2.669   1.813  0.3552 -0.1314  0.2781
 1427W        W17901  11.556   5.662   3.824 -0.2679 -0.0549  0.0802
 1428W        W17902   4.733   8.377  11.841  0.0602 -0.2996 -0.2069
 1429W        W17903  10.335   8.462   1.913 -0.0308 -0.3008  0.0276
 1430W        W17904   5.349   3.291  12.942  0.2996 -0.1267  0.1042
 1431W        W17905   2.879   8.235   1.155 -0.0450  0.0137  0.2962
 1432W        W17906   4.743   9.114   2.521  0.1279  0.2638 -0.0254
 1433W        W17907   8.621   2.468   2.462  0.0620 -0.2710  0.0771
 1434W        W17908   7.179   5.238   5.267 -0.1309 -0.1228 -0.2262
 1435W        W17909   1.183  13.917   0.002 -0.0580 -0.0073 -0.0257
 1436W        W17910   4.771   9.493   4.616 -0.1050 -0.1275 -0.2839
 1437W        W17911   9.101   1.406   2.238 -0.1649  0.0687  0.0577
 1438W        W17912  15.955  14.740  14.491 -0.4217  0.2524 -0.2631
 1439W        W17913   9.188   9.405   2.270 -0.0270 -0.0876  0.0117
 1440W        W17914   3.564  15.618   3.496  0.0340 -0.0067 -0.0367
 1441W        W17915   4.634   7.278   5.147 -0.1390  0.1907  0.0106
 1442W        W17916   9.889  14.663   1.160  0.0529 -0.0402  0.3219
 1443W        W17917   9.213   8.522   5.288  0.1937 -0.3762  0.0812
 1444W        W17918   6.502  15.132   5.917  0.2342 -0.0036 -0.0039
 1445W        W17919   0.734  13.094  14.416 -0.1131  0.0506  0.1915
 1446W        W17920   2.252   3.470  14.368 -0.0985 -0.1236  0.1158
 1447W        W17921  16.114   1.814   0.458  0.1108  0.1851 -0.0382
 1448W        W17922   7.447  12.538  11.117 -0.1858  0.1613 -0.0471
 1449W        W17923  12.480   5.234  15.198  0.0780  0.0039 -0.2102
 1450W        W17924   5.248   4.078   3.065  0.1059 -0.0310  0.0325
 1451W        W17925  14.246   4.508   1.254 -0.2129  0.1051 -0.2185
 1452W        W17926  11.398  15.932  14.037 -0.1569 -0.2343  0.1194
 1453W        W17927   6.093   9.557  12.744  0.1660  0.0985  0.1595
 1454W        W17928   3.867  12.916  14.399 -0.0880 -0.2238  0.0797
 1455W        W17929  12.642   2.227   2.792  0.0617 -0.4355 -0.1236
 1456W        W17930   7.296   1.460   3.496 -0.2224 -0.0100  0.0061
 1457W        W17931   9.317   4.136   3.104 -0.0804 -0.0473 -0.1900
 1458W        W17932   7.153  12.792  11.776  0.1583  0.0144  0.1387
 1459W        W17933  11.887  16.631   4.817 -0.0691 -0.3098 -0.0567
 1460W        W17934   1.123   8.140   1.183  0.3769 -0.1453  0.3526
 1461W        W17935  15.686  16.670  13.383 -0.2229 -0.0912 -0.1472
 1462W        W17936  11.118   7.101   4.255  0.0342 -0.0920 -0.1837
 1463W        W17937  16.251  15.900  12.614 -0.0286 -0.1873  0.1143
 1464W        W17938  11.878   1.108   4.239  0.2444  0.0509 -0.2384
 1465W        W17939  14.311   1.056   0.733  0.3370 -0.0026  0.0452
 1466W        W17940   5.992   5.212   2.697  0.0974 -0.1456 -0.2066
 1467W        W17941   9.450   1.999  11.423  0.2604 -0.1220 -0.0989
 1468W        W17942   0.784   4.507  11.829  0.0240 -0.0802  0.2684
 1469W        W17943  17.936  15.714   2.097 -0.0299 -0.0891 -0.2311
 1470W        W17944  15.191  14.163   0.716  0.2992  0.0432 -0.0466
 1471W        W17945  15.421   6.572   0.354 -0.1909 -0.1392  0.1125
 1472W        W17946  10.559   2.865  14.416  0.0597  0.2542 -0.1246
 1473W        W17947   5.619  16.000  12.428  0.1984 -0.2713  0.0538
 1474W        W17948  17.896   5.044  16.171  0.1461  0.1596 -0.4123
 1475W        W17949   8.981  17.484  12.070  0.1056 -0.0383  0.0574
 1476W        W17950  12.915  14.070   2.907 -0.2453 -0.0776 -0.0785
 1477W        W17951   3.357   2.385  16.020  0.1909  0.3125 -0.2210
 1478W        W17952   9.579  16.743  14.778  0.3606 -0.0614 -0.1622
 1479W        W17953  17.290  15.031  12.356 -0.0913  0.0473  0.0646
 1480W        W17954  13.288   1.380  15.590 -0.1161  0.0950  0.1691
 1481W        W17955   5.932   6.527  15.456 -0.1384 -0.3663 -0.2501
 1482W        W17956   0.629  17.401   5.063  0.0962 -0.0776  0.2433
 1483W        W17957  16.526   3.302   5.145  0.1026  0.0705  0.1714
 1484W        W17958   6.511  16.759   3.727  0.0960 -0.0611  0.1367
 1485W        W17959  12.094   5.256  14.258  0.1382 -0.1378  0.4919
 1486W        W17960  17.119   1.436   3.782 -0.0468 -0.0640  0.1164
 1487W        W17961   6.094   0.377   2.958  0.3456 -0.0119  0.4605
 1488W        W17962   0.946  11.999   4.477 -0.0355  0.2416  0.2724
 1489W        W17963   3.364  12.848   3.130 -0.0645  0.0388  0.1752
 1490W        W17964   7.412  11.079  12.460  0.3069  0.0959 -0.1697
 1491W        W17965  10.076   2.880  14.180  0.2605  0.4636  0.1661
 1492W        W17966   2.687   3.949  12.267  0.2176 -0.0184 -0.0771
 1493W        W17967  12.391   0.559   4.854 -0.2963 -0.1184  0.0453
 1494W        W17968  17.355   0.111  13.427  0.0790  0.3840 -0.0930
 1495W        W17969  11.647   9.457   0.494 -0.3258  0.0904  0.1486
 1496W        W17970   4.499  11.251  15.666 -0.0953 -0.0291 -0.0885
 1497W        W17971   4.746  16.508   3.119 -0.2756 -0.0290 -0.4400
 1498W        W17972  17.885   1.754   5.308  0.1238 -0.0345 -0.1149
 1499W        W17973   9.167  18.343   5.903  0.2353 -0.1012 -0.1574
 1500W        W17974  18.120   9.564   1.063  0.0949  0.2449  0.2995
 1501W        W17975  10.250  14.292   5.397  0.1716  0.1529  0.1346
 1502W        W17976  16.493   6.642  12.757  0.3124 -0.1103 -0.3169
 1503W        W17977   0.613   7.998   1.343  0.1440  0.2286  0.0621
 1504W        W17978   9.800  11.823   3.581  0.2522  0.3345 -0.1151
 1505W        W17979   3.017  14.147  15.565 -0.0984  0.0082  0.2925
 1506W        W17980   4.546  14.905  11.772 -0.3487  0.1430 -0.3341
 1507W        W17981   5.725  18.385   1.117 -0.0643  0.2136  0.1034
 1508W        W17982  10.293   8.151   1.004  0.3648 -0.3476  0.1219
 1509W        W17983   4.190   8.117   3.442 -0.1784  0.0885  0.2571
 1510W        W17984  10.920  11.299   9.973  0.0773 -0.0666  0.1293
 1511W        W17985  17.329   5.516  11.490 -0.0845  0.0776 -0.2746
 1512W        W17986  17.292   5.162  11.095  0.0576  0.0743  0.1048
 1513W        W17987  10.841   3.434   5.203  0.2019 -0.0808  0.2523
 1514W        W17988  18.135   6.982  13.049  0.0810  0.2058 -0.2548
 1515W        W17989   2.936   5.873   3.365 -0.4149 -0.2502 -0.0646
 1516W        W17990   6.488  14.012   2.654 -0.2186 -0.3041  0.1891
 1517W        W17991  13.188   0.490  12.828  0.3119 -0.3562 -0.1205
 1518W        W17992   0.476   8.982  14.644  0.1498 -0.1467 -0.2440
 1519W        W17993   6.127   9.203   5.225 -0.1435  0.0818  0.2878
 1520W        W17994  17.581   1.317   0.323  0.2392  0.0039 -0.0924
 1521W        W17995   8.633  16.954   5.780  0.1930 -0.0368  0.1786
 1522W        W17996   8.401   3.509  12.167 -0.2780 -0.1606  0.0559
 1523W        W17997  16.337   7.525   1.125 -0.2763 -0.1005 -0.2353
 1524W        W17998   6.733  16.016  15.031 -0.0814 -0.3805  0.2463
 1525W        W17999   5.526   8.496  13.930  0.0246  0.0000 -0.0983
 1526W        W18000   8.720  13.093  11.453 -0.3651 -0.4136  0.0696
 1527W        W18001  14.096  11.899  15.977  0.1643  0.0566  0.0987
 1528W        W18002  11.356  15.549   3.585 -0.0309  0.1696  0.0644
 1529W        W18003  14.369  14.507   0.463 -0.1487 -0.0534  0.0593
 1530W        W18004  16.612   8.297  12.711  0.0213  0.1233  0.1449
 1531W        W18005   4.401  15.044   5.680 -0.0180  0.2619 -0.0295
 1532W        W18006  13.176  12.004  12.795  0.1008 -0.7076  0.0273
 1533W        W18007   8.278  17.277   3.768 -0.0554 -0.2885 -0.3031
 1534W        W18008   7.983  17.118   3.437 -0.0613  0.2157  0.0337
 1535W        W18009  10.382   3.324  15.019  0.0817  0.0808  0.7321
 1536W        W18010  16.365  17.138  15.288  0.0373  0.2139  0.0449
 1537W        W18011   2.693   6.299  15.458  0.0062  0.2004  0.0529
 1538W        W18012  12.641   1.543   0.687 -0.1394  0.4138 -0.2692
 1539W        W18013   6.553  12.520  12.513 -0.1859 -0.1763  0.2443
 1540W        W18014  10.341  14.610  12.974 -0.7098  0.2211 -0.3071
 1541W        W18015  10.548  17.783  13.629  0.0638 -0.1304 -0.2543
 1542W        W18016  18.202  17.010  15.984 -0.0315 -0.3622 -0.2211
 1543W        W18017   7.572   3.386  11.915  0.1015 -0.0887  0.1235
 1544W        W18018  15.978   5.517  11.064  0.1703 -0.0902 -0.1136
 1545W        W18019   2.201   7.155   0.256  0.0506 -0.2081 -0.1694
 1546W        W18020  15.191  13.438   1.794  0.2348  0.3370 -0.1727
 1547W        W18021   6.991  10.337   4.598  0.0460 -0.0762 -0.3287
 1548W        W18022  12.043   3.254   4.830 -0.3414 -0.1247  0.0209
 1549W        W18023   4.739  14.063  11.847 -0.2310  0.3906  0.0545
 1550W        W18024  14.730   4.633  16.212  0.0813  0.1575 -0.1422
 1551W        W18025  10.058  17.135   1.941 -0.1386 -0.0209 -0.1496
 1552W        W18026  11.774   9.318   4.474 -0.0129  0.0675 -0.1194
 1553W        W18027   4.638   0.448  14.919 -0.0156  0.2178  0.3837
 1554W        W18028   7.003  14.569  15.149  0.3423 -0.1280 -0.1453
 1555W        W18029   6.426   5.452  13.978  0.0880  0.0613 -0.0336
 1556W        W18030   2.177   2.154   4.770 -0.1078  0.1695 -0.0903
 1557W        W18031  14.553   8.616   5.785 -0.0227 -0.1275 -0.0081
 1558W        W18032  17.781  16.760   2.024 -0.1264 -0.0511 -0.1745
 1559W        W18033  15.029  12.972   5.314  0.0030 -0.1106  0.3414
 1560W        W18034  14.816  15.244  15.947 -0.1989  0.2052 -0.2304
 1561W        W18035  14.172   7.221   4.166 -0.1575  0.2040  0.0658
 1562W        W18036   2.800  11.300   6.102  0.0528  0.1531 -0.1708
 1563W        W18037   8.423  13.025   0.862 -0.2336  0.2392 -0.0463
 1564W        W18038  16.466  13.100   3.787  0.2237 -0.0689  0.1771
 1565W        W18039  17.888  12.453  12.228  0.0654 -0.0083  0.3497
 1566W        W18040   7.550   7.709  13.467 -0.0363  0.0047 -0.0611
 1567W        W18041   6.409  10.331   1.832 -0.2518  0.3066  0.3169
 1568W        W18042   3.171   5.957   5.451  0.0551  0.0225  0.1056
 1569W        W18043   1.172  13.306   1.441 -0.2325  0.2984 -0.0138
 1570W        W18044   3.756  12.946   4.215  0.2757 -0.0792  0.0909
 1571W        W18045   3.276  15.634   4.840  0.0673  0.1454  0.0934
 1572W        W18046  13.190   4.807  12.366 -0.2069 -0.0124 -0.5246
 1573W        W18047   8.020  17.053  12.085  0.1093  0.0990 -0.3034
 1574W        W18048  18.160   9.000   4.359  0.0955 -0.0488 -0.2074
 1575W        W18049  15.593   7.115   5.373  0.2035  0.2187  0.1167
 1576W        W18050   4.842   0.222  15.396 -0.1199  0.1476  0.1894
 1577W        W18051  14.143   2.852   4.208 -0.2567  0.2272 -0.2132
 1578W        W18052   7.006   0.268  12.060 -0.0223 -0.0615  0.0608
 1579W        W18053   9.029  14.812  11.591 -0.0695  0.2865  0.0790
 1580W        W18054  13.594   2.668   2.848 -0.3988  0.0986 -0.0729
 1581W        W18055  16.720  10.646   3.470 -0.0676  0.0586 -0.1960
 1582W        W18056   1.260  11.942  14.414 -0.0632 -0.3279 -0.1063
 1583W        W18057   3.628  18.126   2.121 -0.2479  0.0353  0.0570
 1584W        W18058   1.479   3.344  15.087 -0.0973 -0.0513 -0.0799
 1585W        W18059   9.360   9.405  11.010 -0.1835  0.2581 -0.6361
 1586W        W18060  14.224  10.342  12.731 -0.3578 -0.0259 -0.0562
 1587W        W18061  11.634   1.796   4.857  0.1690 -0.0181  0.4261
 1588W        W18062   6.012   3.849  12.529  0.4435 -0.2239 -0.0173
 1589W        W18063  10.815   2.014   0.787 -0.3602  0.0827 -0.4305
 1590W        W18064   4.911   0.510   2.212  0.0095  0.1490  0.4542
 1591W        W18065  10.964   7.979  10.884  0.1332  0.1734 -0.0503
 1592W        W18066   7.918   2.921   0.335 -0.2673 -0.0746 -0.0830
 1593W        W18067   8.805  14.908   4.530 -0.0949 -0.0958  0.2662
 1594W        W18068  18.359   8.410   1.842  0.0217 -0.2135  0.0121
 1595W        W18069   6.763  13.921  12.203  0.3180  0.1718  0.1062
 1596W        W18070  17.883  15.628  13.309  0.2175  0.1114  0.1538
 1597W        W18071  13.298  15.878   1.257  0.1376 -0.2347  0.4263
 1598W        W18072   3.527  12.766   0.890  0.0726  0.0146 -0.1383
 1599W        W18073   4.025   0.384  16.182 -0.2495  0.0174 -0.4580
 1600W        W18074   1.179  11.191   1.070 -0.3459  0.2045  0.1425
 1601W        W18075  10.871   6.405   1.775 -0.1068 -0.2689 -0.1253
 1602W        W18076   3.502   2.145   2.534  0.1111  0.3220 -0.2187
 1603W        W18077   3.890   6.818   2.658  0.0476  0.3866 -0.0794
 1604W        W18078  13.406  15.541   4.162  0.1335 -0.1995 -0.2620
 1605W        W18079  17.585   8.683   2.446 -0.1034  0.0080  0.1853
 1606W        W18080   0.859  16.612   2.877 -0.2129  0.1175  0.0719
 1607W        W18081  11.818  16.057  11.802 -0.0243 -0.0353  0.0694
 1608W        W18082  17.122  17.581   1.869  0.1811  0.2474  0.1332
 1609W        W18083   3.251  17.005   4.081 -0.0039 -0.0579  0.2316
 1610W        W18084   0.571  17.238   1.709  0.0762  0.0309 -0.0886
 1611W        W18085   3.025   5.846  14.704  0.4071  0.1477 -0.0905
 1612W        W18086   7.180  18.007   3.759 -0.0463  0.0511  0.2296
 1613W        W18087   4.678  12.918   0.529 -0.1194 -0.4195 -0.2052
 1614W        W18088  14.991   1.590   1.685 -0.0608 -0.1863  0.1302
 1615W        W18089   4.154   9.791   1.859 -0.0719 -0.1515  0.2919
 1616W        W18090   5.568  16.161  15.453  0.2779  0.2165  0.3755
 1617W        W18091  16.283   4.775   2.784 -0.2680  0.0710 -0.0416
 1618W        W18092   9.055   9.220   6.094  0.0374  0.0730 -0.2527
 1619W        W18093   6.839   0.496   4.045 -0.1683 -0.2069  0.4202
 1620W        W18094  10.797   0.928   3.920 -0.1162 -0.2275  0.0660
 1621W        W18095   2.610   4.731  14.296  0.1885  0.1725 -0.1419
 1622W        W18096  16.146   1.980   0.943  0.2062 -0.1795  0.1292
 1623W        W18097   2.637   5.354   5.043 -0.2013 -0.2092 -0.2079
 1624W        W18098   7.467   8.023  13.091  0.1855 -0.1086 -0.0597
 1625W        W18099  11.629   9.351   0.963 -0.1679 -0.2051 -0.2023
 1626W        W18100   4.140   4.805  14.487 -0.2535 -0.0758 -0.0366
 1627W        W18101  12.699  12.011  11.654 -0.1496 -0.2155 -0.4366
 1628W        W18102   7.901   2.051   3.871 -0.0209  0.1364 -0.0375
 1629W        W18103  11.886  11.122  12.523  0.0634 -0.0012 -0.2176
 1630W        W18104   2.910   1.167  14.873  0.1286 -0.3132 -0.1398
 1631W        W18105  11.219   7.754  12.436  0.2940  0.2944  0.1106
 1632W        W18106  16.320  15.988   3.023  0.2239 -0.2432  0.2297
 1633W        W18107  15.205   3.113   1.312 -0.3439 -0.1778  0.1006
 1634W        W18108  15.329  17.556  12.067 -0.0100 -0.2464  0.1875
 1635W        W18109   0.102   4.921  14.265  0.1512  0.1301  0.0717
 1636W        W18110  11.822   3.151  11.493  0.2456  0.0722 -0.2943
 1637W        W18111  11.747   6.547  13.950 -0.0448  0.1405  0.0893
 1638W        W18112   7.479  18.196  15.425 -0.0088  0.2844 -0.1083
 1639W        W18113   9.854   0.192  14.367  0.0970 -0.2084  0.1900
 1640W        W18114  13.331   1.861  12.086  0.0858  0.1356 -0.5844
 1641W        W18115   5.640  15.798   4.134  0.0824 -0.1636  0.0368
 1642W        W18116   9.365  14.343  14.081 -0.1350 -0.1679 -0.2015
 1643W        W18117   8.833   1.913   4.341 -0.0312 -0.0943 -0.0988
 1644W        W18118  13.818   3.603   4.827 -0.0410  0.0404  0.1930
 1645W        W18119  11.387  15.381   0.241 -0.2590 -0.1017 -0.4211
 1646W        W18120   5.764   7.150   4.793 -0.0709 -0.0397 -0.3817
 1647W        W18121   9.457   8.317  10.929  0.1264 -0.3214  0.1038
 1648W        W18122  14.078   6.616  10.209 -0.0451 -0.2726  0.1279
 1649W        W18123  11.609   3.496   1.723 -0.1338 -0.1971 -0.0390
 1650W        W18124   2.716   8.164  12.316  0.1002  0.1077  0.3129
 1651W        W18125   4.024   8.400   2.339  0.0181  0.1770  0.3337
 1652W        W18126   2.701   0.634  13.623 -0.0491  0.0726  0.2375
 1653W        W18127   8.818   8.154   0.685  0.1414 -0.0777  0.0362
 1654W        W18128  16.649   6.375   2.038 -0.0469 -0.2442  0.0355
 1655W        W18129   9.000  17.033  11.720 -0.0968  0.2535  0.4275
 1656W        W18130  10.596   2.848  13.912  0.1894 -0.1681  0.0528
 1657W        W18131  11.264   7.648  16.171 -0.0261 -0.2831 -0.0401
 1658W        W18132   0.369  18.031  13.354 -0.0918 -0.1480  0.1770
 1659W        W18133   2.914   7.492  13.661 -0.0827  0.1141 -0.2696
 1660W        W18134   8.007   2.137   1.157  0.2473  0.0303  0.0415
 1661W        W18135   3.750   7.195  15.593 -0.0718 -0.0365 -0.1664
 1662W        W18136  10.891  16.774   0.111  0.2462 -0.0778 -0.0577
 1663W        W18137   5.474  10.458  13.410  0.2345 -0.0654 -0.2159
 1664W        W18138   5.437   4.674  11.806 -0.2360 -0.1076  0.0650
 1665W        W18139   5.208   1.949  15.855  0.0478  0.1539  0.0076
 1666W        W18140   2.620  12.454  13.191  0.3762  0.0222  0.0205
 1667W        W18141   3.808   3.959  15.524  0.2371  0.3105  0.0926
 1668W        W18142  16.220  15.312  15.069  0.2487 -0.0723 -0.2221
 1669W        W18143   9.745   1.426  15.416 -0.0489 -0.1317 -0.1142
 1670W        W18144  14.174   1.552   5.037  0.0696  0.0102  0.0998
 1671W        W18145  16.358   8.678  15.551  0.2942 -0.1792  0.2049
 1672W        W18146   6.752   1.406  12.636  0.2767  0.0898  0.1715
 1673W        W18147  11.456   3.259  12.287 -0.0723 -0.2396  0.0415
 1674W        W18148  13.067   4.447  10.968  0.1161 -0.0741 -0.1976
 1675W        W18149   4.157  12.483   1.528  0.0542  0.4913 -0.0568
 1676W        W18150   5.085   5.608  13.534 -0.0578 -0.2411 -0.1103
 1677W        W18151   9.403   8.945  15.932 -0.0788 -0.3049  0.1165
 1678W        W18152  18.363   0.951  12.983  0.0584 -0.2910  0.0215
 1679W        W18153   9.144  11.989   0.754 -0.0607 -0.0031 -0.1767
 1680W        W18154   1.434   2.388   2.284 -0.0604 -0.1174  0.0025
 1681W        W18155   1.042  14.567  14.650  0.0321  0.1565 -0.0050
 1682W        W18156   6.453   7.488   2.624 -0.1769  0.1556  0.2370
 1683W        W18157   6.053  18.074  15.793 -0.4020  0.1371 -0.0262
 1684W        W18158   6.058  15.905  12.489 -0.1484  0.1773  0.0125
 1685W        W18159   4.851   4.525   1.734 -0.2288 -0.2466 -0.2327
 1686W        W18160  13.543   2.933   1.040  0.0504 -0.0025  0.3593
 1687W        W18161   7.568  17.660  14.581 -0.1804 -0.0312 -0.3184
 1688W        W18162  10.546  14.943  12.179 -0.0186  0.1714  0.1610
 1689W        W18163  18.076   5.899  13.834 -0.3436  0.0040 -0.1673
 1690W        W18164   9.558  12.190   4.241 -0.2372  0.0715  0.1127
 1691W        W18165   5.237   7.884   1.461 -0.0133 -0.0355  0.3614
 1692W        W18166   5.535  11.376   3.425  0.2705  0.2127  0.3157
 1693W        W18167   8.798   3.898  11.555  0.0224 -0.0651 -0.1127
 1694W        W18168   3.417  11.709   5.197  0.0506 -0.1193 -0.1463
 1695W        W18169  16.726  14.136  15.029  0.0463 -0.1459  0.0257
 1696W        W18170   2.944  17.397   1.777  0.1457 -0.0444 -0.0333
 1697W        W18171   2.537   7.146  12.927  0.0408 -0.1039  0.4373
 1698W        W18172   7.019  12.668   2.814  0.1414 -0.1956 -0.0585
 1699W        W18173   6.973   2.031  14.144 -0.1281 -0.0297 -0.4113
 1700W        W18174  10.006  12.743   1.854  0.1438 -0.1199 -0.0434
 1701W        W18175   5.508   1.188  11.861  0.0646 -0.1723 -0.0231
 1702W        W18176   1.361  14.587   3.565 -0.0269 -0.0166  0.2928
 1703W        W18177   2.998  11.395   0.615 -0.1179  0.3167 -0.0597
 1704W        W18178   8.347   8.492   5.739  0.0093  0.0557 -0.1829
 1705W        W18179   7.621  17.644   2.630 -0.0114  0.0031 -0.0426
 1706W        W18180  15.668  16.319   0.684 -0.3655 -0.0575  0.0819
 1707W        W18181  10.127  17.245   2.455 -0.0275 -0.2091  0.1585
 1708W        W18182  13.973  13.525   3.870 -0.0532 -0.0050  0.1790
 1709W        W18183   0.142   8.555   5.337  0.0960 -0.0330 -0.0680
 1710W        W18184   3.558   0.336  15.342 -0.1260  0.1617  0.3028
 1711W        W18185   1.975   3.735  15.873  0.1267  0.1072 -0.0343
 1712W        W18186  15.977   2.550   3.388  0.1705 -0.2757 -0.0052
 1713W        W18187   4.846  14.619   0.004  0.0326  0.0087  0.0978
 1714W        W18188  12.184  17.027  14.095 -0.1385  0.2168 -0.0043
 1715W        W18189  11.214   0.839  15.649  0.2259  0.1111 -0.1602
 1716W        W18190   6.610   1.256  14.198 -0.0294  0.4427 -0.0847
 1717W        W18191   2.158   5.451  12.311  0.1240  0.0523 -0.0079
 1718W        W18192   2.470  10.551   1.023 -0.1000  0.1073 -0.1200
 1719W        W18193  17.908   5.941  13.384 -0.0706 -0.0116 -0.2280
 1720W        W18194  14.709  13.834  13.199 -0.0520  0.3544  0.2768
 1721W        W18195   0.090   4.736  15.134  0.2620  0.1068  0.0628
 1722W        W18196   1.056  18.230   0.494 -0.1082  0.2155  0.1431
 1723W        W18197  13.323   6.921   1.560  0.0280  0.1101 -0.2270
 1724W        W18198  17.294  10.639  15.014  0.0796  0.1181  0.0389
 1725W        W18199   4.793   8.693  12.484 -0.2086 -0.0174 -0.2999
 1726W        W18200   6.552   2.711   1.924 -0.0779  0.1591 -0.2152
 1727W        W18201   2.742  10.288   0.184 -0.2027  0.3078  0.1666
 1728W        W18202  15.007   3.090  11.065 -0.0767 -0.1258 -0.0726
 1729W        W18203   5.715   4.149  16.072 -0.1730  0.4519  0.0433
 1730W        W18204  14.113  13.501   0.353 -0.2700  0.4686 -0.1609
 1731W        W18205  11.285  12.494  11.323 -0.0084 -0.2078 -0.0574
 1732W        W18206   6.667   0.447  11.664  0.0186 -0.1017  0.1289
 1733W        W18207   7.684   1.765  13.445 -0.0742  0.2667 -0.0942
 1734W        W18208   2.500   3.075  14.597 -0.2022 -0.4241  0.2339
 1735W        W18209   4.464  11.008  15.174 -0.2185 -0.1679 -0.1128
 1736W        W18210  11.829  13.772   1.092  0.3529  0.0322 -0.0057
 1737W        W18211  15.396   7.244  14.055 -0.2911  0.0844  0.1731
 1738W        W18212   6.466  16.525  14.907  0.2761  0.3521  0.2358
 1739W        W18213  16.779   6.244   0.450 -0.2130 -0.0824 -0.1968
 1740W        W18214   5.830  17.427   4.818  0.2148 -0.1230 -0.4050
 1741W        W18215   4.046   4.796   2.863  0.0230 -0.0810 -0.0160
 1742W        W18216   5.816   0.166   6.065  0.1638  0.1165 -0.0825
 1743W        W18217  17.286   9.622  10.905 -0.0323 -0.1447 -0.1910
 1744W        W18218   3.678  14.359  12.887  0.1044 -0.1806 -0.0274
 1745W        W18219   2.682  10.226   3.475 -0.2213  0.0323  0.0117
 1746W        W18220  13.642  15.173   2.385  0.2116  0.0535  0.0189
 1747W        W18221   9.766   1.432  12.594 -0.2315 -0.1001 -0.1747
 1748W        W18222  15.687  16.500   4.372 -0.0410 -0.0206  0.1748
 1749W        W18223  15.105   5.198   2.232 -0.1849  0.2676  0.0252
 1750W        W18224  13.952   6.924  12.641  0.2034  0.0623 -0.3613
 1751W        W18225  14.195  12.375   1.277  0.3661 -0.3927  0.0898
 1752W        W18226  12.910   4.950  13.129  0.1577 -0.0733  0.2088
 1753W        W18227   5.094  11.334   3.189  0.0355  0.0223 -0.0872
 1754W        W18228  13.157  13.297  14.280 -0.0155  0.2306 -0.1428
 1755W        W18229  17.896  14.095   2.148  0.4560 -0.0809 -0.3021
 1756W        W18230  12.561   4.401   3.343  0.2131 -0.0253 -0.2716
 1757W        W18231   3.047   3.210   4.259  0.0018  0.2985  0.1748
 1758W        W18232   8.771  17.144   3.134  0.1857  0.1830  0.2418
 1759W        W18233   0.164   4.245   5.607  0.1681 -0.0935  0.0763
 1760W        W18234  11.554  14.802   5.709  0.1523 -0.1202 -0.3552
 1761W        W18235   6.824   7.182  12.335  0.3008  0.0411 -0.0416
 1762W        W18236  15.117   1.163   3.941  0.0386 -0.1254  0.0494
 1763W        W18237  17.719  16.312  14.545 -0.1643  0.1504 -0.0544
 1764W        W18238  16.553   0.346   3.949  0.2014 -0.1195  0.1304
 1765W        W18239   5.129   5.976  10.738 -0.1835 -0.1267 -0.1474
 1766W        W18240  14.948  17.119  10.948 -0.0102 -0.0437 -0.3576
 1767W        W18241   6.760   8.993   5.308 -0.1319 -0.1209  0.1005
 1768W        W18242   9.193   7.035   5.247  0.2615 -0.3318  0.0514
 1769W        W18243   8.618   5.601  15.055  0.0068  0.1419 -0.1018
 1770W        W18244  17.552   4.679  15.815  0.0286 -0.0369  0.4215
 1771W        W18245  11.588  12.489   5.175 -0.2437  0.0764 -0.3726
 1772W        W18246  17.224  17.235   1.379 -0.1229  0.2821  0.0754
 1773W        W18247   2.562  18.304   5.297  0.2080 -0.2559  0.0993
 1774W        W18248  13.106   1.523   2.996  0.1337  0.2454 -0.1391
 1775W        W18249  15.192   3.605   1.116 -0.3456 -0.1617  0.0394
 1776W        W18250  11.744  17.622   1.554 -0.0360  0.2863  0.2417
 1777W        W18251   6.602  11.235   1.338  0.1874 -0.1941 -0.3036
 1778W        W18252   7.137   5.636   3.774 -0.0424 -0.0829 -0.1231
 1779W        W18253  11.031   1.622   0.564  0.3198 -0.1153  0.0483
 1780W        W18254  14.933  13.770   0.811  0.2127 -0.0062  0.0294
 1781W        W18255   3.016  18.082   1.152 -0.0238  0.1992 -0.1328
 1782W        W18256  10.734   6.579  12.967 -0.0971  0.1503 -0.1268
 1783W        W18257   1.664   8.807  15.380 -0.2156  0.1428 -0.0928
 1784W        W18258   0.430  17.178  13.011  0.0410 -0.0662 -0.0104
 1785W        W18259   1.764   0.146  15.754  0.3245 -0.0287  0.2220
 1786W        W18260  18.394  18.038  15.347  0.0977 -0.1176 -0.0235
 1787W        W18261   3.543  15.273  13.254 -0.0484  0.0183  0.0645
 1788W        W18262  13.408  12.382   0.706  0.1275 -0.2743  0.0329
 1789W        W18263   4.534  15.781   3.571 -0.1554 -0.0233  0.0982
 1790W        W18264   8.187  12.610   5.265  0.2683  0.2029 -0.0314
 1791W        W18265   5.217  13.391  14.265  0.2310  0.1042  0.0091
 1792W        W18266   6.049  18.386  14.202  0.0616 -0.1745 -0.0082
 1793W        W18267  16.073  17.935  15.809  0.0046 -0.0958  0.0350
 1794W        W18268   5.327  17.347  13.043 -0.1382  0.0301 -0.4160
 1795W        W18269  14.303  13.878  11.014 -0.2256 -0.0111 -0.0440
 1796W        W18270   9.479   1.612  15.042 -0.0478  0.0787 -0.4042
 1797W        W18271   8.399   5.374   2.675 -0.2915  0.1212 -0.0852
 1798W        W18272   9.526   6.502  12.096  0.1492 -0.0900 -0.1446
 1799W        W18273   5.190   5.337   0.312  0.0196 -0.4714 -0.2880
 1800W        W18274   4.651  16.294  14.467 -0.2337  0.0388  0.2898
 1801W        W18275  11.560   2.223  15.321  0.0826 -0.1272  0.2071
 1802W        W18276   8.362   1.958   5.209  0.0750  0.2667  0.0071
 1803W        W18277  11.623   7.723   0.612  0.1075  0.0674  0.0737
 1804W        W18278  13.183  12.469   5.544  0.2227 -0.0254 -0.0544
 1805W        W18279   8.855   9.659  15.880 -0.1534 -0.1362 -0.0783
 1806W        W18280  10.470  18.059   2.924  0.1767  0.0432  0.0987
 1807W        W18281  11.509   3.049  16.225 -0.0372 -0.3215 -0.0858
 1808W        W18282  13.415  15.522   5.105  0.2034 -0.0943  0.2147
 1809W        W18283   4.101   4.231  13.698 -0.1241 -0.0214  0.0025
 1810W        W18284   5.008   2.314   2.270  0.0091  0.0418 -0.0531
 1811W        W18285   0.856   3.763   5.965 -0.0980  0.0403 -0.3721
 1812W        W18286  12.128   4.876  10.672  0.0203  0.1270  0.1530
 1813W        W18287   1.973  10.360   0.729  0.0047 -0.1801  0.0730
 1814W        W18288  13.514   5.145  14.251 -0.0329  0.0049  0.1197
 1815W        W18289   6.549   7.822  15.641  0.0960  0.2665  0.2085
 1816W        W18290   8.047   1.643   1.281 -0.2130 -0.0558 -0.1131
 1817W        W18291  18.111  12.071  13.651 -0.2342 -0.3746 -0.0220
 1818W        W18292  15.518  18.351  16.174 -0.0868 -0.1754 -0.0821
 1819W        W18293  15.344  15.565   5.136 -0.1977  0.0581 -0.1241
 1820W        W18294   3.801   5.082  10.344 -0.0696 -0.0072 -0.1033
 1821W        W18295   9.190   3.624   3.407  0.0968 -0.1843  0.1119
 1822W        W18296  17.024  11.414  15.334  0.1332  0.0472  0.2044
 1823W        W18297   4.408   9.136   3.366 -0.1305 -0.3822  0.2826
 1824W        W18298  18.263   8.891  13.712  0.2162 -0.3262 -0.0853
 1825W        W18299   5.459  15.566  14.739  0.3244  0.0818  0.4039
 1826W        W18300  12.802   4.991  13.880 -0.1019 -0.0092 -0.0096
 1827W        W18301  13.539   7.435   2.706 -0.2070  0.3031 -0.2780
 1828W        W18302  13.728   2.158  15.714 -0.0074 -0.1560  0.0928
 1829W        W18303  13.384   9.383   3.645 -0.0257 -0.0374 -0.2646
 1830W        W18304  16.164  17.329   0.655  0.1656  0.1890 -0.1703
 1831W        W18305  14.567  14.091  15.091  0.1949  0.2422  0.0204
 1832W        W18306  11.281   5.513   0.839  0.2944 -0.2145  0.1982
 1833W        W18307   8.294  11.093   3.224 -0.0990 -0.1091 -0.1334
 1834W        W18308   3.867  11.669  14.805 -0.1778  0.0043  0.2306
 1835W        W18309  15.077   6.791   1.004 -0.0067  0.1115 -0.1555
 1836W        W18310   8.412   5.160  13.601  0.0100  0.2480 -0.3255
 1837W        W18311   9.633  12.589   3.898  0.0833  0.1046 -0.0746
 1838W        W18312  15.057  14.539   0.261  0.1713 -0.4421  0.2163
 1839W        W18313  17.913   0.584  12.554  0.1082 -0.0220 -0.1466
 1840W        W18314   5.701   2.614   0.006  0.1313  0.2003  0.3002
 1841W        W18315  13.451  14.935   4.963 -0.1204  0.0505 -0.0539
 1842W        W18316   8.810  13.724  13.556  0.2670 -0.0174  0.1248
 1843W        W18317   8.718  18.295   3.653  0.0149 -0.0108  0.1465
 1844W        W18318   7.140   0.708  11.765 -0.2774  0.1073  0.0283
 1845W        W18319   0.498  17.923  14.318  0.1083 -0.2690  0.2333
 1846W        W18320   3.720  10.374  12.883  0.0089 -0.2698  0.2265
 1847W        W18321   9.108   5.394   1.079 -0.0752  0.1222 -0.1967
 1848W        W18322   2.870  11.948  13.132  0.2231 -0.0964  0.1154
 1849W        W18323  16.763   9.585   1.595  0.3617 -0.1843 -0.2762
 1850W        W18324   8.588  14.778   0.610 -0.0279  0.1234  0.1629
 1851W        W18325  16.948  13.659  13.886 -0.0159  0.0031 -0.0725
 1852W        W18326   9.144   1.893  14.589 -0.1795  0.1533 -0.2504
 1853W        W18327  10.359   2.060   3.049 -0.0397 -0.4781  0.1073
 1854W        W18328   2.849   7.880  11.881  0.0150 -0.2081  0.0764
 1855W        W18329   2.630  16.033  14.480  0.3296  0.2614 -0.1065
 1856W        W18330   0.688   9.383  14.420  0.0462  0.0694  0.0092
 1857W        W18331  17.711   5.543   1.009  0.3575  0.1918  0.1464
 1858W        W18332  14.925  11.462  13.558  0.0779 -0.2225  0.2608
 1859W        W18333   2.578   2.174   3.793 -0.0493 -0.1551 -0.1133
 1860W        W18334   5.196  15.172   5.951  0.1580  0.1342 -0.1193
 1861W        W18335  15.150  10.372  16.097  0.0883 -0.1971 -0.1480
 1862W        W18336   7.202  15.945  14.937  0.2061  0.2294 -0.0426
 1863W        W18337  18.381  13.712   0.319 -0.1402  0.0347 -0.2528
 1864W        W18338  14.523  15.218  12.441  0.1988  0.2651 -0.2047
 1865W        W18339   8.286   7.862  11.749  0.2133  0.4848 -0.2755
 1866W        W18340   7.497  12.338   0.499  0.0058 -0.3334 -0.0376
 1867W        W18341  12.131   1.874   2.717  0.0609 -0.2641 -0.0586
 1868W        W18342  15.911   8.705  10.821  0.2052 -0.0497 -0.1632
 1869W        W18343  11.250   2.988  11.923 -0.0158 -0.0017  0.1521
 1870W        W18344  14.153   0.564  16.010 -0.3330 -0.0416 -0.4645
 1871W        W18345  12.173  14.144  11.775  0.2453 -0.2678  0.1949
 1872W        W18346  17.530   3.445  12.077 -0.1528  0.0397  0.2230
 1873W        W18347   2.935  13.391   1.067 -0.1608  0.0562 -0.1065
 1874W        W18348  16.431  12.686  14.543 -0.2050  0.1001 -0.0829
 1875W        W18349   6.001   7.202  16.237 -0.0268 -0.0099  0.0303
 1876W        W18350   0.400   2.426  12.580  0.0056  0.2522  0.0354
 1877W        W18351  15.309  13.007   2.091 -0.0245  0.0004  0.1214
 1878W        W18352  17.359  11.819   4.839 -0.0193 -0.2854  0.1890
 1879W        W18353   5.910   6.172   4.548  0.1195 -0.0451 -0.0018
 1880W        W18354  12.615   0.008   1.411 -0.0733  0.0350 -0.1490
 1881W        W18355  11.233  12.171   2.582  0.0143  0.1838  0.1202
 1882W        W18356  12.630   6.528   3.587  0.1657 -0.1436  0.4503
 1883W        W18357  14.004   4.165  12.311  0.0789 -0.2397  0.0855
 1884W        W18358  10.245  10.149  13.957  0.0787  0.0115  0.1849
 1885W        W18359   1.424  15.081   3.675  0.0471  0.1861 -0.3950
 1886W        W18360  10.345   7.265  15.844  0.1180 -0.0419  0.0224
 1887W        W18361   4.491   6.517   1.415  0.1090  0.0344 -0.0878
 1888W        W18362  10.908  10.455  12.844  0.0275 -0.0144  0.1888
 1889W        W18363   0.625  18.127   1.341 -0.1450  0.1192  0.1074
 1890W        W18364  12.863  15.050   1.170  0.0553  0.4658 -0.3129
 1891W        W18365   8.271   3.721  16.208 -0.1660  0.0956 -0.0210
 1892W        W18366   7.025   1.792   0.220 -0.2956 -0.6125  0.2071
 1893W        W18367  17.120   6.947   5.109  0.0193  0.1038 -0.2197
 1894W        W18368   9.359  13.127   3.682  0.0086  0.1935  0.2592
 1895W        W18369  17.531  14.057   4.041  0.0626 -0.2778 -0.4829
 1896W        W18370  10.614   9.199  13.341  0.1213 -0.1261 -0.0882
 1897W        W18371   7.392   1.339   4.406  0.1851 -0.0345 -0.2012
 1898W        W18372   0.385   0.203  12.644  0.4083  0.3429 -0.0794
 1899W        W18373  10.011   8.280  15.622  0.3248  0.1765 -0.2405
 1900W        W18374  13.419   4.064   5.344  0.1396  0.0897  0.0931
 1901W        W18375   1.541  13.080   0.850  0.0580  0.0748  0.0172
 1902W        W18376  14.413  13.023  11.240 -0.3081  0.2588  0.1894
 1903W        W18377  13.086  12.805   4.602 -0.2510  0.1523  0.2796
 1904W        W18378  15.149  13.998   4.491 -0.2127 -0.1376 -0.3268
 1905W        W18379   5.707  14.788   5.118  0.2833 -0.2518  0.0822
 1906W        W18380   4.863   8.310  13.753 -0.0207  0.0615 -0.3422
 1907W        W18381   4.792  16.299   1.858  0.0268 -0.3215  0.3778
 1908W        W18382  12.812  10.458  14.950  0.0290 -0.0305 -0.0330
 1909W        W18383   1.542  10.978  11.441  0.1032  0.0504  0.4719
 1910W        W18384   8.922   9.309   0.843  0.3976  0.1799 -0.0581
 1911W        W18385  15.883   4.170  14.206 -0.1239  0.0664  0.1738
 1912W        W18386  15.714  14.646  11.511  0.0529  0.3424 -0.0474
 1913W        W18387   3.937   1.816   1.392  0.2014  0.0282  0.0886
 1914W        W18388   9.328  17.210   2.999  0.1940 -0.2007  0.2427
 1915W        W18389  14.318   1.896   2.328  0.2726  0.1467 -0.1810
 1916W        W18390  12.919   1.302  15.967 -0.0022  0.2175  0.0621
 1917W        W18391   9.842   3.587   1.137 -0.0939  0.1297  0.0394
 1918W        W18392   5.335  10.972   1.648  0.0577 -0.0755  0.2334
 1919W        W18393   0.566  12.579  15.221 -0.1134 -0.4093 -0.1647
 1920W        W18394   3.796   6.366   4.444  0.1717  0.2192 -0.0911
 1921W        W18395  11.849  12.828   4.909  0.0967 -0.0483 -0.0420
 1922W        W18396   0.539  10.508  11.700  0.2307 -0.3046 -0.0079
 1923W        W18397  17.324   8.507   5.069 -0.2304 -0.0753 -0.0123
 1924W        W18398   8.247   3.356  13.971  0.3712  0.0124 -0.1841
 1925W        W18399  15.083   5.416  11.304 -0.0335  0.0927 -0.0642
 1926W        W18400   9.001   2.157   3.042  0.1310 -0.1424 -0.2564
 1927W        W18401  17.457  17.835   6.417 -0.2113 -0.0845 -0.2704
 1928W        W18402  15.921  12.304   2.065 -0.1349 -0.4362  0.0095
 1929W        W18403   6.234  12.437   1.271 -0.2635 -0.0198 -0.1030
 1930W        W18404  17.888  11.995  12.050 -0.1345 -0.2436 -0.1401
 1931W        W18405   6.044   3.052   1.163 -0.1799 -0.3248  0.2382
 1932W        W18406   8.358   2.642  15.703  0.3965 -0.1968 -0.2155
 1933W        W18407   9.519   5.383  16.021  0.0312  0.1348 -0.1091
 1934W        W18408   9.002  16.846   0.138 -0.3742 -0.0592  0.1052
 1935W        W18409   0.222  15.124   2.161  0.0683  0.1719 -0.0351
 1936W        W18410  18.230  17.239   5.997  0.0302  0.2816 -0.2871
 1937W        W18411  12.653   9.526   1.322  0.1572 -0.0680 -0.0589
 1938W        W18412  16.753   6.621   0.944  0.0696 -0.0740  0.3007
 1939W        W18413  16.554  14.572   1.857 -0.0148  0.0209 -0.1541
 1940W        W18414   5.215  17.347  14.011  0.1022 -0.4498  0.1734
 1941W        W18415  13.543   2.988   2.411  0.0854 -0.0631  0.1273
 1942W        W18416   3.608   3.841  14.956 -0.0377 -0.2608 -0.3142
 1943W        W18417  17.487   4.886   2.238 -0.0055  0.0560 -0.1257
 1944W        W18418  16.015  15.666  13.047 -0.1163 -0.1497  0.1206
 1945W        W18419   4.740   2.223  13.202 -0.2170 -0.0713  0.2787
 1946W        W18420   7.001   5.285   3.360  0.1208 -0.1447 -0.2469
 1947W        W18421   1.725   6.672   4.398 -0.0174 -0.1151 -0.2398
 1948W        W18422  13.732  13.620  16.334 -0.0574 -0.2693 -0.1427
 1949W        W18423   5.346  16.178   0.714 -0.2255  0.0908 -0.0088
 1950W        W18424   9.106  11.279   2.062  0.0223 -0.0849  0.1620
 1951W        W18425  17.895  17.446   5.447  0.1260 -0.1440 -0.2162
 1952W        W18426  17.189   0.895   5.085 -0.1691 -0.0582 -0.1437
 1953W        W18427  10.273   0.139   4.234  0.3175  0.2132  0.0366
 1954W        W18428  14.874  15.437  11.405  0.1965  0.1513  0.1610
 1955W        W18429  17.929   7.671   0.988 -0.3702  0.1259 -0.0131
 1956W        W18430   4.708   6.181  11.067 -0.0739 -0.0060 -0.1513
 1957W        W18431  13.869   4.005   5.165 -0.1886 -0.1937  0.0389
 1958W        W18432  12.011  14.710   4.404  0.1327 -0.0066 -0.1201
 1959W        W18433   9.667  14.086   1.169 -0.2169 -0.0134 -0.0915
 1960W        W18434  14.871  11.064  12.364 -0.2396  0.0689  0.1865
 1961W        W18435  11.454   5.939  13.176 -0.1861 -0.3425  0.0354
 1962W        W18436  14.422   3.632   0.675 -0.1140 -0.1411  0.2211
 1963W        W18437   1.384   6.230   4.292 -0.2763 -0.2821 -0.0582
 1964W        W18438  17.988  13.173  11.555 -0.1584  0.2955  0.0056
 1965W        W18439   7.767  15.607   0.058 -0.0518  0.1423  0.0006
 1966W        W18440   0.442  13.536  14.696  0.2206 -0.0164 -0.1068
 1967W        W18441   4.348   3.722   2.113  0.0547 -0.0949 -0.1484
 1968W        W18442   3.536  17.782   1.040  0.0595 -0.0384  0.0751
 1969W        W18443   3.194   5.525   0.435  0.0515 -0.0374 -0.0183
 1970W        W18444  17.918  13.882   1.161 -0.2424  0.2781  0.0564
 1971W        W18445  17.466   3.700  15.712  0.1534  0.1922 -0.0181
 1972W        W18446   6.374  18.061   2.383 -0.0704 -0.2649 -0.0500
 1973W        W18447   3.512   4.835   2.802  0.1676  0.0478 -0.1691
 1974W        W18448  16.720   6.281  12.485  0.5081 -0.0426 -0.1054
 1975W        W18449  15.631  16.070   4.154  0.1244  0.1451  0.4374
 1976W        W18450   2.376  17.582  14.004 -0.1800  0.1505  0.2956
 1977W        W18451  16.182  17.561  12.948  0.2349 -0.2498 -0.1868
 1978W        W18452   8.466   4.735  12.715  0.0005  0.5146 -0.0255
 1979W        W18453   5.052   4.929  13.020 -0.4050  0.1714 -0.0329
 1980W        W18454  15.599   0.568   4.697  0.2862 -0.0926 -0.0643
 1981W        W18455   1.451   6.444   0.954 -0.0958  0.2362  0.1669
 1982W        W18456   3.134  10.401  14.343 -0.1414 -0.1593 -0.0553
 1983W        W18457   9.160  13.195  15.934  0.0247  0.2851  0.3747
 1984W        W18458  16.355  17.681  13.510 -0.1142 -0.0271  0.1373
 1985W        W18459  11.401  11.256  14.302 -0.0681 -0.1031 -0.2008
 1986W        W18460  10.585  12.514   0.108 -0.0735 -0.1436 -0.0141
 1987W        W18461  12.108  13.461  13.769  0.0473  0.0685 -0.1648
 1988W        W18462  11.229  14.371  14.198 -0.1076  0.2155 -0.0167
 1989W        W18463  17.081  10.877  14.241  0.2172 -0.1220  0.0251
 1990W        W18464  12.398  12.558  15.156 -0.0736  0.3295 -0.2135
 1991W        W18465   2.065   6.241  12.094  0.1547 -0.3462  0.1139
 1992W        W18466   8.909   8.057  13.237 -0.1145  0.1141 -0.0436
 1993W        W18467   2.115   9.575  11.215  0.5095  0.2380  0.2134
 1994W        W18468   5.733   1.581   2.372 -0.0960 -0.4337 -0.1047
 1995W        W18469  18.182   0.192  13.689 -0.1860  0.1932  0.1348
 1996W        W18470  16.420  16.605  15.035 -0.1179 -0.0119  0.1143
 1997W        W18471   0.995   2.863  14.760 -0.2802  0.0004  0.1124
 1998W        W18472  10.825  17.241  12.679 -0.2161 -0.0301 -0.0221
 1999W        W18473  16.513   9.019   4.903  0.1727 -0.2604 -0.0547
 2000W        W18474  13.385  17.033  13.608  0.1509 -0.0039  0.2345
 2001W        W18475  10.028  18.228  14.068 -0.1325  0.0119 -0.4906
 2002W        W18476  15.915  12.246  11.504 -0.0524  0.0260  0.1533
 2003W        W18477  15.806  12.431  12.343  0.1958 -0.0997  0.1581
 2004W        W18478  12.321  15.652   1.679 -0.1186  0.1995 -0.0767
 2005W        W18479   5.238   1.857   4.422 -0.2225 -0.4151 -0.1474
 2006W        W18480  16.448   2.579  15.240  0.1449  0.1742  0.0118
 2007W        W18481  13.398  16.241  15.999  0.2261  0.0056  0.3189
 2008W        W18482  11.310  14.390  11.251 -0.0728 -0.1488 -0.0440
 2009W        W18483  11.224   1.254  14.437 -0.3007  0.4100  0.2082
 2010W        W18484   5.403  16.892   5.111 -0.1228  0.0746  0.0388
 2011W        W18485  13.104  10.224   0.987 -0.3330 -0.0606 -0.3880
 2012W        W18486  14.978   7.583   2.800 -0.2380 -0.2317  0.0831
 2013W        W18487  13.653   3.493   1.163  0.0830 -0.1989  0.1640
 2014W        W18488   0.066   3.782  15.901 -0.1517  0.0389 -0.0691
 2015W        W18489  12.496  17.775  12.585 -0.2558  0.0031 -0.2526
 2016W        W18490   9.929   8.708  14.226  0.2366  0.0754 -0.0104
 2017W        W18491  18.005   3.685   2.024 -0.1579 -0.0314 -0.1179
 2018W        W18492   8.458   3.818   3.901  0.1257 -0.2425 -0.1009
 2019W        W18493  17.122   1.644   3.027  0.1536 -0.1925  0.0530
 2020W        W18494   3.543   3.123   2.369  0.0930  0.0705 -0.1530
 2021W        W18495   1.903  17.110  11.944 -0.1959 -0.1751 -0.0723
 2022W        W18496   1.857  13.310  11.868  0.0989  0.2163 -0.0239
 2023W        W18497   3.608  13.137   5.441 -0.0356  0.2764 -0.2089
 2024W        W18498  16.678  13.868  12.956 -0.0585  0.1968 -0.3436
 2025W        W18499  12.705  17.212  11.612  0.1159  0.1305 -0.2013
 2026W        W18500  12.126   6.328   3.663  0.1608  0.2223  0.1243
 2027W        W18501  14.163  10.221   5.065  0.1106  0.0612 -0.2497
 2028W        W18502   6.235  10.667  15.740  0.0256 -0.2435 -0.0595
 2029W        W18503   9.919   1.161   4.116  0.2150  0.4095 -0.1946
 2030W        W18504  14.556   3.999  13.532  0.4286  0.1290 -0.1477
 2031W        W18505   1.928   1.837   5.007 -0.2449  0.1611 -0.0022
 2032W        W18506   4.823  16.849   0.529  0.3561 -0.0277  0.1462
 2033W        W18507  13.025  18.247   0.637  0.1745 -0.0378  0.5402
 2034W        W18508   0.696   6.741   4.631  0.0942  0.0032  0.4601
 2035W        W18509  10.772  14.230  11.727 -0.0006  0.1201 -0.0891
 2036W        W18510   5.661  14.016   2.122 -0.0317  0.1585 -0.0579
 2037W        W18511  18.073   4.512   3.987 -0.0783  0.2667  0.1425
 2038W        W18512  14.951   6.478  14.082 -0.1539 -0.0300 -0.1932
 2039W        W18513   8.362   1.794   6.163  0.0927 -0.0427  0.0978
 2040W        W18514   3.951  14.044  13.105  0.0539  0.1629 -0.0262
 2041W        W18515  11.212   4.229   0.697  0.1573  0.1169  0.1311
 2042W        W18516   3.049   9.566   1.184 -0.1526  0.0795  0.1015
 2043W        W18517  10.900  11.520  14.983 -0.2788 -0.2593 -0.2054
 2044W        W18518   0.330   6.114   2.507  0.1939 -0.2967  0.2891
 2045W        W18519  10.173  10.178   0.413  0.1459  0.0710  0.2765
 2046W        W18520  15.637  13.456  16.040 -0.0735  0.0018  0.0329
 2047W        W18521   9.604   9.285   9.463  0.0105  0.2886 -0.2177
 2048W        W18522  10.728  13.015   3.609 -0.0371 -0.0645 -0.2441
 2049W        W18523   2.023   3.153   0.229 -0.1080  0.0843 -0.1474
 2050W        W18524  17.219  14.584  14.117 -0.1511  0.1668 -0.0493
 2051W        W18525   1.554   7.190  15.987  0.2057 -0.1276 -0.0052
 2052W        W18526  10.851  11.742  11.018 -0.2530 -0.1029 -0.2287
 2053W        W18527  15.298   8.353  11.408 -0.0174 -0.1336 -0.2645
 2054W        W18528  14.223   1.093  16.033 -0.1521 -0.1902 -0.0250
 2055W        W18529  12.290  11.946   5.295 -0.0162  0.5169 -0.0020
 2056W        W18530   1.533  18.122  11.331  0.0764 -0.0816  0.3883
 2057W        W18531  10.223  17.412  13.685 -0.1504 -0.3358  0.1001
 2058W        W18532  13.443   5.104  12.925  0.1118  0.0299 -0.0010
 2059W        W18533  17.238   2.041  15.245 -0.0954 -0.0523  0.0462
 2060W        W18534   2.029   2.904  12.605  0.0708  0.1939  0.1201
 2061W        W18535  12.030  15.516   1.299  0.0419  0.0668 -0.1751
 2062W        W18536   0.434   6.264  13.733  0.1840 -0.1509 -0.2488
 2063W        W18537  14.062   7.051  13.131  0.0735  0.0931  0.1234
 2064W        W18538   6.504  11.715  11.302  0.1479 -0.0333 -0.1675
 2065W        W18539   6.528   9.101   0.253  0.3371  0.0079  0.0640
 2066W        W18540   9.230   3.822   5.744  0.1763 -0.1799  0.0494
 2067W        W18541  16.785   4.679   5.074 -0.3344 -0.2448 -0.0481
 2068W        W18542  14.620   8.111   3.221  0.1048 -0.0486  0.0359
 2069W        W18543   7.038   6.885   1.463  0.3603  0.0260 -0.1006
 2070W        W18544  17.336   3.067  13.846  0.0292  0.0988 -0.0428
 2071W        W18545   2.114   2.812   4.035 -0.0258 -0.0518  0.0283
 2072W        W18546  15.945   9.419   0.192  0.0177 -0.0778 -0.0051
 2073W        W18547   1.936  13.799  11.950  0.0732 -0.0322 -0.0519
 2074W        W18548  15.068   3.747   3.559  0.0957  0.0650  0.0823
 2075W        W18549   0.100  13.223  14.765  0.3042 -0.1136  0.0832
 2076W        W18550  13.183  14.103   1.020  0.3306  0.1487 -0.1391
 2077W        W18551   8.899  11.546   4.039 -0.1720  0.1567  0.2328
 2078W        W18552   5.636   7.609   3.404 -0.2084  0.2508  0.0364
 2079W        W18553   4.272   0.546   5.061  0.3559  0.1181 -0.1543
 2080W        W18554  17.219   6.884  13.853  0.3554 -0.0513  0.0228
 2081W        W18555   7.406  13.641   6.242 -0.1427  0.0731  0.3032
 2082W        W18556  10.778   0.645  15.528 -0.0873 -0.1105 -0.0072
 2083W        W18557  16.514   7.564   5.062 -0.0025 -0.1223  0.0626
 2084W        W18558  13.785   6.803   1.809  0.3923 -0.1247 -0.0629
 2085W        W18559   4.578  10.010  14.888  0.1670 -0.5129  0.0141
 2086W        W18560   3.179   5.412   0.954  0.1572  0.4646  0.2910
 2087W        W18561  10.457   6.983  11.647 -0.0544 -0.2472 -0.3142
 2088W        W18562  12.296  15.958  14.958 -0.0617 -0.1911  0.0019
 2089W        W18563  15.889  14.261   0.724  0.0448 -0.0679  0.1774
 2090W        W18564  16.097   2.280   0.550  0.0974 -0.3722 -0.0335
 2091W        W18565   8.152   7.009   2.213 -0.0372  0.1618 -0.0851
 2092W        W18566   5.390  12.886  12.091  0.0402  0.2129  0.2520
 2093W        W18567   9.145   4.406   4.415  0.0497 -0.4282 -0.0801
 2094W        W18568  14.037   8.886  11.789 -0.0878  0.2001  0.1768
 2095W        W18569   9.043  15.827   4.220 -0.0220 -0.1575 -0.1053
 2096W        W18570  14.173   0.637  12.861  0.0267 -0.2683 -0.2864
 2097W        W18571   8.728   3.000  16.138  0.0730  0.2581 -0.0380
 2098W        W18572  12.206   6.049  14.011  0.0299  0.2104 -0.1534
 2099W        W18573  14.065   2.544   3.294 -0.0462 -0.4536 -0.0429
 2100W        W18574  16.420   2.490   1.594  0.2623  0.4718  0.1606
 2101W        W18575  14.501   7.798  16.272 -0.2227  0.2364 -0.1864
 2102W        W18576  15.466  13.242  15.537 -0.1172  0.1184  0.3606
 2103W        W18577   9.063   4.164   2.187  0.0001 -0.0179 -0.2549
 2104W        W18578  11.704   1.641   5.277  0.3563  0.2119  0.1215
 2105W        W18579  15.062  11.141   1.553 -0.1603 -0.0721  0.1122
 2106W        W18580  16.834  14.941  14.321  0.3506  0.0043 -0.0471
 2107W        W18581   2.026  14.660   5.967 -0.2744 -0.1026  0.1723
 2108W        W18582  11.379  18.276  11.947 -0.0515 -0.0464 -0.0253
 2109W        W18583  13.836   3.871  15.797 -0.1876  0.1564  0.1118
 2110W        W18584  14.826  11.542  14.870  0.1609 -0.1253 -0.1727
 2111W        W18585   3.391  12.709  14.460 -0.0032  0.4957 -0.2404
 2112W        W18586  17.447  15.067  12.818  0.0314  0.0582 -0.1801
 2113W        W18587  13.736   5.644   2.531 -0.2070  0.1838 -0.0976
 2114W        W18588  16.268  17.867   3.759 -0.1737 -0.2817  0.2337
 2115W        W18589   5.205   9.026   1.664  0.0437 -0.0265 -0.1096
 2116W        W18590   7.557   5.768  13.798 -0.1876  0.0822  0.0050
 2117W        W18591  12.897   5.462  13.030  0.3294  0.0766 -0.0883
 2118W        W18592  12.598  14.650   4.365 -0.0026 -0.0630 -0.1175
 2119W        W18593  15.090   0.423  12.631  0.1674  0.1350 -0.4131
 2120W        W18594   5.846   4.922   1.327  0.3841  0.0738 -0.2570
 2121W        W18595  14.314   1.081   3.590 -0.0962 -0.2405 -0.0119
 2122W        W18596  15.761  10.598   1.601  0.1735 -0.3422 -0.2091
 2123W        W18597   3.246   6.013  12.937  0.2138 -0.2882 -0.1138
 2124W        W18598   3.537  17.800  15.110  0.0380 -0.2274  0.0095
 2125W        W18599   7.348  17.342  15.009 -0.0408  0.4432  0.0996
 2126W        W18600   7.089  16.108   0.174 -0.0172  0.0781  0.0051
 2127W        W18601   8.311   5.368  14.060 -0.0360 -0.3457 -0.1802
 2128W        W18602   8.938   0.749   4.781  0.2461  0.0564 -0.0502
 2129W        W18603   0.254   1.360  13.137  0.1701 -0.0468  0.1478
 2130W        W18604   2.504   3.823  15.223 -0.0896  0.1365  0.0507
 2131W        W18605  14.932  14.780   2.240  0.1770  0.0212  0.0657
 2132W        W18606  17.467   1.256  14.273  0.0253  0.1610 -0.2519
 2133W        W18607  17.549   6.531  14.651 -0.0581  0.0510 -0.1894
 2134W        W18608   7.897   9.087  13.330  0.0241  0.3010  0.0789
 2135W        W18609  11.325   7.178  12.404 -0.1770 -0.0813  0.2567
 2136W        W18610  16.183   5.506   3.044  0.4451 -0.0504  0.0941
 2137W        W18611   8.370   3.562  13.488 -0.2005  0.0113 -0.0383
 2138W        W18612   4.305   2.748   1.354 -0.1193  0.2485  0.1731
 2139W        W18613  13.665   1.009   0.033  0.3720  0.1421 -0.4469
 2140W        W18614  16.059   5.332   2.065 -0.2007  0.1932 -0.5100
 2141W        W18615  10.813  10.585  16.248  0.1342  0.1530 -0.0626
 2142W        W18616   1.841   6.667  14.904  0.4580  0.0250  0.0113
 2143W        W18617   2.656  16.337   1.098  0.2904 -0.0431 -0.1218
 2144W        W18618  15.121   0.182   3.977  0.0609 -0.2095 -0.1786
 2145W        W18619  12.382  18.376   2.803 -0.0759 -0.0001 -0.0882
 2146W        W18620   2.236   5.805   0.859 -0.1339 -0.0745  0.2782
 2147W        W18621   3.359   4.725  15.527  0.3931 -0.1392 -0.2131
 2148W        W18622  16.259   4.998  13.469  0.0005 -0.0211  0.2624
 2149W        W18623  12.173  12.465   5.256 -0.1462  0.1595  0.0250
 2150W        W18624  14.709  14.146  11.907 -0.1203 -0.2853  0.2429
 2151W        W18625  10.325   0.469   0.809 -0.1285 -0.1047 -0.1814
 2152W        W18626  12.944  12.053  13.362 -0.2079 -0.0091 -0.1648
 2153W        W18627  11.515   2.655   5.300 -0.2496  0.0390  0.0510
 2154W        W18628   2.935   6.998   4.592  0.0559 -0.3249 -0.2866
 2155W        W18629   9.133   4.117  12.733  0.1780 -0.1903 -0.2335
 2156W        W18630   1.354  18.328  16.055 -0.1608  0.2321  0.0382
 2157W        W18631   4.466   3.130   0.082  0.3935 -0.1740  0.0063
 2158W        W18632  10.795   8.314   3.014 -0.0566 -0.1148  0.0720
 2159W        W18633  17.040   3.874   4.624  0.2007 -0.2162 -0.1017
 2160W        W18634  13.395  17.044   0.271  0.2307 -0.0403  0.3049
 2161W        W18635  16.307  10.480  10.907 -0.0537  0.1106 -0.1480
 2162W        W18636  12.067   0.124   0.028  0.1654  0.5649 -0.0074
 2163W        W18637   2.170   6.382  13.782  0.2121 -0.0872 -0.0111
 2164W        W18638  17.936   2.509   0.672  0.0032  0.0655  0.0951
 2165W        W18639  17.139   5.186   3.192  0.3169  0.0755  0.0274
 2166W        W18640  15.286  15.278  12.817 -0.0397 -0.1267  0.0783
 2167W        W18641   2.529   2.497  14.154 -0.1182 -0.1008 -0.0669
 2168W        W18642   1.781   3.644  14.734 -0.4685 -0.0132 -0.1832
 2169W        W18643  13.245  15.590  15.068  0.2011 -0.1614 -0.0065
 2170W        W18644  14.347  16.934  14.417 -0.0898 -0.0021 -0.1018
 2171W        W18645  15.925   5.886   4.767 -0.2213 -0.1032  0.0992
 2172W        W18646   9.416   8.697  13.535 -0.0186 -0.0055 -0.0470
 2173W        W18647   1.525   1.667   4.157 -0.1308  0.1823  0.0751
 2174W        W18648   0.507  13.794   0.074 -0.1145  0.1701  0.0512
 2175W        W18649   4.143   5.083  12.484 -0.0116  0.1066  0.2307
 2176W        W18650   1.425  17.806  13.364  0.1112 -0.2949  0.0375
 2177W        W18651   5.668   3.654   1.864  0.1992  0.0028  0.5062
 2178W        W18652  17.455  10.843   4.072 -0.2059  0.1817 -0.1520
 2179W        W18653   6.893   0.240   6.238 -0.0682 -0.2805  0.2538
 2180W        W18654  11.462   3.362   1.234  0.1939  0.0785  0.0452
 2181W        W18655   5.344   1.954   0.625 -0.0945 -0.0251 -0.0536
 2182W        W18656  17.491   2.373   0.943 -0.0306  0.0313 -0.2780
 2183W        W18657  15.822   3.176   0.678 -0.0490  0.2014 -0.1977
 2184W        W18658   0.249  12.649   3.585  0.2192  0.2224 -0.1667
 2185W        W18659  14.526   2.199  11.062 -0.1579  0.1126 -0.2589
 2186W        W18660   2.540   3.566  12.773 -0.3277 -0.1537  0.0291
 2187W        W18661  14.388  16.115  12.167 -0.0878  0.3140  0.1428
 2188W        W18662   7.176  15.641   4.000 -0.0958 -0.3663  0.3921
 2189W        W18663   5.854   2.544  15.131 -0.5570  0.0915 -0.0371
 2190W        W18664  16.841   5.163  15.324  0.2833  0.1536 -0.2399
 2191W        W18665  11.075  16.480  11.210 -0.2754 -0.0102  0.0886
 2192W        W18666  17.064  13.840  14.881 -0.2827  0.1970 -0.0912
 2193W        W18667  13.098  14.910  14.353 -0.3205  0.1133 -0.0642
 2194W        W18668   5.228   1.142   1.661  0.2384 -0.0980  0.2238
 2195W        W18669   9.111  16.928  15.972  0.1577 -0.0751  0.0411
 2196W        W18670  17.650   7.101  13.836  0.2574 -0.2010  0.3649
 2197W        W18671  13.410  13.547   4.166  0.0414  0.2173  0.1965
 2198W        W18672  15.637  16.567  13.957 -0.2293 -0.3194  0.1771
 2199W        W18673  15.653  14.152   4.435  0.2312 -0.2905  0.0558
 2200W        W18674   4.150  11.425  12.587 -0.2304  0.2632  0.1414
 2201W        W18675   6.943   5.935   1.964 -0.1530  0.1647 -0.0769
 2202W        W18676  13.805   2.135   1.531  0.0751 -0.0707  0.0168
 2203W        W18677   7.464   3.759  11.548  0.2604  0.1840 -0.3024
 2204W        W18678   5.848  10.848  16.135  0.1237 -0.2031 -0.0114
 2205W        W18679  17.485  14.874   3.692  0.0774 -0.1478  0.1904
 2206W        W18680   3.759  13.386  14.302  0.0041  0.3070 -0.0402
 2207W        W18681   1.914  17.503   2.391 -0.0109 -0.0768  0.2869
 2208W        W18682   3.392   2.350   3.577  0.0220  0.0259  0.0346
 2209W        W18683   0.951  14.846  15.215 -0.1486  0.1095 -0.2320
 2210W        W18684   6.671  18.244  13.945 -0.2751  0.0651  0.0133
 2211W        W18685   2.916   5.789   4.405 -0.1643 -0.0942  0.2462
 2212W        W18686  18.319  15.156   5.078  0.1580  0.1747 -0.0088
 2213W        W18687   9.651   9.341  12.033  0.0538  0.3992  0.2334
 2214W        W18688  12.441   6.340   2.354 -0.0360  0.2612 -0.1688
 2215W        W18689  12.148   3.149   0.951  0.1264  0.1467 -0.0809
 2216W        W18690  13.948  12.478   6.056  0.0083  0.1312  0.1520
 2217W        W18691   6.347  13.658  14.184 -0.0870  0.0688  0.3933
 2218W        W18692   5.985   4.452   1.439  0.0700  0.1527  0.0049
 2219W        W18693   4.697   7.716  15.937  0.0687  0.0505  0.1672
 2220W        W18694  14.410   3.622  13.826  0.4057  0.1254 -0.0315
 2221W        W18695  13.544   6.363  11.982  0.0630 -0.1386 -0.0395
 2222W        W18696  14.561   4.442  13.976  0.1881 -0.1653 -0.0780
 2223W        W18697   4.542  14.372  14.133 -0.0107 -0.0482 -0.1373
 2224W        W18698  13.301   2.381  12.140 -0.0767 -0.1883 -0.0979
 2225W        W18699  16.423  12.743   4.275  0.0399 -0.0165  0.2243
 2226W        W18700   0.893   3.576  14.889  0.1155 -0.3088  0.1662
 2227W        W18701  14.499   9.757  12.971 -0.0128 -0.0668  0.0139
 2228W        W18702   5.077   5.082  14.670 -0.1429  0.1263  0.1677
 2229W        W18703  10.391  14.298   3.557  0.0539  0.0114  0.0494
 2230W        W18704   8.219  13.551   0.796 -0.0671  0.1396  0.5658
 2231W        W18705   7.802   6.163   2.250  0.3442  0.1313 -0.0736
 2232W        W18706  14.121  13.938   2.571 -0.0742  0.0754  0.0383
 2233W        W18707  16.391   0.613   0.086 -0.1652 -0.1202 -0.2574
 2234W        W18708   2.303   9.179   0.747  0.0127 -0.1847 -0.0116
 2235W        W18709   4.139   9.840  15.741 -0.0446  0.3954  0.0464
 2236W        W18710  16.631   2.170   5.182 -0.0525  0.4180  0.3173
 2237W        W18711  18.175   5.949  16.250  0.0547 -0.0548  0.0523
 2238W        W18712   2.749   3.495  13.646  0.2129  0.0670  0.0459
 2239W        W18713  17.955  15.349  12.286  0.3150  0.0617  0.1824
 2240W        W18714  11.239   7.683  13.380 -0.0851  0.0164  0.0331
 2241W        W18715  10.369   1.145  14.074 -0.2462 -0.2709  0.0601
 2242W        W18716   3.690   0.013  12.169 -0.2069  0.2053  0.0709
 2243W        W18717   6.497  11.358  13.255 -0.1204 -0.2015  0.0011
 2244W        W18718  14.642   7.997   4.097  0.1559 -0.0097 -0.0027
 2245W        W18719  16.779   7.635  13.826  0.0365 -0.1280  0.0152
 2246W        W18720   3.724   7.160   3.202 -0.0096 -0.1025  0.1917
 2247W        W18721  11.479   8.239  12.614  0.0087 -0.0050 -0.0012
 2248W        W18722  12.247   2.612  12.929 -0.0570  0.3549 -0.0398
 2249W        W18723  13.071   2.557   4.217 -0.2728 -0.1008  0.2678
 2250W        W18724   8.202  12.007  15.468  0.2143 -0.0370  0.1633
 2251W        W18725   4.985  17.920   5.883  0.1288  0.2472 -0.0488
 2252W        W18726   8.719   0.824   3.539 -0.1297  0.0608 -0.0134
 2253W        W18727  11.620  17.183   1.781  0.0735  0.0893  0.0734
 2254W        W18728   1.184   7.211  11.253  0.3148 -0.1131  0.0851
 2255W        W18729  14.863   5.838   1.361 -0.0233 -0.0239  0.3146
 2256W        W18730   7.306   0.448  12.418  0.1224 -0.0538 -0.0081
 2257W        W18731  10.361  12.913  16.283  0.1335  0.2068  0.0574
 2258W        W18732   9.805  11.261  15.594 -0.0481  0.0924  0.1392
 2259W        W18733  14.567   0.616  11.965 -0.1213 -0.1379 -0.0220
 2260W        W18734  15.943  13.453  11.575  0.2646  0.0306 -0.0724
 2261W        W18735   6.786   0.446  12.529  0.3804  0.0495  0.1501
 2262W        W18736   1.424   4.417  13.322 -0.0505  0.2864  0.2125
 2263W        W18737  15.198   8.772   2.985  0.4523  0.1423  0.1573
 2264W        W18738  10.809   6.902   3.924  0.0114 -0.1036 -0.0646
 2265W        W18739   8.035   9.689  13.205 -0.0585 -0.0467 -0.0588
 2266W        W18740  14.215   4.929  12.369 -0.3092  0.1478  0.2134
 2267W        W18741  17.962   6.672  16.091  0.1430  0.0469  0.0592
 2268W        W18742  12.271   1.097  12.917  0.1021 -0.2113 -0.3355
 2269W        W18743   1.364   0.418   1.764  0.0489  0.0810 -0.0013
 2270W        W18744  12.652   2.382  15.116  0.1233  0.1098 -0.2941
 2271W        W18745   8.198  15.258   3.395  0.3347 -0.0710 -0.3125
 2272W        W18746  10.785  16.255   1.128 -0.2564  0.0531 -0.4988
 2273W        W18747   7.816   3.816  14.998  0.0862  0.1853 -0.1017
 2274W        W18748   4.736  13.597  15.337  0.0550 -0.0534  0.1590
 2275W        W18749   4.251   8.036   2.928 -0.0502 -0.0209 -0.4950
 2276W        W18750   4.939   1.465   1.323  0.2014 -0.1941 -0.2252
 2277W        W18751   3.055   8.542  13.734  0.1056 -0.3290 -0.2581
 2278W        W18752   5.028   6.606  11.995  0.0811  0.2233 -0.1350
 2279W        W18753  18.177  18.124   0.286  0.1484 -0.0850  0.3901
 2280W        W18754   5.656   6.281   4.124  0.1365  0.1929 -0.0754
 2281W        W18755   3.268   9.257   1.554  0.0469  0.4393 -0.0279
 2282W        W18756  15.052   1.644  14.914 -0.1788  0.2089 -0.3073
 2283W        W18757   6.098   6.514   2.629 -0.0284 -0.1670 -0.1422
 2284W        W18758  14.080   5.956   2.783 -0.0916  0.2054 -0.2974
 2285W        W18759   2.023  10.326   4.162 -0.1914  0.2897 -0.0548
 2286W        W18760  14.740   8.866   2.097 -0.0341  0.4743 -0.0959
 2287W        W18761   6.922  13.655   2.663  0.1850  0.2743  0.2696
 2288W        W18762  17.042   6.240   3.578  0.2465 -0.0460 -0.1370
 2289W        W18763   2.526  15.155   2.469 -0.1200 -0.0616  0.4646
 2290W        W18764   1.432  14.210  11.722 -0.0616 -0.0014  0.3282
 2291W        W18765   2.316   6.152  11.569 -0.3921  0.1601  0.0058
 2292W        W18766   4.605   2.308   1.239 -0.0619  0.1015  0.1339
 2293W        W18767  13.293  15.880   0.659 -0.1991  0.0093 -0.1045
 2294W        W18768   5.161   4.804  11.277 -0.2910  0.1507 -0.0638
 2295W        W18769   2.683   0.460  14.106  0.0074 -0.0038  0.0839
 2296W        W18770   6.213  13.660  11.659  0.0752  0.1411  0.2699
 2297W        W18771  14.335   5.619   0.183 -0.0498  0.0217  0.0711
 2298W        W18772   9.164  11.104  11.301 -0.2258  0.1207 -0.0917
 2299W        W18773  18.189  13.353  13.890  0.2669  0.1055  0.0957
 2300W        W18774   6.165   6.546   3.557  0.0496 -0.0293 -0.0424
 2301W        W18775  17.410   5.173   0.851 -0.2282  0.0500  0.0908
 2302W        W18776  13.932  15.315  15.594  0.2635  0.0005 -0.3286
 2303W        W18777   8.149  14.654  11.838  0.3923 -0.1218 -0.3681
 2304W        W18778  10.604  13.300   4.041 -0.0256  0.0559 -0.1752
 2305W        W18779   3.950  15.563   0.886  0.0580  0.4273 -0.0292
 2306W        W18780  14.618   1.585  12.736  0.0096 -0.0360 -0.0148
 2307W        W18781   2.180  14.095   4.932 -0.1196  0.4248 -0.1726
 2308W        W18782   1.419  14.320   5.303  0.1262  0.0522 -0.1032
 2309W        W18783  12.225  17.534  13.999 -0.0643  0.1382  0.0330
 2310W        W18784   7.701   6.438  14.663  0.1389 -0.0828 -0.1223
 2311W        W18785  11.970   1.335   1.297  0.2139  0.0572 -0.0997
 2312W        W18786   2.410  17.756   2.656 -0.1274  0.0415  0.0614
 2313W        W18787  10.421   8.083  15.162 -0.2058  0.1715 -0.1216
 2314W        W18788  15.013   4.007   1.367  0.1550 -0.1614 -0.1992
 2315W        W18789   6.323  12.402  15.537 -0.1029  0.0873  0.0177
 2316W        W18790  14.247  12.156   4.477 -0.2221 -0.0045 -0.1155
 2317W        W18791  15.444  16.811  14.449  0.0840 -0.2876  0.2287
 2318W        W18792   4.233  13.512   2.429 -0.1548  0.3241  0.4522
 2319W        W18793   6.419   1.439   4.170 -0.0813  0.1375 -0.1225
 2320W        W18794  10.613  13.145   2.712 -0.1745  0.2753  0.0392
 2321W        W18795   6.691  17.768   6.495  0.0291  0.1329 -0.0089
 2322W        W18796   4.357  13.926  15.555  0.3701 -0.3289 -0.0667
 2323W        W18797   6.513  12.809  14.659 -0.0469  0.1284  0.0748
 2324W        W18798   9.034  13.396  11.939  0.3029 -0.3262 -0.1787
 2325W        W18799  10.711  11.158   0.749 -0.1090  0.0823  0.1349
 2326W        W18800  16.290   5.337   4.041 -0.2196  0.0801 -0.1592
 2327W        W18801  13.120  16.424  11.632  0.2877  0.1008  0.0640
 2328W        W18802  17.461  15.924  14.318 -0.2677 -0.4312  0.1019
 2329W        W18803  13.457  11.451  13.579  0.3441 -0.0059  0.0274
 2330W        W18804  10.227   6.349   0.249  0.3519  0.0583 -0.0480
 2331W        W18805   2.143  15.910   5.207 -0.0617  0.1874 -0.0074
 2332W        W18806  13.115  14.902   0.216  0.1102  0.0100 -0.0896
 2333W        W18807  16.615  13.352  15.667 -0.1532  0.0824  0.2157
 2334W        W18808   7.760  17.835   5.573 -0.1000  0.1157  0.0415
 2335W        W18809  13.796  14.693  12.926 -0.0175  0.4553  0.4027
 2336W        W18810  13.095   4.300  14.474 -0.1743 -0.1420  0.1529
 2337W        W18811   2.782   2.716   0.378 -0.2134 -0.0779  0.0945
 2338W        W18812   5.368  12.225  13.746  0.2909  0.1131 -0.0399
 2339W        W18813  12.536   0.894   2.785  0.1115  0.1997 -0.0711
 2340W        W18814  18.333   3.691   0.143 -0.0843  0.0167 -0.1602
 2341W        W18815  17.466  15.905   0.912 -0.0032  0.1157 -0.1033
 2342W        W18816   2.793  15.632   1.534  0.0237 -0.3920  0.0708
 2343W        W18817  11.011  17.488   2.964  0.0214 -0.0343 -0.0339
 2344W        W18818   8.301  12.048   4.627  0.0213  0.0872  0.0538
 2345W        W18819   5.109   1.361  13.166 -0.1827 -0.1470  0.0739
 2346W        W18820  14.630   9.093  13.547 -0.0751 -0.2324  0.2283
 2347W        W18821  13.167   5.037  11.378 -0.2394 -0.1620 -0.2066
 2348W        W18822  12.233   8.314  14.785  0.0599  0.0725  0.1612
 2349W        W18823   8.339   7.829   1.653  0.0472  0.1001  0.0606
 2350W        W18824  11.154  14.058  12.783  0.2108 -0.0488 -0.1723
 2351W        W18825  17.474   1.838   4.969 -0.0124  0.2770 -0.2470
 2352W        W18826   2.947   8.645   3.857 -0.0411  0.2972 -0.2308
 2353W        W18827   1.751  16.135   4.004  0.1830 -0.1627  0.1522
 2354W        W18828  15.727  16.607   5.923  0.2154  0.1136  0.1093
 2355W        W18829  17.426   2.967   1.454 -0.2593 -0.1372  0.2716
 2356W        W18830  15.448  12.003  11.449  0.1077 -0.0003  0.2372
 2357W        W18831   8.934   7.640   0.352 -0.0858  0.2292 -0.5671
 2358W        W18832   6.419   1.145   3.759 -0.1244  0.0459  0.0441
 2359W        W18833   8.194  11.595   1.637 -0.0372  0.0292  0.2676
 2360W        W18834  10.782   7.564  11.087  0.0330  0.0506  0.2492
 2361W        W18835   2.837   7.148   5.133 -0.2947  0.0038  0.2399
 2362W        W18836   8.156  12.448   1.261 -0.1453 -0.1771  0.0299
 2363W        W18837   4.389   6.509   2.001  0.0992  0.2177  0.1050
 2364W        W18838  17.788  14.659   3.992 -0.0638 -0.0112 -0.0410
 2365W        W18839   7.743  12.847   4.487 -0.0472  0.1330  0.1694
 2366W        W18840   0.365   3.563   4.932 -0.1705 -0.5416  0.0795
 2367W        W18841   1.867   1.680   6.111 -0.1446  0.0719 -0.2098
 2368W        W18842   0.450   3.713  14.691  0.0084 -0.2686  0.0324
 2369W        W18843   9.491   3.175  15.466  0.3313 -0.3618  0.0630
 2370W        W18844  10.277  15.657  14.048  0.2311  0.0162 -0.0382
 2371W        W18845   9.182   0.988   4.392  0.0637  0.1728 -0.3072
 2372W        W18846  15.988   5.901   3.255  0.0515 -0.1636 -0.0122
 2373W        W18847   7.538  16.445   2.030  0.2854 -0.3196  0.1466
 2374W        W18848  11.249   1.462  11.293  0.2415 -0.2358 -0.2787
 2375W        W18849  17.631   7.495   4.223  0.1384  0.0396 -0.1673
 2376W        W18850   2.916   8.483  11.929  0.3170  0.3356  0.2631
 2377W        W18851  13.806   5.651   3.121 -0.0441  0.0083 -0.1656
 2378W        W18852   3.595  14.287   6.118  0.2235  0.1246 -0.0808
 2379W        W18853   4.600  12.667  11.851 -0.0351 -0.3622  0.0130
 2380W        W18854   9.273  16.696  15.549 -0.0100  0.0678 -0.0466
 2381W        W18855   4.312   2.030  13.123  0.3102  0.4343  0.0797
 2382W        W18856  17.957  18.277  16.143 -0.1028  0.0701 -0.1670
 2383W        W18857   8.604   2.593  12.748  0.1199  0.2935 -0.0211
 2384W        W18858   5.455   4.564  12.495  0.0890  0.1952 -0.1314
 2385W        W18859   6.661   9.280  15.197  0.1234  0.0914  0.0132
 2386W        W18860   3.963  13.789   0.178 -0.1406 -0.0454  0.0934
 2387W        W18861   1.875   9.318   3.503 -0.2511 -0.1851 -0.2807
 2388W        W18862   4.311   4.592  12.416  0.3868  0.0679 -0.0099
 2389W        W18863  18.044   4.838   4.368  0.0974 -0.1257  0.1255
 2390W        W18864  15.920   8.891   2.797 -0.1582  0.0694 -0.0356
 2391W        W18865   0.591  12.120   4.121  0.0292  0.2496 -0.0603
 2392W        W18866  10.670  18.192  15.897 -0.0393  0.3676 -0.0717
 2393W        W18867  16.508  11.424   3.327  0.1346 -0.0493 -0.0431
 2394W        W18868  11.343  17.078   6.461 -0.2987  0.2597  0.0789
 2395W        W18869  12.418  14.858  15.815 -0.1613 -0.1227 -0.0350
 2396W        W18870   2.201   6.189   0.580 -0.0361 -0.0988 -0.1079
 2397W        W18871   6.527   7.040  13.452 -0.0111 -0.0007 -0.1242
 2398W        W18872   3.969   4.672  12.849  0.0887 -0.0985 -0.1028
 2399W        W18873  10.007  16.743  11.046 -0.1840  0.3501 -0.0371
 2400W        W18874  13.252  12.722   2.554  0.0028  0.1492 -0.1985
 2401W        W18875  18.066   2.420  13.692 -0.1066 -0.0442  0.2636
 2402W        W18876  10.177  10.149   5.069 -0.2231 -0.3943  0.2819
 2403W        W18877   7.005   7.566  11.989 -0.2117 -0.2237  0.0299
 2404W        W18878   6.023  15.057   3.920  0.1580 -0.3036  0.0082
 2405W        W18879   0.262   1.444   0.193  0.1223  0.1263  0.2240
 2406W        W18880   5.992   0.431   1.164  0.1667  0.0999 -0.2258
 2407W        W18881   3.514  10.827   3.356 -0.1783 -0.0804  0.0317
 2408W        W18882   0.561   3.171   4.716 -0.0689 -0.2968  0.0903
 2409W        W18883   0.073   6.632   3.255  0.2096  0.0050  0.1360
 2410W        W18884   4.340  12.047  14.830  0.1090  0.0373  0.2874
 2411W        W18885   4.219  12.490  16.073 -0.3618 -0.1408 -0.0728
 2412W        W18886   8.441  10.015   4.174 -0.1145  0.1534  0.1588
 2413W        W18887  16.904  16.562   2.383  0.0302 -0.1153 -0.1883
 2414W        W18888   5.126  14.500   1.346  0.1601 -0.1492  0.1598
 2415W        W18889  11.790   9.216   3.945  0.0624 -0.4358  0.0486
 2416W        W18890  15.870   6.284   0.979  0.0483 -0.0219  0.2410
 2417W        W18891  16.471  14.916   3.720 -0.2890 -0.0659  0.1645
 2418W        W18892   3.615   4.225  11.925 -0.0634 -0.2925  0.2166
 2419W        W18893  15.192   6.117  15.161 -0.0636  0.1225  0.0093
 2420W        W18894   5.231   3.284  12.423  0.2929  0.1892  0.2751
 2421W        W18895   7.629   6.033  12.796  0.1896 -0.0250  0.3980
 2422W        W18896  16.028  18.309   0.746 -0.2318 -0.2566  0.1516
 2423W        W18897   2.507   6.255   2.134  0.1384  0.2721  0.0938
 2424W        W18898  14.003  16.827   2.746 -0.3155  0.2708 -0.1598
 2425W        W18899  18.357  12.160  14.613 -0.3166 -0.1821 -0.2142
 2426W        W18900   6.498   9.847   0.998  0.0673 -0.0695 -0.0755
 2427W        W18901  16.923  10.112   5.588  0.0563  0.3221 -0.3458
 2428W        W18902   4.854   0.089   1.587 -0.2620  0.1946  0.2087
 2429W        W18903   4.063   1.352   3.022  0.0307  0.1677 -0.3842
 2430W        W18904   2.383  16.169  11.598  0.1297  0.0863  0.3211
 2431W        W18905   9.158   6.179  14.149 -0.4678  0.2465 -0.2562
 2432W        W18906   6.143  11.746  13.378 -0.1194 -0.0076 -0.0447
 2433W        W18907  16.672   2.925   1.635 -0.3601  0.0987 -0.0040
 2434W        W18908  18.206  15.562   0.492 -0.0311  0.0316 -0.1665
 2435W        W18909   0.841   9.116   0.194 -0.0190  0.1453 -0.1185
 2436W        W18910   0.951   6.813  13.059 -0.1123 -0.1701 -0.0385
 2437W        W18911   8.380   0.072  12.277  0.3378 -0.0481  0.0572
 2438W        W18912  10.400  15.935   3.998 -0.2237 -0.0419 -0.1073
 2439W        W18913   4.477   0.838   4.086  0.0405 -0.1185  0.0498
 2440W        W18914  10.912   5.491  14.137 -0.2808 -0.0038 -0.1738
 2441W        W18915  10.761  13.166  15.740 -0.1233 -0.0765 -0.1647
 2442W        W18916   7.020   4.519   2.303  0.1493  0.3923  0.2959
 2443W        W18917   1.117  18.225   5.704  0.0096 -0.3241  0.4503
 2444W        W18918  12.358  17.528   4.258  0.0026  0.1829  0.3516
 2445W        W18919  16.805   6.802   1.450 -0.0333 -0.3107  0.3530
 2446W        W18920   5.207   8.608  16.053 -0.0391 -0.0065  0.1303
 2447W        W18921   8.795   5.167  15.939  0.0631 -0.0751 -0.2378
 2448W        W18922  11.449   3.016   1.583  0.1245 -0.2983 -0.2323
 2449W        W18923   0.182  10.731   0.984  0.1762 -0.0621  0.0282
 2450W        W18924  14.162  10.631   1.809 -0.2604  0.0948  0.1530
 2451W        W18925  11.649   9.477  14.043 -0.0100  0.0448  0.1440
 2452W        W18926  14.443  11.137   3.547 -0.0021 -0.0411 -0.2494
 2453W        W18927   8.387  12.653  13.668  0.1091  0.2733  0.0518
 2454W        W18928  11.108  13.270   4.441  0.2195 -0.2970  0.0376
 2455W        W18929  14.144   9.817   0.448  0.0206  0.0814 -0.0445
 2456W        W18930   9.493  17.208   4.639 -0.2476  0.2237  0.1597
 2457W        W18931  18.265  11.081   0.824  0.2830 -0.0823  0.2298
 2458W        W18932   5.969  12.047  14.303  0.0800  0.1346  0.1901
 2459W        W18933  13.691  12.556   1.994  0.1932  0.0823 -0.0375
 2460W        W18934   5.764  16.175   2.109 -0.0939 -0.0758  0.3295
 2461W        W18935   8.045  16.822  13.331 -0.2321 -0.1308  0.0247
 2462W        W18936  10.958   1.447   3.206  0.0042 -0.1448 -0.0179
 2463W        W18937   2.190  13.007   3.785 -0.5973 -0.0214  0.2520
 2464W        W18938   0.663   5.236  11.274 -0.1079  0.0751  0.2481
 2465W        W18939   5.840  18.117   4.127  0.1754  0.3483 -0.1009
 2466W        W18940  12.848   7.822  13.531 -0.0638 -0.1178 -0.0221
 2467W        W18941   4.916  14.756  14.068  0.0614 -0.0867  0.2119
 2468W        W18942   2.850   2.226   3.042 -0.1794 -0.1933 -0.0553
 2469W        W18943   6.805  12.875  15.529  0.3050  0.2487 -0.0536
 2470W        W18944   0.678  14.943  13.537  0.0282  0.3597 -0.1072
 2471W        W18945  13.911   2.274  11.889  0.1975  0.2767  0.1053
 2472W        W18946   8.933  15.594   0.118 -0.1359  0.1073 -0.3258
 2473W        W18947  10.376   1.164   2.051  0.1985  0.4354  0.0962
 2474W        W18948   3.176   4.453   1.860 -0.0517  0.0172  0.1260
 2475W        W18949  13.575   6.115   4.335  0.0953 -0.0391  0.0135
 2476W        W18950  17.852   4.946  14.794 -0.0374 -0.0539 -0.0288
 2477W        W18951   6.507   9.874  11.687  0.0681 -0.0600  0.1409
 2478W        W18952  12.692   6.087  13.727  0.1724 -0.1887  0.1740
 2479W        W18953  13.280   9.754   1.318  0.0591 -0.0442  0.0756
 2480W        W18954   5.668   3.364   3.467 -0.1912  0.1420  0.0899
 2481W        W18955   1.935  14.998  14.014 -0.0285  0.0508 -0.0695
 2482W        W18956   9.189   8.369  14.842 -0.1971  0.3646  0.0837
 2483W        W18957   2.451  18.268  11.874 -0.2656 -0.1480 -0.0787
 2484W        W18958  15.556   1.252  11.832 -0.0167  0.0321 -0.2083
 2485W        W18959   9.075   5.310   4.057 -0.1268  0.1786 -0.1952
 2486W        W18960  13.824  10.196  12.984  0.0439  0.3534 -0.0998
 2487W        W18961  16.026   4.053  13.307 -0.0646 -0.0707  0.1900
 2488W        W18962   7.059  13.904   5.627 -0.1598 -0.0049 -0.0552
 2489W        W18963  15.404   4.846   3.191 -0.0995  0.0080 -0.3925
 2490W        W18964   8.164   7.906  12.576  0.1615  0.1352  0.0003
 2491W        W18965   3.252   3.759   2.917  0.0790  0.1318 -0.1870
 2492W        W18966  14.436   4.775   5.186  0.0783 -0.0635  0.1825
 2493W        W18967   9.616   7.939   4.967 -0.1110  0.2780  0.3633
 2494W        W18968   3.291   7.502   3.142  0.1811  0.0231 -0.0129
 2495W        W18969   7.795  13.986  12.831 -0.1447 -0.1065 -0.0898
 2496W        W18970  14.376   6.927   0.240  0.2306 -0.1011  0.2317
 2497W        W18971  16.683   1.906   3.108 -0.1176  0.0101 -0.1697
 2498W        W18972  13.267   9.028   0.620  0.2181  0.3727 -0.0305
 2499W        W18973   3.352  14.051   1.913  0.0788 -0.0835  0.1270
 2500W        W18974  17.844  17.826  16.321 -0.3140 -0.3376  0.1695
 2501W        W18975   2.317   4.397  14.018 -0.2041  0.2511  0.0547
 2502W        W18976   2.038  13.910   4.398 -0.0115 -0.4866 -0.3145
 2503W        W18977   7.898  16.404   0.111  0.1864 -0.2396 -0.1890
 2504W        W18978   4.844  17.776  12.169  0.1164  0.0322 -0.3563
 2505W        W18979   0.777  14.471  15.603 -0.1710  0.2400  0.0355
 2506W        W18980  16.105   6.171   5.150 -0.1634  0.2082 -0.2590
 2507W        W18981   3.688  17.923  13.568 -0.2018 -0.0253 -0.0379
 2508W        W18982  14.527   4.425   2.156 -0.5301  0.0163  0.4285
 2509W        W18983   1.913   0.087   5.407  0.5017  0.3508  0.0199
 2510W        W18984  17.982   0.383   1.779  0.0086 -0.3537  0.1891
 2511W        W18985   1.901  16.044  15.616  0.1286  0.0391  0.4654
 2512W        W18986  12.097   0.444   2.062 -0.2169 -0.0752  0.1144
 2513W        W18987  13.514  12.085  14.333 -0.1177  0.1747 -0.2403
 2514W        W18988   9.975  16.563  10.578 -0.1836 -0.0484 -0.0739
 2515W        W18989  14.802  12.827  11.074 -0.4166 -0.1183  0.0353
 2516W        W18990   2.124   6.587  14.498  0.0336 -0.2446 -0.0294
 2517W        W18991  15.219   5.294   3.095 -0.0234  0.3294  0.0562
 2518W        W18992   2.332  14.787  12.723 -0.0668 -0.1281  0.1429
 2519W        W18993   0.191   5.354   2.843  0.0093 -0.2502 -0.2062
 2520W        W18994   9.497   8.105   3.142 -0.0982  0.2459 -0.0365
 2521W        W18995   9.710   8.467  13.167  0.1839  0.0824 -0.1998
 2522W        W18996  11.059  15.151  12.006 -0.1801 -0.1547  0.2525
 2523W        W18997   8.010   1.856   1.765 -0.0603  0.0797 -0.2890
 2524W        W18998  13.722  12.366   2.492  0.1027  0.3889 -0.2835
 2525W        W18999   2.788   0.595   6.267 -0.1355  0.1845  0.2422
 2526W        W19000   9.975   8.949   2.231 -0.0577 -0.0782 -0.0332
 2527W        W19001   5.769  12.789  12.710  0.1514  0.1536  0.0123
 2528W        W19002   1.427  17.741   3.856  0.1662  0.1423 -0.0995
 2529W        W19003   4.367   9.792   4.847 -0.0241 -0.3099 -0.1125
 2530W        W19004   2.962  11.871   4.001  0.4659 -0.2011 -0.0627
 2531W        W19005  12.750  17.815  14.900 -0.1684  0.3578 -0.2298
 2532W        W19006   0.346  15.976  12.010  0.1208  0.1289 -0.0971
 2533W        W19007   4.424   8.633   4.075 -0.0474  0.0273  0.1122
 2534W        W19008   4.434  17.218   1.739 -0.1708  0.0441 -0.1914
 2535W        W19009  10.582   8.733   4.338 -0.1312 -0.0644  0.1256
 2536W        W19010   0.406  12.698  14.287  0.3305  0.0684  0.1125
 2537W        W19011  11.869  15.813  15.668 -0.0822 -0.0244 -0.1261
 2538W        W19012  16.897   2.344  11.275 -0.0067  0.0640 -0.0647
 2539W        W19013   0.653  17.506   0.810 -0.1326 -0.1527 -0.0168
 2540W        W19014   2.678   4.382  13.357  0.0794  0.0084  0.0029
 2541W        W19015  11.984   1.048  12.229  0.1574  0.2278  0.5094
 2542W        W19016  15.800   3.677  11.372  0.2200  0.2168 -0.1028
 2543W        W19017   9.131   2.097  16.324  0.2341  0.2789 -0.1017
 2544W        W19018  18.337  17.099   1.233 -0.2564  0.0366  0.0116
 2545W        W19019  13.138   7.565   4.622 -0.0529  0.1203  0.0830
 2546W        W19020   9.389   8.475  12.205 -0.1009  0.0959  0.3709
 2547W        W19021   3.593   4.655  11.650 -0.0644  0.2237  0.0176
 2548W        W19022   0.421   6.949  12.533  0.1110  0.1326 -0.0725
 2549W        W19023   0.666   3.247   5.238  0.3769 -0.0360 -0.0398
 2550W        W19024   4.615   2.343  15.100 -0.0391 -0.1576  0.0004
 2551W        W19025   2.435  10.094  15.546 -0.2129 -0.1816 -0.1316
 2552W        W19026   9.091   8.794  15.161  0.0255 -0.0340  0.1400
 2553W        W19027   8.976   1.546  13.280  0.3244 -0.1974  0.1005
 2554W        W19028   7.063   3.298   5.628  0.1026 -0.0667 -0.1099
 2555W        W19029   0.423   9.678   2.583  0.4386 -0.1098  0.2035
 2556W        W19030   0.032   1.178  14.585  0.0121 -0.2603 -0.1854
 2557W        W19031   6.412  14.747  13.349  0.1220 -0.3310  0.1445
 2558W        W19032   0.639  13.421   5.045 -0.1174 -0.1164  0.1040
 2559W        W19033   5.330  10.970   0.330  0.0255  0.1135  0.0216
 2560W        W19034   4.009  11.774   1.771 -0.0652  0.0008  0.0965
 2561W        W19035  10.391   2.914  13.404  0.1054 -0.3907  0.1615
 2562W        W19036  12.973   7.316  16.131  0.3240 -0.4247  0.0334
 2563W        W19037  17.975   0.505   0.747  0.1590 -0.3321  0.0421
 2564W        W19038   7.658   2.767   4.790  0.1600  0.1490 -0.0260
 2565W        W19039   7.895   8.323  15.542  0.0532 -0.0211  0.2115
 2566W        W19040   6.871   8.210  14.004 -0.2669 -0.2617 -0.0181
 2567W        W19041  11.210  14.682   3.456  0.0119 -0.2097 -0.0983
 2568W        W19042  18.109   6.663   2.853 -0.0195  0.1292  0.2025
 2569W        W19043   2.191   8.031   0.445 -0.2168  0.1299 -0.1593
 2570W        W19044  17.892  17.970   1.457  0.3714  0.0093  0.1890
 2571W        W19045   6.757  13.547   5.347 -0.0273 -0.0175  0.3266
 2572W        W19046  17.292   2.234   0.458  0.1496  0.2283  0.0484
 2573W        W19047   0.165  15.179   0.365  0.0780  0.3973  0.2283
 2574W        W19048   3.560  16.468   2.606 -0.3480  0.1120 -0.0834
 2575W        W19049   7.891   2.377  11.986  0.1004  0.1957 -0.0353
 2576W        W19050  14.006   2.473  15.221 -0.0138 -0.0598 -0.4445
 2577W        W19051   9.263   6.287   3.330 -0.1617  0.0450 -0.0290
 2578W        W19052  13.573  18.150   2.586 -0.2024  0.1024 -0.0900
 2579W        W19053  14.016  16.746  16.090 -0.0406  0.1717 -0.0895
 2580W        W19054   5.544  11.079   6.354 -0.0451  0.2390  0.1279
 2581W        W19055   5.246  10.627  12.877  0.2859 -0.1110 -0.2294
 2582W        W19056   0.944  14.254   5.430 -0.3383  0.1017  0.0243
 2583W        W19057   8.168  13.220   0.477 -0.1297  0.0619 -0.0252
 2584W        W19058   0.228  12.637  12.002 -0.0777  0.1249  0.1211
 2585W        W19059  17.848  15.317   3.539 -0.5192  0.3681  0.3079
 2586W        W19060   6.187  17.443  10.906  0.0500 -0.0166  0.0667
 2587W        W19061  12.066  15.149   5.821  0.3458  0.1357  0.0062
 2588W        W19062   9.002   4.932   1.079 -0.0327  0.2563 -0.0068
 2589W        W19063   1.582   7.064  12.293  0.2902 -0.2438  0.0951
 2590W        W19064   9.408   7.105   2.174 -0.0666  0.1338  0.0220
 2591W        W19065   6.591   0.088   4.489 -0.0458 -0.0346  0.0602
 2592W        W19066   9.114  12.816  11.304  0.0615  0.1353  0.0682
 2593W        W19067   9.956   1.417   5.517  0.4031  0.3319  0.0286
 2594W        W19068   9.304  17.700   5.980  0.1774  0.0586 -0.2058
 2595W        W19069  14.573   7.559  14.887 -0.2280  0.0865  0.1120
 2596W        W19070   7.664   3.528   3.680 -0.0464  0.3141  0.0301
 2597W        W19071   0.549  17.000  13.569  0.1928 -0.1953  0.0269
 2598W        W19072  16.984   3.343   3.637 -0.2558 -0.1880  0.1249
 2599W        W19073  10.922  10.818  15.783  0.1497 -0.0175  0.0163
 2600W        W19074   0.368  17.485  13.429 -0.0709 -0.1695 -0.1568
 2601W        W19075   3.646   6.783  14.691  0.0059  0.0419  0.0582
 2602W        W19076   9.267  15.830   6.237 -0.0617 -0.0436  0.1854
 2603W        W19077   0.390   9.136   1.862  0.0817  0.0292  0.2048
 2604W        W19078  15.042  13.958  14.210 -0.2315 -0.3478 -0.1697
 2605W        W19079   8.850  11.565  13.211  0.0087 -0.2271 -0.1246
 2606W        W19080  12.807  10.538  13.329 -0.1506  0.1597 -0.3642
 2607W        W19081   7.520  12.025   5.012 -0.0126  0.4531 -0.0478
 2608W        W19082   0.501   9.811   0.783 -0.1506 -0.2440 -0.0504
 2609W        W19083  14.086   8.216  13.924  0.0048 -0.1154  0.0553
 2610W        W19084  16.232   5.950   0.667  0.0059  0.0320 -0.1271
 2611W        W19085  11.204   0.357   3.098  0.1637  0.1572  0.2035
 2612W        W19086  14.291   3.991  14.104  0.1134  0.0472  0.1719
 2613W        W19087   6.874   9.087  13.532  0.0703 -0.2931 -0.0238
 2614W        W19088   0.787   0.910  13.669  0.0243 -0.1465 -0.1456
 2615W        W19089   3.679  11.238   3.681  0.0148  0.2563 -0.0021
 2616W        W19090   2.392   5.897   4.457  0.0084 -0.2104  0.4190
 2617W        W19091  18.151   3.509  15.426 -0.2974 -0.1316  0.2996
 2618W        W19092  13.627   9.841  11.828  0.0996 -0.0294  0.1530
 2619W        W19093  13.795   3.158  13.306 -0.1807 -0.2377  0.1307
 2620W        W19094  14.396   0.553  12.422 -0.1331  0.0665 -0.1782
 2621W        W19095  11.174  16.411  12.205 -0.1809 -0.2568 -0.1741
 2622W        W19096   6.470  13.379  11.992 -0.0216 -0.0929 -0.2393
 2623W        W19097  16.074  14.723   5.230  0.1997  0.0030  0.3732
 2624W        W19098   8.376  17.243  14.367  0.0695  0.1768  0.0338
 2625W        W19099  13.463   9.092   4.459 -0.2345 -0.1518 -0.0826
 2626W        W19100   0.971  12.645  14.262 -0.1524  0.0692 -0.2302
 2627W        W19101   5.468   5.768   4.183  0.0995 -0.0561 -0.2388
 2628W        W19102   6.988  12.468   0.545 -0.0264  0.2408 -0.1957
 2629W        W19103   7.832   8.007   2.468  0.0635  0.0692  0.1923
 2630W        W19104  17.258  14.890  15.236 -0.2278  0.2495 -0.3248
 2631W        W19105   9.927  12.354   1.188 -0.1440 -0.0393 -0.2115
 2632W        W19106  18.238   3.253  13.397  0.0877 -0.0254 -0.2851
 2633W        W19107  12.348  13.896   5.290 -0.1042 -0.2457  0.0736
 2634W        W19108   2.514  13.940   4.485 -0.1153  0.0651 -0.0116
 2635W        W19109  15.641   5.854   3.718  0.0561  0.2252 -0.1639
 2636W        W19110  12.753  16.990   0.149  0.1553  0.0055  0.0737
 2637W        W19111   7.670   7.357  13.794  0.0082  0.4049  0.0630
 2638W        W19112  16.643   9.880  14.888 -0.3291  0.0671  0.0987
 2639W        W19113  13.202  14.198  12.882  0.0830  0.0116 -0.0921
 2640W        W19114   1.436  16.361   5.380 -0.3189  0.0698 -0.3302
 2641W        W19115  13.953   6.937  10.660  0.4655 -0.1521 -0.0662
 2642W        W19116   3.016   8.804  15.028  0.0605  0.1803  0.0643
 2643W        W19117   2.095  16.999  14.210 -0.1977  0.1369 -0.0117
 2644W        W19118  11.159   9.569  14.191 -0.2927  0.2616  0.0525
 2645W        W19119  10.592  13.784   3.373  0.0385 -0.3637 -0.1604
 2646W        W19120   5.585  11.506  12.886 -0.2746 -0.2541  0.2133
 2647W        W19121  11.309  18.299   0.759  0.2461  0.0896  0.0001
 2648W        W19122   7.632   9.794   1.280  0.2128 -0.3068 -0.1932
 2649W        W19123   3.831  16.224   0.751  0.0149 -0.1413 -0.1113
 2650W        W19124  13.780   3.940   1.318 -0.3064 -0.1544 -0.1807
 2651W        W19125   1.818   9.763  12.200 -0.0520 -0.0662 -0.0352
 2652W        W19126   8.091   5.870   4.869  0.1953  0.1434 -0.0107
 2653W        W19127   9.466   8.247   0.075  0.2780  0.0231  0.1762
 2654W        W19128   7.609   5.463  14.678  0.2263 -0.1457 -0.1382
 2655W        W19129   2.099   9.560   0.514  0.1928  0.4172  0.0388
 2656W        W19130  13.974   2.485   4.674 -0.4306  0.2687  0.2273
 2657W        W19131   9.170   6.538  11.506  0.0918 -0.1093  0.0830
 2658W        W19132  13.361  10.750   1.716  0.1098  0.3416 -0.0020
 2659W        W19133   2.775   8.794  11.565 -0.2600 -0.1226  0.3154
 2660W        W19134  11.501  13.069   0.051  0.0461 -0.3202  0.0015
 2661W        W19135   8.171  15.882   6.631 -0.2452  0.3393 -0.0665
 2662W        W19136   6.871   8.254  15.069  0.1615  0.2637  0.3127
 2663W        W19137  18.068  12.049   4.108 -0.2517  0.0354  0.3344
 2664W        W19138  13.332  17.696  15.831  0.4540  0.0082 -0.2485
 2665W        W19139   9.649   5.229  13.492 -0.4325 -0.1414  0.0072
 2666W        W19140  11.741  17.665  14.630 -0.0874  0.3750 -0.2673
 2667W        W19141  10.831   5.225  16.073 -0.0489 -0.0767 -0.1389
 2668W        W19142  10.019  12.516  14.393  0.0764 -0.1124  0.0749
 2669W        W19143   3.308   8.689   4.625 -0.3052 -0.0144  0.1705
 2670W        W19144  13.172  17.227   4.620 -0.0306  0.2674 -0.2802
 2671W        W19145  12.997   7.472  10.897  0.2268  0.1452  0.1838
 2672W        W19146  14.689   1.836   4.872 -0.1223  0.2804 -0.2696
 2673W        W19147  17.779   3.233  13.631  0.3569 -0.2828  0.1501
 2674W        W19148   6.838   1.780   2.123 -0.0180  0.2778 -0.0556
 2675W        W19149   8.917   4.592  13.850  0.2705 -0.0206  0.0731
 2676W        W19150  12.506  15.134  14.857  0.3675  0.2800 -0.1727
 2677W        W19151   0.959   4.046  12.520 -0.3393  0.0574  0.3007
 2678W        W19152   6.676   3.295   3.056  0.2005 -0.1882 -0.1880
 2679W        W19153  12.470   8.699  13.743  0.0829  0.1217 -0.1315
 2680W        W19154  10.474  12.453   4.077  0.0094  0.1855  0.0744
 2681W        W19155   7.403  17.205  15.538  0.1126 -0.3273 -0.0451
 2682W        W19156  16.243   6.172  12.610 -0.1845  0.1127 -0.3948
 2683W        W19157   5.245  17.915  13.928  0.0135  0.1188 -0.0523
 2684W        W19158  11.381  14.816  11.691  0.1216 -0.1723 -0.1236
 2685W        W19159   6.386   9.346   0.824  0.0522  0.1521  0.1023
 2686W        W19160  18.112  11.721  14.019 -0.0199  0.1770 -0.5096
 2687W        W19161   1.208   3.824   0.605 -0.0038  0.1156 -0.0551
 2688W        W19162   1.152   7.263  12.542  0.0000  0.1575  0.0822
 2689W        W19163   1.531  15.254   0.316 -0.0489  0.0991  0.1174
 2690W        W19164   3.377  13.684  15.626  0.0646 -0.1745 -0.1281
 2691W        W19165   0.964  17.086   4.421 -0.1380 -0.1936 -0.2826
 2692W        W19166   3.007  12.228   4.358 -0.0374  0.0711 -0.0294
 2693W        W19167   3.877   3.797   1.361  0.0298 -0.0012  0.4008
 2694W        W19168  18.056   7.903   1.666 -0.0742 -0.4957  0.3795
 2695W        W19169  17.413   6.462   3.330  0.1957  0.3380  0.1499
 2696W        W19170  13.714   6.647  13.050 -0.3767  0.0086 -0.0960
 2697W        W19171   8.268  14.020  12.890 -0.0894 -0.0421 -0.2570
 2698W        W19172  13.627  14.945  12.387  0.2373  0.2253  0.1768
 2699W        W19173   2.858   4.750  11.649 -0.0265  0.2666 -0.1065
 2700W        W19174  14.834  10.587  12.206 -0.0600 -0.0005  0.1684
 2701W        W19175   0.807  15.745   4.059 -0.1094 -0.0985 -0.0503
 2702W        W19176  15.212  16.981  14.004 -0.1202  0.0323  0.0411
 2703W        W19177  14.408  16.781  12.812 -0.0957  0.2807  0.1459
 2704W        W19178  13.658   4.042  11.398 -0.1424 -0.0666  0.2533
 2705W        W19179  17.625  15.020  13.986 -0.2320 -0.1860  0.3648
 2706W        W19180   4.508  12.545   2.923  0.1537 -0.0075 -0.5567
 2707W        W19181  17.201   8.465   1.644  0.0054 -0.1327 -0.3438
 2708W        W19182  17.026   4.287   0.873 -0.4003  0.1953  0.0645
 2709W        W19183  16.252   7.031   1.294 -0.2535 -0.0238 -0.1048
 2710W        W19184  16.684  13.406   1.349  0.4022  0.3440 -0.2729
 2711W        W19185   6.573  11.687  15.022 -0.0097 -0.2035  0.2741
 2712W        W19186  13.571   5.201   2.127 -0.1054 -0.1968 -0.1109
 2713W        W19187  14.781  15.622  12.026 -0.0652  0.0288  0.0234
 2714W        W19188   3.479   2.020   4.712  0.1175 -0.0333 -0.0182
 2715W        W19189   3.779   1.496  12.653  0.0973 -0.1160 -0.3620
 2716W        W19190  13.203  15.930  12.020  0.0015 -0.1297 -0.0884
 2717W        W19191   1.552   1.247  11.998 -0.4218  0.2323  0.0750
 2718W        W19192  13.681   1.395   5.711  0.1835  0.0593  0.0564
 2719W        W19193  11.510   0.381   0.094 -0.2054 -0.3245 -0.2329
 2720W        W19194   2.071   2.337  13.136  0.1259 -0.2085  0.0525
 2721W        W19195  14.848   8.717  15.804  0.2494 -0.0003 -0.0891
 2722W        W19196   8.556   7.614   4.835  0.1964 -0.0640 -0.0178
 2723W        W19197   6.144  17.451   3.133  0.0934  0.1787 -0.1023
 2724W        W19198  16.659   7.047  12.528 -0.0650  0.1205  0.2210
 2725W        W19199   4.801  18.054   0.756  0.0553  0.5011  0.0270
 2726W        W19200  17.699  14.837  12.031 -0.0189  0.0232 -0.1665
 2727W        W19201   3.089  10.466  12.084 -0.0165 -0.1570 -0.0722
 2728W        W19202   1.155   4.070   4.148 -0.2888  0.0597 -0.1205
 2729W        W19203  17.078   3.707  12.246  0.1290 -0.0222 -0.3397
 2730W        W19204   3.332  10.823  11.524 -0.2208 -0.2810  0.1495
 2731W        W19205  15.031   2.337   2.269 -0.2908 -0.1808 -0.0503
 2732W        W19206   2.737   4.895  12.213 -0.2022 -0.0685 -0.0078
 2733W        W19207  14.500  15.640  11.017 -0.1588 -0.1759 -0.0729
 2734W        W19208  17.731   5.992  14.699 -0.1717 -0.0078  0.1666
 2735W        W19209   0.389   2.036   4.057 -0.0737  0.2834  0.0329
 2736W        W19210   9.755  10.403  11.917  0.3296 -0.0900 -0.0394
 2737W        W19211  12.593  12.343   4.983 -0.0048 -0.2652  0.1025
 2738W        W19212   9.505  10.194   2.863 -0.0057  0.0351  0.2058
 2739W        W19213   9.716  15.695   3.360 -0.2895 -0.0387  0.0562
 2740W        W19214   1.882   6.018   4.359 -0.1535 -0.2318  0.1476
 2741W        W19215  17.383   1.310   3.345 -0.0184 -0.4340  0.3024
 2742W        W19216   4.166   3.709  13.632  0.0308  0.0885 -0.1054
 2743W        W19217   3.306   8.381  13.151  0.0174 -0.2934  0.1354
 2744W        W19218   3.846   8.097  11.616 -0.0088  0.1771 -0.4678
 2745W        W19219  18.130   5.391   3.550  0.1594 -0.0005  0.0373
 2746W        W19220  14.175  12.490   0.599 -0.3708  0.3353  0.0985
 2747W        W19221   9.379   6.169  13.116 -0.3151  0.0387 -0.2872
 2748W        W19222   7.589  13.956  11.535  0.0432  0.0520 -0.0921
 2749W        W19223  17.639  12.101   1.539  0.2670 -0.2323  0.0563
 2750W        W19224   4.718  14.734   2.872 -0.0925  0.1178 -0.2104
 2751W        W19225   6.482   1.355   3.305 -0.0802 -0.0125 -0.1915
 2752W        W19226  16.236  13.214   4.229 -0.0651 -0.1410 -0.0979
 2753W        W19227   4.376   2.860   2.911  0.1519 -0.1768  0.0844
 2754W        W19228  13.751   9.140  10.450 -0.4295  0.1828  0.2673
 2755W        W19229   8.370  11.033  11.316  0.1913  0.1207  0.1230
 2756W        W19230  14.960   0.358   0.467  0.3713  0.3292 -0.1579
 2757W        W19231   4.213  11.262   3.992  0.0037  0.1482 -0.0212
 2758W        W19232   2.237   7.607   4.304  0.0152 -0.3342 -0.0108
 2759W        W19233  11.710  12.026   4.511 -0.1276 -0.2025  0.1990
 2760W        W19234   9.292   6.063   1.867  0.3703  0.1196 -0.3221
 2761W        W19235  11.471   8.645  10.627 -0.0860 -0.1122  0.0386
 2762W        W19236   6.035  17.761   0.505  0.0606  0.2477 -0.0069
 2763W        W19237  14.079   1.516  12.917 -0.0843 -0.0837  0.1257
 2764W        W19238   1.413  11.786  16.018 -0.1019  0.0653  0.0143
 2765W        W19239   2.759   9.655   4.740 -0.1676  0.0739  0.1482
 2766W        W19240  16.266   2.986   2.002  0.1566 -0.0461  0.0674
 2767W        W19241  14.916   0.419  15.915  0.0563  0.0407 -0.3430
 2768W        W19242   9.448   0.577   4.668  0.2458 -0.1079  0.0569
 2769W        W19243  16.693   5.517  15.704  0.0742 -0.0062  0.2380
 2770W        W19244  17.558  15.545  13.672  0.0237  0.0444  0.1968
 2771W        W19245   2.049   3.365  12.850 -0.0663  0.2520  0.0127
 2772W        W19246  17.310   9.378   4.244  0.2025  0.0008  0.0393
 2773W        W19247   4.168   4.394  16.103 -0.2676 -0.1597  0.1322
 2774W        W19248   1.274  16.765   0.668 -0.4126 -0.0201 -0.0418
 2775W        W19249   0.659   2.600  13.428  0.0728 -0.1968  0.0133
 2776W        W19250   6.557  17.680   1.969 -0.1937  0.1639 -0.0035
 2777W        W19251  12.256   3.271   3.383  0.1030 -0.2243  0.0481
 2778W        W19252   3.010   2.887  15.265 -0.1632  0.1601  0.3109
 2779W        W19253   3.962  12.933   5.042 -0.0606  0.2265 -0.3731
 2780W        W19254   8.285   6.037  13.500 -0.0075  0.4801  0.0433
 2781W        W19255  11.153  12.560   2.218 -0.1370  0.1216  0.4372
 2782W        W19256  17.085   5.538  12.387 -0.0811  0.1089  0.0133
 2783W        W19257   0.572   8.835  11.782 -0.1305  0.0402 -0.3737
 2784W        W19258   8.083  12.381   2.081 -0.1922  0.0984  0.2612
 2785W        W19259  12.860  11.307  16.291  0.1600 -0.0213  0.1554
 2786W        W19260   6.624  14.832   1.349 -0.0223 -0.1344 -0.1986
 2787W        W19261  11.879  12.267   0.247 -0.0606 -0.0449 -0.1893
 2788W        W19262   0.607  14.642   3.154 -0.1722 -0.1635 -0.0324
 2789W        W19263   1.433   4.728   0.341 -0.0928 -0.1027  0.3689
 2790W        W19264  17.243  16.253   2.599  0.2763  0.1137  0.0796
 2791W        W19265  17.647  15.544   0.577 -0.2366  0.0113 -0.1175
 2792W        W19266  16.927  12.171   4.799 -0.0063  0.2353 -0.1652
 2793W        W19267   2.187   0.621  15.037 -0.1171  0.1066  0.0962
 2794W        W19268  10.738   1.472  11.773 -0.2549  0.0429 -0.1689
 2795W        W19269  14.006  11.144   3.803  0.0312 -0.1362  0.1320
 2796W        W19270  13.507   3.080  10.965  0.1146 -0.2863 -0.1669
 2797W        W19271   8.354  10.202   3.694  0.0676 -0.3433  0.3213
 2798W        W19272   7.234   0.338  15.721 -0.0438 -0.0398 -0.0671
 2799W        W19273  13.631   4.006  10.859  0.2555  0.0181  0.2423
 2800W        W19274   4.048   7.686  11.897 -0.2175 -0.1450  0.0672
 2801W        W19275  18.086   9.669   3.364  0.2390  0.3029 -0.0263
 2802W        W19276  12.552   6.685  15.831  0.2814 -0.0564 -0.2073
 2803W        W19277  14.910  12.301  16.313 -0.1196  0.1166 -0.0839
 2804W        W19278   0.716   3.445  12.626 -0.2292 -0.1613 -0.1148
 2805W        W19279  15.403   0.152   4.871 -0.0898 -0.0390 -0.2331
 2806W        W19280   5.996  16.460   4.993  0.0326  0.0088  0.0618
 2807W        W19281   9.589   7.073  11.932  0.0037  0.2176  0.0946
 2808W        W19282   5.826  14.742   0.696  0.3714  0.1358  0.0659
 2809W        W19283   3.890   2.050  12.858  0.2486 -0.0678 -0.2779
 2810W        W19284  11.741   7.652   1.337  0.1547 -0.3158 -0.0254
 2811W        W19285  14.555   4.548  12.356 -0.0694  0.2332 -0.0311
 2812W        W19286  13.102   2.301   4.654  0.1803  0.1816  0.1263
 2813W        W19287   9.113  13.009   4.148 -0.1047  0.0463  0.1408
 2814W        W19288   9.400   6.210   2.800 -0.2513 -0.2568  0.3672
 2815W        W19289   7.627   3.802  11.075 -0.2733 -0.0254  0.1845
 2816W        W19290  14.258  17.219   3.993  0.2924 -0.2619 -0.1310
 2817W        W19291  17.150   2.163  13.024 -0.1288  0.3059 -0.1023
 2818W        W19292  18.351  13.982   5.276  0.0533 -0.0119 -0.0504
 2819W        W19293  13.670   4.590   1.999 -0.1864 -0.0984 -0.0333
 2820W        W19294  17.713   0.860   5.131 -0.0475  0.0673  0.0309
 2821W        W19295  10.332  15.369   0.489  0.1910  0.2224 -0.0786
 2822W        W19296  17.602  10.290   4.497  0.4660 -0.5289 -0.0925
 2823W        W19297  18.031   0.357  14.285  0.0178 -0.2365  0.0437
 2824W        W19298   3.500  10.898  13.767 -0.1062 -0.1459  0.0269
 2825W        W19299  15.950  18.224   2.326 -0.0914  0.1300  0.1372
 2826W        W19300  12.926   6.379  15.859 -0.1869 -0.0621 -0.0822
 2827W        W19301   7.500   2.998  13.975 -0.0144  0.0943 -0.2791
 2828W        W19302  18.142  18.269   2.949 -0.1400 -0.0907  0.2728
 2829W        W19303  10.464   0.639   1.283  0.0683 -0.1581 -0.1317
 2830W        W19304  17.548   4.958  12.105  0.0610  0.0404  0.0991
 2831W        W19305   5.287   7.959   3.485  0.1157 -0.1854  0.4482
 2832W        W19306  16.447  11.013   2.299 -0.1371  0.0279 -0.3234
 2833W        W19307   3.699   9.047  13.803  0.0086 -0.2454 -0.1829
 2834W        W19308   5.915  10.068  13.440 -0.1360  0.1245 -0.5619
 2835W        W19309  15.061   1.762   4.486  0.0698  0.0332  0.2091
 2836W        W19310  11.899  17.713   4.341 -0.1003 -0.0295  0.2927
 2837W        W19311  16.770   1.618  15.376  0.1428  0.1772 -0.1776
 2838W        W19312  10.821  17.669   3.744  0.0145  0.0231  0.1925
 2839W        W19313   7.934   3.765   5.327 -0.2097 -0.1657 -0.1641
 2840W        W19314  15.768   1.491  11.354 -0.0294  0.1154 -0.0460
 2841W        W19315   3.911   0.837   4.764  0.1046  0.0875  0.1598
 2842W        W19316   9.899  17.761   0.792  0.3459  0.1817 -0.1982
 2843W        W19317   3.316  12.961   5.849 -0.2099 -0.3872  0.3118
 2844W        W19318  14.801   3.404  16.136  0.1323 -0.0076  0.1756
 2845W        W19319  17.293  10.968   2.902  0.2594 -0.0466  0.1711
 2846W        W19320   1.408  15.952   6.307  0.1429 -0.1172  0.2073
 2847W        W19321  12.655   5.518   2.384 -0.1160 -0.1953 -0.1602
 2848W        W19322   5.946   3.289   5.131 -0.1315  0.0878  0.5597
 2849W        W19323  10.171  10.394   1.157  0.3299  0.1673 -0.3433
 2850W        W19324  10.836  14.196   2.730  0.3159  0.1075  0.2491
 2851W        W19325  11.684   1.468  11.464 -0.4171 -0.0305 -0.1150
 2852W        W19326  18.164   5.445  11.408 -0.1980  0.1032 -0.1740
 2853W        W19327  12.781  14.591  13.047 -0.2571 -0.4297  0.2224
 2854W        W19328  16.603   2.973   0.302 -0.0664  0.0196 -0.0474
 2855W        W19329   8.956  17.655   3.072 -0.2181 -0.0717  0.1189
 2856W        W19330  12.568   4.415   3.862 -0.1220  0.1883  0.3047
 2857W        W19331   9.257   3.984  11.356 -0.0073  0.3476  0.2724
 2858W        W19332  16.887  11.618   3.128 -0.0213  0.0598 -0.0580
 2859W        W19333   7.850   7.285   3.507 -0.6210  0.3495 -0.1790
 2860W        W19334   0.101  15.297   0.840  0.0654  0.1778  0.2753
 2861W        W19335   8.574  16.598   3.130 -0.1316  0.3797  0.2964
 2862W        W19336   0.349  13.347   0.216 -0.3412 -0.1679 -0.0711
 2863W        W19337  13.496   1.586   0.555 -0.0176 -0.0189  0.1857
 2864W        W19338  18.269   4.347  15.388  0.1575 -0.0601 -0.1275
 2865W        W19339   4.842  12.914   2.808 -0.0576 -0.0264  0.2894
 2866W        W19340  10.425   4.181  13.739  0.0506  0.2618  0.2844
 2867W        W19341   8.167   7.468   2.051 -0.0833  0.3154  0.0259
 2868W        W19342  14.630  15.985  13.393  0.0313  0.1157  0.1777
 2869W        W19343   5.161   7.441   3.119 -0.1407 -0.2001  0.2839
 2870W        W19344   9.449  11.595  15.381  0.2129 -0.0519 -0.0334
 2871W        W19345   1.123   4.094  15.955 -0.3992 -0.0171  0.0368
 2872W        W19346   6.188   2.240  12.894  0.0125  0.2053 -0.1086
 2873W        W19347   6.498   9.559  13.014  0.2866 -0.1869  0.2496
 2874W        W19348  12.809   4.057   4.589 -0.2533 -0.0447  0.3379
 2875W        W19349   5.587  13.007   0.432 -0.0797 -0.2133 -0.0332
 2876W        W19350   7.340   7.984  14.924 -0.0732  0.2470  0.0365
 2877W        W19351   0.492  12.948  14.883 -0.1094  0.1306  0.2946
 2878W        W19352   1.469  10.817  14.732  0.0012  0.1888  0.0206
 2879W        W19353  13.255  15.241   3.693  0.4423  0.0437  0.0684
 2880W        W19354   2.579  17.858   3.243 -0.0589 -0.0032 -0.0117
 2881W        W19355  13.771  10.207  11.505 -0.2411  0.2629 -0.0748
 2882W        W19356  14.431  13.401   1.341  0.0418  0.0669 -0.1591
 2883W        W19357  11.307   8.119   0.558 -0.0435  0.0027  0.0136
 2884W        W19358   5.997   1.709   1.739  0.0036 -0.6514  0.0130
 2885W        W19359  17.158  17.854   2.830 -0.3308  0.0284 -0.0955
 2886W        W19360  15.821   4.009  11.786 -0.0268  0.1124 -0.1078
 2887W        W19361   0.142  15.307  13.546  0.1594 -0.0348  0.3649
 2888W        W19362  17.536  18.224   3.543 -0.1934  0.0843 -0.1820
 2889W        W19363  16.032  17.514   3.425 -0.2245  0.3983 -0.2828
 2890W        W19364  13.751  17.343  10.989 -0.0510 -0.2281  0.1627
 2891W        W19365   4.247  18.278   0.709  0.3050  0.0580  0.0200
 2892W        W19366  14.307  14.985   5.509  0.2352 -0.1171 -0.0989
 2893W        W19367  16.192  14.632  13.306 -0.3315 -0.0754  0.0061
 2894W        W19368   7.426   8.322  11.292  0.0409  0.1593 -0.3017
 2895W        W19369   4.097  14.827  11.994  0.0911  0.2806  0.2907
 2896W        W19370  14.237  16.586   4.285 -0.0627 -0.1103 -0.1030
 2897W        W19371  11.912   8.195   0.523  0.4052 -0.2104  0.0768
 2898W        W19372   3.808  13.525  13.806 -0.1174  0.0965 -0.1258
 2899W        W19373  13.146   3.766   3.711  0.0791 -0.1035  0.2931
 2900W        W19374   5.488   8.235  15.906 -0.0736 -0.0034 -0.0060
 2901W        W19375   1.128  10.663  15.071 -0.0394 -0.0031  0.3256
 2902W        W19376   7.573   7.002   9.756 -0.4156  0.1503 -0.1749
 2903W        W19377   1.382  13.498  14.620 -0.1507  0.1343  0.1006
 2904W        W19378   0.560   1.960   5.200  0.0524 -0.1094 -0.0912
 2905W        W19379   9.108   0.454   2.466 -0.1471  0.2994  0.1128
 2906W        W19380  15.072  17.769   2.028  0.0771  0.1876  0.0913
 2907W        W19381  16.437   6.661   3.630 -0.0669 -0.0780  0.0706
 2908W        W19382  16.143   0.740   0.523  0.0172  0.0032  0.3183
 2909W        W19383   1.748  17.793   1.474 -0.1232 -0.0795  0.0745
 2910W        W19384   6.782  15.575  13.286 -0.2167  0.3040  0.0679
 2911W        W19385  12.949  11.026   5.170 -0.0056  0.0011  0.2670
 2912W        W19386  14.633  11.501  12.643  0.1913 -0.1901 -0.0819
 2913W        W19387   6.598  17.853   5.224  0.1616  0.0965 -0.2626
 2914W        W19388   2.444   4.007  15.792  0.2561 -0.0781  0.2724
 2915W        W19389  15.172   4.985   1.368  0.1876  0.0134  0.0582
 2916W        W19390   0.976  16.577   3.897  0.0443 -0.0724 -0.0325
 2917W        W19391  12.873  12.848  15.347  0.0796 -0.5878 -0.3271
 2918W        W19392  11.420  11.796   4.068 -0.1976 -0.1361 -0.1352
 2919W        W19393  11.389   6.097   2.278  0.0101  0.2259 -0.0356
 2920W        W19394  13.120  15.008   5.546 -0.0158  0.1098  0.1775
 2921W        W19395   3.841   2.207   5.975  0.1940  0.3582 -0.1325
 2922W        W19396   6.840  11.407  12.147 -0.1642 -0.0670  0.0850
 2923W        W19397   0.622  10.571  15.872 -0.3527  0.0306 -0.0798
 2924W        W19398  17.163   1.548  12.238 -0.0508  0.1399 -0.2221
 2925W        W19399  10.902   6.367  12.388  0.2305  0.2226  0.0766
 2926W        W19400  13.970   1.616   1.554  0.1430 -0.5129 -0.0127
 2927W        W19401  12.258   7.613   3.027 -0.0958  0.0999 -0.2640
 2928W        W19402  10.948   2.504   0.870  0.1126 -0.2000  0.3200
 2929W        W19403  11.861   5.444   4.129 -0.2516 -0.1975  0.0805
 2930W        W19404   7.323  13.196   3.559 -0.2004 -0.3283 -0.0664
 2931W        W19405  10.449  11.097   3.062  0.1226 -0.2234 -0.2334
 2932W        W19406   9.381  16.638   0.854 -0.2750  0.1624 -0.2007
 2933W        W19407  14.316   7.122  15.111 -0.3159 -0.0042 -0.1225
 2934W        W19408   4.340  17.444   1.232 -0.1683 -0.1648  0.2022
 2935W        W19409  13.581  15.046  13.151  0.0559 -0.0941 -0.1420
 2936W        W19410   4.190   0.903  12.064 -0.1712  0.1222 -0.1043
 2937W        W19411  14.483  17.102   1.521  0.0524  0.0912  0.0785
 2938W        W19412   3.293  12.108   2.217 -0.0999  0.1984  0.0934
 2939W        W19413   2.053  16.715   0.490 -0.1114 -0.0060  0.3001
 2940W        W19414  11.245   5.074  14.045 -0.1033  0.2473  0.0980
 2941W        W19415  13.299   0.059   2.238  0.0159 -0.1006 -0.0461
 2942W        W19416   5.246  16.837   3.792 -0.2862  0.0607  0.1726
 2943W        W19417   9.684   1.380  14.627 -0.1578 -0.0951  0.2800
 2944W        W19418   1.816   2.845  16.211 -0.2012  0.0398  0.0147
 2945W        W19419   8.083   8.291   2.792 -0.0107 -0.1787 -0.0891
 2946W        W19420  14.297  17.459   3.104 -0.4431  0.3014 -0.0694
 2947W        W19421  18.185   1.801   2.640 -0.0167  0.2146  0.3298
 2948W        W19422   9.650   1.690  13.738  0.0557 -0.1764  0.1543
 2949W        W19423  17.194   4.377   2.196  0.0212 -0.4242  0.2199
 2950W        W19424   9.830   0.038   2.971 -0.0828  0.1605 -0.1206
 2951W        W19425   2.097   9.069   1.318  0.1723 -0.0635  0.2032
 2952W        W19426  13.853   0.470  12.135 -0.0519 -0.2119 -0.2501
 2953W        W19427   7.035  11.846   3.493 -0.1452 -0.1878  0.1082
 2954W        W19428   3.497   2.080   0.565  0.2668 -0.2012 -0.2235
 2955W        W19429   4.657   8.520  12.957 -0.1413 -0.0069 -0.2222
 2956W        W19430   8.816  16.260   5.121  0.0935  0.3157  0.2239
 2957W        W19431  11.855   4.936   4.179  0.0721 -0.0757 -0.2660
 2958W        W19432   9.612  16.736   4.907 -0.1431 -0.1598 -0.1028
 2959W        W19433  15.629   1.166   3.907  0.0370 -0.0138 -0.0603
 2960W        W19434  11.684   9.023  13.273  0.0792 -0.0870 -0.0309
 2961W        W19435  10.448  17.225  15.401 -0.0393  0.0479  0.3149
 2962W        W19436   3.876   7.674  14.844  0.1677  0.0251 -0.0528
 2963W        W19437  10.977  15.921  11.415 -0.1836 -0.2287 -0.1187
 2964W        W19438  13.164   0.154  11.951 -0.0846  0.0702  0.1869
 2965W        W19439  15.852   4.533   0.158  0.1764 -0.0766 -0.0050
 2966W        W19440  14.809   4.014   3.142  0.1572  0.1565  0.0528
 2967W        W19441  15.066   5.823   3.057 -0.1988 -0.0368  0.2184
 2968W        W19442   6.946   9.110  11.776 -0.2454 -0.2481 -0.3064
 2969W        W19443  17.637  17.223   4.021  0.0548 -0.0348  0.2681
 2970W        W19444  14.827   5.433  12.106 -0.0444 -0.1067 -0.2363
 2971W        W19445   1.018   8.229  13.350 -0.4919 -0.1865 -0.0061
 2972W        W19446  16.600   1.133  16.341  0.2806 -0.1667 -0.3651
 2973W        W19447   0.924   0.799   2.203  0.0343 -0.0688  0.3809
 2974W        W19448   2.082   4.849   4.418 -0.0849  0.0469  0.1007
 2975W        W19449  18.212   8.403   3.453  0.3018  0.0653  0.1281
 2976W        W19450   7.744   1.419   2.413 -0.0849  0.1528  0.0204
 2977W        W19451   9.188  11.637   5.590  0.1374  0.0266 -0.0101
 2978W        W19452   1.183   8.704  11.243 -0.1360 -0.1640 -0.1542
 2979W        W19453   3.361  10.405   1.744 -0.2748  0.2619 -0.1616
 2980W        W19454   7.305   8.765   4.053 -0.1171  0.2629  0.2140
 2981W        W19455   6.484   8.261  15.448  0.0539  0.1140  0.1412
 2982W        W19456   2.483   0.212   2.716  0.0182  0.1719  0.1941
 2983W        W19457  14.958  11.211   0.714 -0.3614  0.0740 -0.1149
 2984W        W19458   7.684  14.694  14.608 -0.0386  0.2150  0.4005
 2985W        W19459  14.438  10.279   3.620 -0.0544  0.0939 -0.2768
 2986W        W19460  17.601   3.689   3.058 -0.1263  0.1065  0.0389
 2987W        W19461   3.602   1.541  15.782  0.1216  0.1119  0.0845
 2988W        W19462   9.878   0.235  15.993 -0.0483 -0.0297 -0.3140
 2989W        W19463   6.178   4.235   5.253  0.0964 -0.1101  0.1438
 2990W        W19464  16.183   0.268  13.032 -0.0427 -0.0748  0.2736
 2991W        W19465  13.063   2.312   0.201 -0.2205  0.2141  0.1406
 2992W        W19466   0.783  16.230  12.434 -0.0790  0.0646 -0.1325
 2993W        W19467  14.169   0.859  11.225 -0.1197 -0.2682  0.0157
 2994W        W19468  18.361   6.605  13.317  0.1257 -0.1535 -0.0747
 2995W        W19469  18.222   2.166   4.441 -0.0964  0.0011 -0.0765
 2996W        W19470  11.883   0.386  11.407  0.0889 -0.0788  0.1939
 2997W        W19471   1.807  17.510  12.310 -0.2900 -0.2965  0.2916
 2998W        W19472   1.929   2.927  13.099 -0.0706 -0.1858 -0.0810
 2999W        W19473  16.328  11.780   1.191 -0.2395  0.1051 -0.2381
 3000W        W19474   5.171  11.876  11.680  0.1317 -0.1536  0.0217
 3001W        W19475   7.027  13.079   1.783 -0.0780 -0.1458 -0.0264
 3002W        W19476   9.317  16.629   1.461 -0.3591 -0.4170  0.0385
 3003W        W19477  17.738   9.503  14.571  0.3328  0.2870 -0.2448
 3004W        W19478  10.057   7.872  13.781 -0.1068  0.0129  0.2102
 3005W        W19479   0.984  10.167  12.009  0.2542  0.2073 -0.2983
 3006W        W19480   5.831   8.984  12.025 -0.1561  0.2498 -0.1783
 3007W        W19481  10.537   2.473   0.618  0.0596  0.2947 -0.4861
 3008W        W19482   3.916   2.235   4.970  0.2301  0.1753 -0.2936
 3009W        W19483  13.963  16.872   4.618 -0.1298  0.4444  0.0530
 3010W        W19484   9.989   4.886   3.205 -0.2285  0.2329  0.1722
 3011W        W19485   6.607  12.027  13.594  0.1970 -0.2596 -0.2601
 3012W        W19486   6.567  17.486   4.361  0.1574 -0.4354 -0.0512
 3013W        W19487   7.279  11.285   4.461  0.0469  0.0692 -0.0794
 3014W        W19488  12.208  12.805  11.895 -0.2014  0.2587  0.4856
 3015W        W19489  13.304  10.698   1.159  0.2023 -0.2025  0.1932
 3016W        W19490   1.882  17.229   0.212  0.0990 -0.2820  0.1564
 3017W        W19491   1.403   5.416   2.760  0.0278  0.1176 -0.1724
 3018W        W19492   5.020  15.534   6.296  0.1164 -0.1624  0.2039
 3019W        W19493  14.175   1.413  14.000  0.0660  0.1547  0.1126
 3020W        W19494   0.401   5.189  15.146  0.0118  0.0516  0.2146
 3021W        W19495  15.514   2.304  14.904 -0.2738 -0.1018  0.0346
 3022W        W19496   0.479   2.533  11.487 -0.2602 -0.1099  0.3523
 3023W        W19497   9.251  13.174  11.564 -0.1871 -0.1814  0.0362
 3024W        W19498  15.945   4.191   1.588  0.2672  0.1634  0.1153
 3025W        W19499   8.740  11.073   2.333 -0.2587  0.2843  0.2323
 3026W        W19500  12.269  14.878   1.911 -0.1223  0.0637  0.2616
 3027W        W19501   4.479   9.211   0.039 -0.3337 -0.0778 -0.2274
 3028W        W19502  10.850   3.696   4.788 -0.3878  0.0357  0.0131
 3029W        W19503   1.710   5.000  14.559 -0.1397 -0.0484 -0.1947
 3030W        W19504   9.724  16.682   0.398  0.0037 -0.1313  0.0399
 3031W        W19505  13.332   5.050  14.680 -0.1798 -0.0765  0.1372
 3032W        W19506  14.290   0.370   1.976  0.0888 -0.2017 -0.1684
 3033W        W19507  10.194   7.258   0.089  0.4321 -0.0120 -0.0410
 3034W        W19508   5.956  15.427   4.231  0.1599 -0.1539  0.0723
 3035W        W19509   8.592  11.755   4.438 -0.0852 -0.0576  0.0838
 3036W        W19510  13.984  13.664   5.686 -0.0508  0.1094  0.1494
 3037W        W19511  13.398   6.786  12.709 -0.2177 -0.0296 -0.0796
 3038W        W19512   1.400   2.610   0.044 -0.1198  0.0120 -0.0697
 3039W        W19513  16.810   3.214  13.024 -0.3797 -0.0863 -0.0686
 3040W        W19514  17.354  17.941   3.926  0.3220 -0.3028 -0.2424
 3041W        W19515  18.081   6.070  12.032 -0.0870 -0.1707 -0.1240
 3042W        W19516   7.391  10.201   0.813  0.0933  0.2126 -0.3558
 3043W        W19517   9.211   4.509  13.368  0.2743 -0.1091 -0.1794
 3044W        W19518  14.687  13.141  12.622  0.1721  0.0722  0.1409
 3045W        W19519  13.749   1.615  11.275  0.3554  0.0921 -0.4679
 3046W        W19520  14.155   5.934  13.408  0.2666  0.1603  0.1983
 3047W        W19521  13.870  15.825   3.269 -0.1409 -0.0543  0.0202
 3048W        W19522   5.074   9.227  13.913  0.0532  0.1222 -0.3137
 3049W        W19523  13.790   3.894  13.998  0.1543  0.1554 -0.0179
 3050W        W19524   1.111   9.472  13.628  0.1067  0.1192  0.3640
 3051W        W19525   8.687  14.833   5.639  0.0478 -0.0449  0.1095
 3052W        W19526   8.091  11.330  16.083  0.1117 -0.0717 -0.1056
 3053W        W19527   9.389  15.268   0.741  0.0589 -0.0188 -0.2854
 3054W        W19528   3.015  13.834   0.270  0.2413  0.1532  0.1846
 3055W        W19529  15.552  16.360  14.622 -0.2851  0.0380  0.0076
 3056W        W19530   7.806  11.636   1.136  0.2472  0.0525 -0.2509
 3057W        W19531  16.530   1.578   0.234 -0.1465  0.1422 -0.1507
 3058W        W19532   8.124   4.320  12.067  0.1511 -0.0933  0.0587
 3059W        W19533   8.983  17.484   5.081  0.1957 -0.0793  0.0751
 3060W        W19534  18.271   8.341  14.865 -0.0920  0.1159  0.1545
 3061W        W19535   3.107   2.043  15.250 -0.0006 -0.1536  0.0307
 3062W        W19536   0.793  16.317  14.293  0.0658  0.2413 -0.0411
 3063W        W19537   7.166  17.976   0.787  0.2329 -0.0194  0.0370
 3064W        W19538  12.468   6.555  15.365  0.3588 -0.0161 -0.2670
 3065W        W19539   6.168  17.166  12.697 -0.2014  0.2299  0.1051
 3066W        W19540  10.592  14.858   2.053 -0.1039  0.1101  0.0507
 3067W        W19541  17.423   0.462   5.104  0.2006 -0.0836 -0.2837
 3068W        W19542  14.712  18.053  15.137 -0.2742 -0.2745  0.0950
 3069W        W19543   4.572   9.200   0.967  0.1052  0.0010 -0.2295
 3070W        W19544   9.370  17.159   5.104  0.0230  0.0168  0.0886
 3071W        W19545  12.096   4.092  12.338 -0.4202  0.1125 -0.0582
 3072W        W19546   6.728  12.752   3.995  0.1447  0.1942 -0.0338
 3073W        W19547  11.539   3.466  11.825  0.2864  0.2080  0.0603
 3074W        W19548   9.672   0.132   1.075  0.3226 -0.0742 -0.1847
 3075W        W19549   5.205   0.472  15.000  0.1306  0.2572 -0.0009
 3076W        W19550  16.037  11.363   0.466 -0.2359 -0.1264 -0.0499
 3077W        W19551   7.201  13.866   4.359  0.2221 -0.1305  0.1090
 3078W        W19552  10.346  16.629   1.560 -0.1440  0.2707 -0.1521
 3079W        W19553   5.375   2.315  13.774 -0.3100 -0.2952  0.1287
 3080W        W19554   8.574   3.515   0.173  0.1272  0.2146 -0.1963
 3081W        W19555   7.127  16.294  13.353 -0.0066 -0.0699 -0.1801
 3082W        W19556   3.293   2.864   4.849 -0.1011 -0.0145 -0.1368
 3083W        W19557   0.189  17.338   2.337  0.0462 -0.0228  0.1965
 3084W        W19558   9.406  14.879   1.087  0.1429  0.2898 -0.5000
 3085W        W19559  10.978  12.090  12.450 -0.1114 -0.1089  0.3765
 3086W        W19560   6.819   6.102   2.477 -0.0171  0.1609 -0.1015
 3087W        W19561   5.734   7.836  11.030  0.1744  0.0305 -0.0343
 3088W        W19562  16.295   7.529  11.930  0.1665  0.1143 -0.1317
 3089W        W19563  14.596  16.698   3.802  0.4282 -0.1778  0.1011
 3090W        W19564  18.202   1.536   5.799 -0.1223  0.2031  0.0568
 3091W        W19565   2.381  16.143  15.709  0.0666  0.0552 -0.0719
 3092W        W19566   1.362  11.939   4.146  0.1693  0.2841  0.0739
 3093W        W19567   9.285   5.089  15.641 -0.3819  0.1079 -0.0470
 3094W        W19568   0.383   6.371   4.797  0.1766  0.1686 -0.3481
 3095W        W19569  16.775  17.146  14.248  0.1132  0.3708  0.3504
 3096W        W19570  14.905  13.394   3.624  0.0779  0.0179  0.1800
 3097W        W19571   7.948  12.126  16.213  0.0128 -0.1559  0.1700
 3098W        W19572  17.765  12.796  11.822 -0.1195 -0.0399 -0.0533
 3099W        W19573  10.655   5.431   3.554 -0.0993  0.2660  0.1804
 3100W        W19574  12.458   7.205   4.439  0.0657  0.0476  0.0172
 3101W        W19575  17.861  11.203  15.503  0.0688  0.2336 -0.1034
 3102W        W19576  16.271   6.732  15.519 -0.0101 -0.1444 -0.1713
 3103W        W19577   2.288   3.960  14.320  0.0455  0.1989  0.1969
 3104W        W19578   9.742  16.432  16.286 -0.0940 -0.1166 -0.0952
 3105W        W19579   8.431   0.962  15.062 -0.0767  0.1512  0.1522
 3106W        W19580   1.281  16.777  15.670  0.0643  0.0204  0.0209
 3107W        W19581   7.596   8.967   3.294  0.0404  0.2670 -0.0697
 3108W        W19582  10.661   5.716   4.701  0.0930  0.0084 -0.0986
 3109W        W19583  17.559  10.008   2.623  0.1603  0.0358  0.2903
 3110W        W19584   2.993   7.864   2.270  0.1066  0.1032  0.1888
 3111W        W19585  12.347   6.134  13.242 -0.0327  0.2910  0.0777
 3112W        W19586   4.081   5.098   1.524 -0.0483 -0.3682 -0.1164
 3113W        W19587  11.051   9.951  13.858  0.1964  0.1708 -0.0183
 3114W        W19588  14.496  17.778  15.651  0.0435  0.2132 -0.0977
 3115W        W19589   8.142   9.880  15.330 -0.0041 -0.1105 -0.3439
 3116W        W19590   8.533   2.429  15.253  0.2675  0.1940 -0.1017
 3117W        W19591  12.036   0.907  14.922 -0.2473  0.0470  0.1816
 3118W        W19592   6.845   4.531  11.729 -0.0665  0.0931 -0.2324
 3119W        W19593  11.767  13.474  14.171  0.0722  0.0396  0.1873
 3120W        W19594   8.870   9.769   4.134 -0.1609 -0.3060 -0.0156
 3121W        W19595  14.120   2.787   1.139  0.4455  0.0925  0.0344
 3122W        W19596  17.679  12.145  15.908  0.0469  0.1246 -0.0940
 3123W        W19597  16.852  15.581   4.910  0.1463  0.0972 -0.0121
 3124W        W19598  17.416  11.396  13.441  0.2191 -0.1114  0.2179
 3125W        W19599   0.665   4.417   4.184 -0.1867 -0.2293 -0.1535
 3126W        W19600   5.560  15.561   0.744 -0.1380 -0.2167 -0.0266
 3127W        W19601   8.619  10.508   4.115  0.0594  0.0674 -0.0719
 3128W        W19602  14.276   5.646   1.732 -0.0870 -0.0178  0.0525
 3129W        W19603  12.415  16.945  15.402  0.2315  0.2346  0.0001
 3130W        W19604  17.273  14.222   0.695  0.1878  0.3621  0.1462
 3131W        W19605   4.316  15.310  16.297  0.0093  0.5019  0.1722
 3132W        W19606   4.741   1.774  14.934  0.0460  0.0053 -0.1687
 3133W        W19607   9.162   4.907   9.770  0.2907 -0.1582  0.0933
 3134W        W19608  13.616   5.528  16.110 -0.0897  0.1913 -0.3572
 3135W        W19609   2.074  10.916  13.513  0.2997 -0.1919  0.1314
 3136W        W19610   7.889   0.684  14.044  0.1065 -0.0495  0.2055
 3137W        W19611  16.133  12.407  12.753 -0.0197 -0.0626  0.1372
 3138W        W19612   4.180  10.845  13.596 -0.0218  0.0101  0.1224
 3139W        W19613  11.962   9.930  12.800  0.0006 -0.0729  0.5342
 3140W        W19614  11.818   9.184   2.626  0.0313 -0.0465  0.3084
 3141W        W19615  11.712  12.530   3.427 -0.0456 -0.0765 -0.0646
 3142W        W19616   4.353   0.509   0.796 -0.1446  0.3678  0.1758
 3143W        W19617  18.326   6.254  14.075 -0.1068 -0.1967  0.0672
 3144W        W19618  18.117   5.289  15.076 -0.1823 -0.1582  0.0159
 3145W        W19619  18.129   8.393   1.323 -0.2761 -0.0609 -0.0179
 3146W        W19620  14.239  10.083   5.590  0.3192 -0.3002  0.3538
 3147W        W19621   7.482  12.135   3.733  0.3864  0.0504  0.2636
 3148W        W19622   4.945  15.611   3.359  0.1384  0.2808  0.0619
 3149W        W19623  17.207  10.201  12.893  0.1238  0.1006 -0.1735
 3150W        W19624  12.308   9.932  11.400 -0.0980  0.0489  0.0879
 3151W        W19625  11.092   2.821  12.928 -0.1575  0.2158 -0.2731
 3152W        W19626  15.334   3.145  12.416  0.0039  0.0814 -0.0423
 3153W        W19627  12.115  18.057   0.405  0.1711 -0.3648 -0.0575
 3154W        W19628  11.310  11.235  12.780  0.4218 -0.1899  0.1811
 3155W        W19629   8.753   8.669  10.931 -0.2687  0.0011 -0.1382
 3156W        W19630   3.527  12.084  11.447 -0.0966 -0.0337 -0.0091
 3157W        W19631   8.459   8.896   1.669  0.3410 -0.0538  0.0101
 3158W        W19632   4.302   0.369   5.535  0.0946  0.1084  0.0050
 3159W        W19633   4.875  16.685  15.189 -0.0720  0.2792  0.1693
 3160W        W19634  17.758   8.712   5.223 -0.0943 -0.1360  0.0889
 3161W        W19635   6.867   8.661   0.302  0.1097 -0.1182  0.1418
 3162W        W19636   1.509   9.884   4.883  0.0154  0.0716 -0.0422
 3163W        W19637   1.885   8.735   1.019 -0.1807  0.0991  0.1397
 3164W        W19638  18.019  17.517  14.670 -0.1232  0.0100  0.5807
 3165W        W19639   1.346   4.117  12.879 -0.1537 -0.0238 -0.4564
 3166W        W19640   0.858  15.077  12.962 -0.2810 -0.1027 -0.0497
 3167W        W19641  12.624   5.942   2.578 -0.2739  0.1241 -0.1936
 3168W        W19642   3.237  15.392  14.208 -0.1906  0.1002 -0.2111
 3169W        W19643  18.378   1.113  14.028 -0.0728 -0.0743 -0.0775
 3170W        W19644  10.149   9.758   2.462  0.0992 -0.4025 -0.1075
 3171W        W19645   7.602   9.328   4.144  0.0569 -0.0799  0.0508
 3172W        W19646  14.812  15.235   1.443  0.2537  0.4151 -0.1543
 3173W        W19647  12.849   1.693  12.191 -0.2227  0.0404 -0.3482
 3174W        W19648   0.068   8.435   3.949 -0.1501 -0.0612 -0.0722
 3175W        W19649   2.412  10.578  13.755 -0.1305  0.1071 -0.1941
 3176W        W19650  11.551   9.040  16.272 -0.0097  0.0362  0.1891
 3177W        W19651  16.287  13.999  16.203 -0.2236  0.1405 -0.0905
 3178W        W19652   0.815   4.572   2.913  0.1898  0.1418  0.2965
 3179W        W19653   7.943  18.310   5.304  0.0411 -0.0866  0.2458
 3180W        W19654  17.590   5.661   1.492  0.4512  0.2787  0.3530
 3181W        W19655   8.210   9.384   0.056  0.4684  0.3733  0.1267
 3182W        W19656   5.513   5.449   2.694 -0.1990  0.0890  0.3764
 3183W        W19657  11.115  17.698  13.414 -0.1253  0.3173 -0.0109
 3184W        W19658  10.050   8.733   4.351 -0.1141 -0.1083 -0.0413
 3185W        W19659  13.711   1.476   0.117  0.0439  0.0630 -0.0634
 3186W        W19660  14.224   4.697   0.022  0.2158  0.0413 -0.1849
 3187W        W19661   0.843   6.276  15.945  0.4713 -0.2461  0.0438
 3188W        W19662  16.577  14.622   2.865 -0.0245 -0.5216  0.0080
 3189W        W19663   0.401   3.573   4.447 -0.2152  0.0031 -0.1006
 3190W        W19664   4.465   0.363   3.547 -0.0221  0.1379  0.0689
 3191W        W19665   3.200   0.440  14.310 -0.3139 -0.1134  0.1815
 3192W        W19666   3.531  17.002  14.202  0.0012  0.2608  0.0721
 3193W        W19667   4.107   1.624  14.229  0.2250  0.2336  0.2744
 3194W        W19668   6.760  10.634  12.834  0.4061  0.2709  0.0461
 3195W        W19669   8.624   7.269   2.269  0.1901 -0.0203  0.1864
 3196W        W19670  11.107  18.061  13.054 -0.0326  0.0461  0.3397
 3197W        W19671  11.776   9.490  15.469  0.1359 -0.0603 -0.4309
 3198W        W19672  13.504  13.864   1.924  0.0495 -0.1827 -0.2027
 3199W        W19673   8.321   6.940  14.013  0.2343  0.3376 -0.1423
 3200W        W19674   4.690   0.805   2.512  0.3037  0.3500  0.3062
 3201W        W19675   6.200  10.491  11.040 -0.1334  0.1301  0.2552
 3202W        W19676  12.505   7.492  10.905  0.0352  0.0550 -0.0405
 3203W        W19677  12.652  12.443   5.514  0.0804 -0.1855 -0.2285
 3204W        W19678  16.989   2.769  11.525  0.2333  0.2002  0.1518
 3205W        W19679   4.795  13.022  15.483  0.2390 -0.0689  0.1640
 3206W        W19680   7.153   0.723  14.563 -0.2779 -0.0213  0.0895
 3207W        W19681   7.009  14.094   0.099 -0.1908 -0.3042  0.2066
 3208W        W19682   5.953  12.169   3.520 -0.1977 -0.2215  0.3268
 3209W        W19683   8.426   1.538   3.311  0.0057  0.1978  0.2651
 3210W        W19684  12.921  18.215   3.866 -0.2985  0.0301  0.0505
 3211W        W19685   1.067   0.382   5.608 -0.0081 -0.0672 -0.4181
 3212W        W19686  14.386  12.323   0.178  0.0692 -0.3084 -0.1820
 3213W        W19687   5.978   6.771   1.742  0.3337  0.6232 -0.1139
 3214W        W19688   5.872  16.719   2.910 -0.0329  0.0761  0.0330
 3215W        W19689   2.699   1.767   0.356  0.2150  0.1147 -0.1848
 3216W        W19690   0.712  11.841  14.568  0.0890  0.2471 -0.0411
 3217W        W19691  13.329   1.705   4.569  0.3138 -0.2747 -0.0258
 3218W        W19692  14.126  11.270   1.422 -0.0511 -0.1120  0.2004
 3219W        W19693   7.256  13.654   4.810 -0.2136 -0.0051 -0.2595
 3220W        W19694   5.230   9.262  15.504  0.2287  0.2217 -0.2296
 3221W        W19695   6.315  15.356   5.017  0.0844 -0.1250  0.1140
 3222W        W19696   1.338  12.064   2.028 -0.2698 -0.0641 -0.0511
 3223W        W19697  13.575   0.638   3.048  0.0155 -0.1270  0.0607
 3224W        W19698   0.767   8.669  13.631 -0.0188 -0.1595 -0.1963
 3225W        W19699  15.332   2.616  11.851  0.1926  0.1085 -0.1756
 3226W        W19700  12.242  18.243  11.646  0.1809  0.1090 -0.0254
 3227W        W19701  12.294   4.394  11.374 -0.0111  0.2426  0.2362
 3228W        W19702   7.158   8.732  11.574  0.0421 -0.2015 -0.2167
 3229W        W19703   0.537  10.697  12.531 -0.1573 -0.2667 -0.0032
 3230W        W19704   8.162   9.255   2.561  0.0379 -0.0889  0.2310
 3231W        W19705   0.245   6.648   4.284 -0.0577  0.5544 -0.1302
 3232W        W19706  12.240   8.471  15.817  0.1485  0.3529 -0.0356
 3233W        W19707   0.957  14.758  12.516  0.1394 -0.1546  0.0030
 3234W        W19708  16.911  15.090  11.948 -0.0220  0.3987  0.0671
 3235W        W19709   7.189   8.188   4.208 -0.2271 -0.1733 -0.1050
 3236W        W19710   0.134   9.567  13.162 -0.1852 -0.3238  0.1655
 3237W        W19711  11.771   9.188   1.572  0.2105 -0.0167 -0.0517
 3238W        W19712  14.254  12.759  11.922 -0.4403  0.4208  0.0927
 3239W        W19713   6.731   7.714  11.585 -0.1938  0.0730 -0.1756
 3240W        W19714  16.051   8.705  14.325  0.0332  0.1461  0.0228
 3241W        W19715   8.689  13.760  14.398  0.0863  0.0268 -0.0633
 3242W        W19716  15.487  15.457  13.223  0.1009  0.0267 -0.3416
 3243W        W19717   2.272  13.472  16.156 -0.0219 -0.0022  0.1128
 3244W        W19718   9.425  13.967   2.506 -0.0879 -0.2790 -0.1623
 3245W        W19719  16.998  14.210  13.767  0.1616 -0.2302  0.3181
 3246W        W19720   8.259  18.335   4.910 -0.1571  0.0249  0.0577
 3247W        W19721  15.165  11.432   1.118 -0.0599 -0.0135  0.1623
 3248W        W19722   8.964   4.034  14.083  0.1024 -0.1143  0.0258
 3249W        W19723  11.686   6.241  12.284  0.2647 -0.2687 -0.4469
 3250W        W19724  10.613   5.879  14.250 -0.1438 -0.1469  0.0189
 3251W        W19725   3.428  14.069  13.257  0.0357  0.2188  0.1097
 3252W        W19726  11.884  12.518  14.761 -0.0777  0.0394  0.2712
 3253W        W19727   4.035   6.251  13.997  0.3948  0.2228 -0.4206
 3254W        W19728   9.173  10.211   0.802  0.2432 -0.2650  0.1706
 3255W        W19729   2.774   5.533  13.671  0.2741 -0.5226  0.0676
 3256W        W19730   4.075  10.722  12.051  0.1937 -0.3074  0.1790
 3257W        W19731   1.068   7.945  14.770  0.0781  0.1133  0.1475
 3258W        W19732   4.259   3.965   5.514  0.0795 -0.0890 -0.3487
 3259W        W19733   0.531  13.849   4.000 -0.2707 -0.1733  0.0743
 3260W        W19734  17.141  10.578   3.211  0.1667 -0.2421 -0.2899
 3261W        W19735  11.766   2.821  14.675  0.0994 -0.0647 -0.1212
 3262W        W19736   5.533  10.530   2.793  0.2084 -0.1164  0.0668
 3263W        W19737   2.833  15.295  16.261  0.2117 -0.0330 -0.1617
 3264W        W19738  17.515  13.482  13.492 -0.0885  0.4487 -0.1584
 3265W        W19739  14.201  16.976  13.398 -0.0120 -0.0062 -0.1861
 3266W        W19740   2.958  14.442   2.791 -0.0765 -0.0534  0.1712
 3267W        W19741  10.678  16.683   2.510  0.1547  0.1347 -0.1764
 3268W        W19742   3.843   6.213  11.178 -0.2876  0.1433 -0.0815
 3269W        W19743  11.896  12.207  12.576  0.1227 -0.0657  0.1429
 3270W        W19744   5.294   3.897   5.219 -0.0314 -0.1453 -0.2549
 3271W        W19745   2.100   2.019   3.704 -0.2400  0.1066  0.0394
 3272W        W19746  15.808   8.617   0.449 -0.0645 -0.1002 -0.2512
 3273W        W19747   6.687  11.891  14.534  0.1462 -0.2127  0.0784
 3274W        W19748   6.623  12.496   2.341  0.0404  0.0751  0.0132
 3275W        W19749   9.580   6.337   5.310  0.0132 -0.1301  0.3020
 3276W        W19750   0.590   0.383   1.211 -0.1883 -0.0199 -0.0627
 3277W        W19751   5.643  16.327   3.304 -0.0210  0.1210 -0.2580
 3278W        W19752  13.996  17.847   1.868 -0.2406 -0.3253  0.1807
 3279W        W19753  14.179   1.791  11.271  0.2579 -0.0534 -0.0165
 3280W        W19754   2.121  16.724  15.127  0.3221  0.3207 -0.1216
 3281W        W19755  15.280  11.773   3.958  0.1401  0.0474 -0.0390
 3282W        W19756   7.286   1.588  11.642 -0.0914 -0.0919  0.1930
 3283W        W19757  10.272  11.817  13.698  0.4325  0.2496  0.0978
 3284W        W19758  13.671  17.241   2.757 -0.2977 -0.2873  0.0758
 3285W        W19759   3.297   7.844  12.732  0.1851 -0.2876 -0.0152
 3286W        W19760   0.302   3.564   0.452 -0.0167 -0.2186 -0.0573
 3287W        W19761  13.800   5.716   1.988 -0.0191  0.0225 -0.4067
 3288W        W19762   5.823   2.501   5.474 -0.1289 -0.1262  0.0117
 3289W        W19763  16.923   6.795   4.564 -0.3737 -0.0164 -0.0708
 3290W        W19764  11.888   0.520  16.131 -0.0862  0.2594 -0.0823
 3291W        W19765  16.963   7.935   0.820 -0.2611 -0.0715 -0.1998
 3292W        W19766   8.500  13.639   6.194  0.0677  0.1208  0.3811
 3293W        W19767  11.462  14.334   5.718  0.2433  0.0144  0.2018
 3294W        W19768   7.147   6.169   5.032 -0.0197 -0.0311 -0.0484
 3295W        W19769   7.701   7.647  14.818 -0.4055 -0.1229 -0.1518
 3296W        W19770   1.829  13.734  16.080  0.3681 -0.0408  0.4423
 3297W        W19771   8.198   8.102  13.858 -0.3264  0.1235 -0.0760
 3298W        W19772   4.038  18.184   6.291 -0.0290  0.4180  0.2486
 3299W        W19773  14.302   2.249   0.967  0.2821  0.0705  0.0717
 3300W        W19774   7.553   5.943  11.553 -0.4590  0.0196  0.0852
 3301W        W19775   9.790   7.130  12.884 -0.0685  0.0450  0.2259
 3302W        W19776   2.312   0.536   0.636  0.0717  0.2288 -0.2794
 3303W        W19777  16.277  13.157  13.257 -0.0553  0.1240 -0.1496
 3304W        W19778   5.707   1.997   2.085  0.3068 -0.2779 -0.1319
 3305W        W19779  13.268  10.964   3.278 -0.4949 -0.0918 -0.0421
 3306W        W19780   0.395   3.941   0.128  0.1145 -0.0315 -0.1446
 3307W        W19781  13.079  10.577   5.063  0.1171 -0.0912 -0.1048
 3308W        W19782   7.867  17.600  15.055 -0.2815  0.0942 -0.0805
 3309W        W19783  15.267  16.473   3.450 -0.0698  0.2478 -0.1295
 3310W        W19784   6.008   8.624   3.209 -0.0955 -0.2482 -0.0868
 3311W        W19785   0.564  13.495  12.949 -0.1217 -0.0327 -0.2756
 3312W        W19786  12.634   9.768   3.976 -0.4495 -0.2468 -0.0486
 3313W        W19787  11.818   9.483  14.953 -0.2068  0.2729 -0.0563
 3314W        W19788   2.020  11.398   5.112  0.0077  0.0703  0.0607
 3315W        W19789  16.931  16.656  15.050 -0.2989 -0.1218 -0.1435
 3316W        W19790   9.073  17.145   4.263 -0.0055 -0.0990 -0.3043
 3317W        W19791  11.562  14.722   3.114  0.0992 -0.2106  0.2733
 3318W        W19792  11.921   7.285   0.635  0.0401 -0.1168  0.0695
 3319W        W19793  14.019   9.131  13.572 -0.0369 -0.2432  0.3919
 3320W        W19794  17.605  10.704   1.288 -0.0013 -0.1041 -0.0375
 3321W        W19795   9.571  14.134   2.962 -0.0188 -0.3125 -0.1193
 3322W        W19796   5.831   5.383   4.075 -0.1017 -0.1423 -0.0220
 3323W        W19797  12.435  14.021  13.078  0.0105  0.0418 -0.2040
 3324W        W19798  16.175  16.196   2.542  0.0645 -0.0306 -0.1237
 3325W        W19799   9.610   3.151   1.256  0.0298  0.0471 -0.1142
 3326W        W19800  16.714   4.116  14.577 -0.0687  0.1357  0.4267
 3327W        W19801   2.321  15.722  14.234  0.1109  0.2796 -0.1664
 3328W        W19802   2.676  12.664  12.396  0.1638 -0.2129  0.0552
 3329W        W19803  16.081  12.826   3.314  0.1487 -0.0848  0.0295
 3330W        W19804  12.711   2.844  15.366 -0.1774 -0.1878 -0.2226
 3331W        W19805   5.196   0.989   2.653 -0.2511  0.0948  0.0327
 3332W        W19806   4.065  11.150  14.826 -0.0303  0.0969 -0.3467
 3333W        W19807   0.920   2.160  13.420 -0.1638  0.1266  0.3232
 3334W        W19808  11.740   1.462   0.864 -0.0043  0.0486  0.0098
 3335W        W19809  13.751  14.253   5.655  0.0115 -0.0834  0.1210
 3336W        W19810  16.911   1.226   1.430  0.3734  0.1546 -0.2894
 3337W        W19811   9.883  13.395  15.204 -0.0897  0.0298  0.1632
 3338W        W19812  16.197   1.382  15.147  0.2294  0.0783 -0.1403
 3339W        W19813  14.009   6.449   3.683 -0.2121 -0.1024 -0.1326
 3340W        W19814  12.482   4.542  10.863  0.0691 -0.0560  0.2408
 3341W        W19815   5.557   4.658  13.960  0.1054 -0.2091 -0.1995
 3342W        W19816  15.264   4.185  15.916 -0.1982  0.1753 -0.2399
 3343W        W19817  16.455   6.599  13.264  0.0949 -0.1746 -0.3932
 3344W        W19818  16.797   0.252   4.358 -0.1752 -0.4102 -0.0230
 3345W        W19819   1.815  11.391  15.935  0.4286  0.2217  0.0200
 3346W        W19820   6.395   7.836  14.549 -0.1141  0.2297  0.2528
 3347W        W19821   0.803  11.208  15.753  0.0216  0.0403  0.2954
 3348W        W19822   6.926  16.339  14.656  0.1130 -0.0708  0.0906
 3349W        W19823   3.006   9.053   2.868 -0.0510  0.0933 -0.2875
 3350W        W19824   4.451   4.161   2.365 -0.3972 -0.2341  0.2808
 3351W        W19825  13.477  16.713  13.989 -0.2425 -0.1767  0.1193
 3352W        W19826  10.051  14.242  15.663  0.1914 -0.3789  0.0409
 3353W        W19827  12.289   9.081  14.276 -0.2453  0.4381  0.3052
 3354W        W19828   5.462   4.807   5.501 -0.0667 -0.1065 -0.0753
 3355W        W19829   5.336   5.851  16.081  0.1919  0.0762 -0.2388
 3356W        W19830   5.832  10.624   5.394  0.0524  0.2031  0.1077
 3357W        W19831  15.672  11.117  11.327  0.0463 -0.1637 -0.3659
 3358W        W19832   7.821   4.252  14.722 -0.1701 -0.4409 -0.0750
 3359W        W19833   2.346  10.618  12.467  0.3174  0.3946 -0.0778
 3360W        W19834   0.208  12.015  11.803 -0.0684  0.3546 -0.3001
 3361W        W19835   9.493  15.342  13.738 -0.0759  0.0999 -0.1241
 3362W        W19836  13.084   4.286  16.292  0.2593 -0.3865  0.2499
 3363W        W19837  16.250  16.100   5.615  0.0299  0.2000  0.0801
 3364W        W19838  16.234  13.819  11.753  0.1707  0.1266 -0.1241
 3365W        W19839   7.157  13.717  13.419 -0.1734  0.3528  0.3043
 3366W        W19840  13.039   1.330   0.520  0.1657 -0.1521 -0.3338
 3367W        W19841  11.110   9.866  16.004 -0.1157 -0.1756 -0.1279
 3368W        W19842   6.601   3.879  11.324  0.3105  0.1636 -0.0775
 3369W        W19843   7.732   4.485   1.596  0.2097  0.0800  0.3494
 3370W        W19844  12.524  13.407   3.604 -0.0551  0.1227 -0.2865
 3371W        W19845  17.029  15.942  12.439  0.0041  0.2603 -0.1482
 3372W        W19846  14.130  14.654  12.437  0.1730  0.0325 -0.4106
 3373W        W19847  10.372  14.619  14.223 -0.0134 -0.1119  0.1941
 3374W        W19848   5.583  15.849  13.520  0.2580 -0.1134 -0.0936
 3375W        W19849   6.037   7.297  13.375  0.1141  0.2095 -0.0091
 3376W        W19850   1.322   0.431  13.440  0.0855 -0.1354 -0.3167
 3377W        W19851  16.155  10.849  15.353  0.2053  0.1763 -0.1967
 3378W        W19852   7.978   7.346   5.415  0.3614  0.2515 -0.0897
 3379W        W19853   2.062   1.322   2.934  0.0591  0.1264 -0.1331
 3380W        W19854  17.065   0.355  15.298 -0.1343  0.0238 -0.1231
 3381W        W19855  17.009  13.458  15.265 -0.0910  0.1127  0.0135
 3382W        W19856   3.098   0.813  13.970  0.2553 -0.0949 -0.1464
 3383W        W19857  14.102   6.503  13.424 -0.1155 -0.0882  0.2467
 3384W        W19858   1.138   2.995   0.861  0.0290  0.1670  0.4803
 3385W        W19859   6.829   1.442   1.485 -0.0995 -0.1294  0.1070
 3386W        W19860   4.609   6.739  12.815 -0.1777 -0.0214  0.0833
 3387W        W19861   8.151  17.645   6.057  0.0694  0.1801  0.0105
 3388W        W19862  10.754   9.363   4.871 -0.1435 -0.2344  0.2273
 3389W        W19863  14.405  11.559   5.172 -0.0142  0.0239  0.3634
 3390W        W19864  13.866   0.885   0.842  0.0614  0.2998  0.0474
 3391W        W19865   9.303  12.170   5.561  0.2354 -0.3325 -0.1727
 3392W        W19866  16.836  17.467   5.862 -0.0705  0.0880  0.0280
 3393W        W19867   0.129   9.023  11.981  0.3386  0.4762 -0.1392
 3394W        W19868  18.232  16.448  14.452 -0.1904  0.0257  0.3637
 3395W        W19869   4.788   9.058  15.416 -0.0382 -0.0667  0.0546
 3396W        W19870  14.194   8.554   4.445 -0.0915  0.0155 -0.1033
 3397W        W19871   7.152  16.959   1.261 -0.3285 -0.2034 -0.1993
 3398W        W19872   4.716  11.044  12.625  0.0432  0.0433  0.1251
 3399W        W19873   7.570   2.381   1.010  0.4167  0.0124 -0.2222
 3400W        W19874   0.889   8.943  15.659 -0.2619 -0.0683  0.1504
 3401W        W19875   6.260   5.243   5.222  0.0554  0.0092  0.0425
 3402W        W19876  11.507  17.424   0.485 -0.1306  0.2947 -0.0622
 3403W        W19877  11.889  13.370   4.888 -0.2332 -0.0230 -0.3036
 3404W        W19878  12.361   8.468  11.509  0.0880  0.1758  0.1095
 3405W        W19879  15.197  18.377  12.861 -0.3100 -0.1287  0.0222
 3406W        W19880   2.034  12.750   1.321  0.1079  0.0990  0.1684
 3407W        W19881   9.966   5.451   2.013  0.2166  0.0649 -0.0587
 3408W        W19882  12.141  12.240   4.786  0.0294 -0.0973 -0.0071
 3409W        W19883   0.911  17.988   3.925 -0.2880  0.0018 -0.0051
 3410W        W19884  16.220   2.089   3.176  0.2342 -0.1230 -0.1151
 3411W        W19885  14.984   4.634  10.585  0.2801  0.0470  0.0385
 3412W        W19886   8.241  13.218  11.458  0.0999  0.0775  0.1062
 3413W        W19887   7.221  14.984   0.323 -0.0496  0.2185 -0.1006
 3414W        W19888   5.846   5.677   4.530 -0.1052  0.1722 -0.0480
 3415W        W19889   5.373  10.590  14.888 -0.0927  0.1256 -0.1002
 3416W        W19890  17.064   3.419   4.356 -0.0205  0.3104  0.0510
 3417W        W19891  13.881  13.860  15.576  0.0325  0.0867 -0.1185
 3418W        W19892  13.305   2.209   1.111  0.0647 -0.2460  0.2007
 3419W        W19893   5.112   1.012  15.458  0.0988 -0.0388  0.1168
 3420W        W19894  12.669  17.029   6.069 -0.0392  0.2223 -0.2118
 3421W        W19895  13.466  13.910  14.001  0.1895 -0.1604 -0.2004
 3422W        W19896   6.965   0.071   3.044  0.0871 -0.1416 -0.1773
 3423W        W19897  11.929   7.399   5.007  0.0717 -0.2843  0.3737
 3424W        W19898  15.121  15.321   2.598  0.0106 -0.0068  0.1890
 3425W        W19899   9.314  14.912   3.930 -0.1829  0.0632 -0.1015
 3426W        W19900  14.190   3.685   1.503  0.0065 -0.2836  0.0984
 3427W        W19901  11.340  10.920  13.879 -0.1813  0.0919 -0.1173
 3428W        W19902  10.528  12.047   3.779 -0.2799  0.0317 -0.0478
 3429W        W19903   6.540   3.142  12.430 -0.2290  0.1235 -0.0892
 3430W        W19904   0.640   6.894   1.423 -0.3172  0.2203  0.2267
 3431W        W19905   1.018   3.347   4.849 -0.0811 -0.4942  0.0910
 3432W        W19906  12.881   2.188  15.513  0.0418  0.0205  0.5033
 3433W        W19907  16.141  14.442   1.453  0.0173 -0.0086  0.1061
 3434W        W19908   4.423  17.499   3.031 -0.1413  0.3146  0.0130
 3435W        W19909  13.563  14.244   2.736 -0.0010 -0.1829 -0.4327
 3436W        W19910  14.517   7.446   0.901  0.0279  0.0849  0.1353
 3437W        W19911  17.137   7.197   4.323 -0.0396  0.1144  0.0242
 3438W        W19912   3.413   9.206   4.669  0.0176  0.1479  0.2038
 3439W        W19913   5.823   1.556   1.318  0.1465  0.4391  0.0323
 3440W        W19914  14.101  10.060  15.828  0.0012 -0.0072 -0.0977
 3441W        W19915  10.849  14.471  14.884  0.1433 -0.3675  0.2235
 3442W        W19916   1.091   3.640   1.057  0.1669  0.1505  0.1734
 3443W        W19917   9.911   1.790  13.358  0.2080 -0.0549 -0.0103
 3444W        W19918  10.211   4.570   3.563 -0.0351 -0.2261 -0.0037
 3445W        W19919   7.881   1.278   4.634 -0.1048 -0.0086 -0.1275
 3446W        W19920   3.074   4.575   0.849  0.0833 -0.1224  0.1506
 3447W        W19921  10.867  15.993  16.274  0.0263  0.0832  0.0155
 3448W        W19922   3.509   5.322  15.315  0.0302 -0.2931  0.1644
 3449W        W19923   6.126   1.970   5.963  0.2732  0.0112 -0.0646
 3450W        W19924   2.255   7.732   5.244 -0.2388 -0.2003  0.1110
 3451W        W19925  15.828  13.247   3.225  0.1411 -0.0863  0.2678
 3452W        W19926  17.502   7.643  11.575  0.1258 -0.1449 -0.2767
 3453W        W19927   0.374   7.415   4.552  0.0244  0.0482  0.0065
 3454W        W19928  17.180  15.306   5.236 -0.1727 -0.3802 -0.0663
 3455W        W19929   0.636  14.307   1.474 -0.2324  0.1867 -0.0293
 3456W        W19930   3.392  10.902  10.895 -0.1130 -0.0568 -0.0087
 3457W        W19931   8.403  11.935   2.650  0.0102  0.2464 -0.0543
 3458W        W19932   6.542  16.833   0.030  0.2161 -0.2934  0.3237
 3459W        W19933  15.165   5.016  12.622  0.4227 -0.0626  0.0779
 3460W        W19934  14.329   3.915  12.097 -0.0561 -0.2051 -0.1874
 3461W        W19935  12.847  15.508   1.310  0.1877  0.2337 -0.0571
 3462W        W19936   3.585   0.238  14.032 -0.2305  0.0655  0.0186
 3463W        W19937   2.729   1.803   5.557 -0.0639 -0.0385 -0.0920
 3464W        W19938   5.811   3.386  12.448 -0.0628 -0.2317 -0.1358
 3465W        W19939   4.133   3.338   3.019  0.1526  0.0257 -0.1077
 3466W        W19940  13.620  18.359  13.178 -0.1232  0.1463  0.2727
 3467W        W19941  17.066   9.829   0.055 -0.2610 -0.0762  0.2756
 3468W        W19942   7.419  13.797   2.842 -0.2940  0.2632 -0.3242
 3469W        W19943   3.871   7.166  16.050 -0.0977  0.0924 -0.0739
 3470W        W19944  12.130   7.052   2.624 -0.0151  0.1396 -0.0926
 3471W        W19945  10.840  18.249   0.498 -0.1604  0.1805 -0.1660
 3472W        W19946   0.726   3.152   2.600 -0.2662 -0.1298  0.3758
 3473W        W19947  14.607  14.340  10.736 -0.0897  0.3713 -0.0639
 3474W        W19948   1.264  18.017   4.332 -0.3466  0.2110  0.0638
 3475W        W19949  13.862   3.257   0.172 -0.2165  0.0017  0.2379
 3476W        W19950  18.385  15.443   3.640 -0.0296 -0.2478  0.1366
 3477W        W19951   1.297   7.710  12.611 -0.0022  0.0598  0.2526
 3478W        W19952   8.800  15.120  15.043  0.0653  0.1984  0.0341
 3479W        W19953   3.524   7.551   3.696 -0.4752  0.0856  0.0486
 3480W        W19954   6.389   9.416  14.580 -0.0926  0.1969 -0.0621
 3481W        W19955   4.840   6.910   4.839 -0.1953  0.0048 -0.1219
 3482W        W19956   4.888   3.162  12.741 -0.1485 -0.0538  0.1791
 3483W        W19957  12.440  13.469  15.798  0.1740 -0.2703 -0.0747
 3484W        W19958   1.569  15.907  15.021 -0.0637  0.3412  0.0210
 3485W        W19959  16.083  12.026   1.534 -0.0403  0.0882 -0.1665
 3486W        W19960  14.414   9.057   4.435  0.0124  0.3402  0.3328
 3487W        W19961   1.644   8.817   3.363 -0.1996 -0.1663  0.4299
 3488W        W19962  15.106  10.844   4.383 -0.0310  0.1988 -0.2514
 3489W        W19963  10.513  10.987  16.098  0.2211 -0.0123 -0.4302
 3490W        W19964   7.510  15.738   4.372 -0.1713  0.0833 -0.0044
 3491W        W19965  10.365  15.552   1.011  0.1899 -0.1458  0.0183
 3492W        W19966   0.138   7.090   5.207 -0.2478 -0.2271  0.0434
 3493W        W19967  11.359   1.798  15.797  0.1060 -0.1430 -0.0799
 3494W        W19968   0.769  15.718   1.504  0.0281  0.0335  0.0514
 3495W        W19969  15.681  14.927  13.227 -0.5250 -0.0195 -0.1250
 3496W        W19970   1.722   0.285   1.450 -0.0522 -0.2247 -0.0714
 3497W        W19971   4.103   6.505  12.515 -0.0234 -0.2003  0.0329
 3498W        W19972  14.422   0.062  13.755 -0.1308  0.0769 -0.0500
 3499W        W19973   9.765   1.402  12.046  0.1031 -0.2684  0.1142
 3500W        W19974  11.246   5.181   1.272 -0.2429  0.0156  0.4304
 3501W        W19975   3.718  10.564   5.099  0.0006 -0.3829  0.2305
 3502W        W19976   7.918   5.160   2.321 -0.5237 -0.2667 -0.0310
 3503W        W19977   4.006  16.988  14.447  0.3244  0.1792  0.0509
 3504W        W19978   3.948  10.258   4.639  0.2767 -0.0270  0.5295
 3505W        W19979  14.551   9.510  14.728 -0.1019 -0.2199 -0.0265
 3506W        W19980   3.691  13.396   1.615  0.0723 -0.1971  0.2814
 3507W        W19981  13.989  11.028   0.965 -0.0673 -0.2451 -0.0856
 3508W        W19982   7.623  14.236   6.390  0.1529 -0.0707 -0.0749
 3509W        W19983   9.688  11.992  13.032  0.0885 -0.0699 -0.3927
 3510W        W19984  11.641  13.583  11.623  0.0042  0.4317  0.0231
 3511W        W19985  11.526  10.765   1.240  0.3259  0.0806 -0.0879
 3512W        W19986   6.064  10.194  15.814  0.0378 -0.1844 -0.1663
 3513W        W19987  14.750   2.054  16.228 -0.0989  0.2683  0.0588
 3514W        W19988  11.731  13.293   1.240  0.0122  0.0703  0.2262
 3515W        W19989  10.849  16.792   2.037  0.1455  0.0515  0.0450
 3516W        W19990  15.384   8.718   0.231 -0.1450  0.2116 -0.4408
 3517W        W19991   7.406   0.452  14.064  0.0544  0.1286 -0.1170
 3518W        W19992   4.395  13.065   5.175 -0.2421  0.1170  0.4173
 3519W        W19993  14.081  11.775   1.819 -0.3368 -0.1766  0.0833
 3520W        W19994   6.062   2.284  13.820  0.0551  0.0092  0.2524
 3521W        W19995   5.841  15.012   3.422  0.3553 -0.1092 -0.1914
 3522W        W19996  14.807  11.301  11.052  0.1840 -0.1915  0.1235
 3523W        W19997  11.665   9.972  13.769  0.0413 -0.0058  0.1283
 3524W        W19998  13.908  17.052   1.463 -0.1828 -0.0035  0.2900
 3525W        W19999   1.406   6.973  14.832 -0.0580  0.0162 -0.0264
 3526W        W20000   5.026   9.130   4.354 -0.3417 -0.0332 -0.1567
 3527W        W20001   9.356  10.104   1.874 -0.1994 -0.0578 -0.2389
 3528W        W20002   8.751   9.038  14.320 -0.0915 -0.0527  0.1044
 3529W        W20003  12.237  13.790  14.801  0.2155  0.3310 -0.1599
 3530W        W20004   4.603  13.934  15.013 -0.1896  0.1504  0.1429
 3531W        W20005  17.893   9.289   3.603 -0.0319 -0.0524  0.0548
 3532W        W20006  16.365  10.608  16.232  0.0251  0.0542  0.1330
 3533W        W20007   5.962   9.396  11.058 -0.2420 -0.0264  0.2433
 3534W        W20008  16.422  11.513  15.801 -0.0504 -0.1273  0.0834
 3535W        W20009   1.720   2.857  15.629 -0.3675  0.3937 -0.2225
 3536W        W20010   6.187   2.352  16.294 -0.1111  0.3082 -0.0100
 3537W        W20011  10.307  16.945  14.606  0.1225  0.1295  0.1190
 3538W        W20012  10.683  15.124  15.687  0.2127  0.2626  0.0724
 3539W        W20013   6.826   7.361  12.871  0.0074 -0.1282  0.2976
 3540W        W20014   0.438  15.918   0.234  0.3771  0.2033 -0.1238
 3541W        W20015   4.068   9.467  14.566  0.1119 -0.0802 -0.2567
 3542W        W20016  17.200   9.016  15.289  0.1411  0.2132 -0.0493
 3543W        W20017  10.607   1.433   1.634 -0.1446  0.2301  0.0909
 3544W        W20018   4.666  13.340   2.268  0.1030 -0.0173  0.3974
 3545W        W20019   7.406   2.994  12.073 -0.0251  0.1063  0.1469
 3546W        W20020  17.661  14.270   1.242  0.0425  0.0673  0.2244
 3547W        W20021   0.478   0.489   3.157 -0.0408  0.0495  0.3341
 3548W        W20022  11.849  10.919   1.582  0.0862  0.2042  0.0584
 3549W        W20023  13.078  13.743   1.668  0.1387 -0.1468  0.0958
 3550W        W20024   7.568  16.046   0.291  0.2834  0.1865 -0.0472
 3551W        W20025  12.873   1.567   4.418 -0.2233  0.0638 -0.0398
 3552W        W20026  10.315   3.910  14.287  0.3320  0.0207  0.0597
 3553W        W20027  16.117  11.093   1.534  0.0029  0.0908  0.1225
 3554W        W20028   5.014   5.854   1.024 -0.0347  0.0520 -0.0555
 3555W        W20029  17.165  12.600   5.157  0.1574 -0.0359 -0.0764
 3556W        W20030  15.537  18.282  14.748 -0.0123  0.2435 -0.0020
 3557W        W20031  10.769  12.919  12.567 -0.0931 -0.3888  0.2465
 3558W        W20032  14.740   7.132   1.758 -0.2075  0.0612 -0.4812
 3559W        W20033   7.929  18.124  15.638 -0.3507 -0.1171 -0.0144
 3560W        W20034   4.773   2.934   4.883 -0.2206  0.0977  0.2187
 3561W        W20035   6.224  17.328   6.002 -0.0839  0.0176  0.1811
 3562W        W20036   8.827   8.361  12.060 -0.0444 -0.1557 -0.0743
 3563W        W20037   5.393  11.554  12.249  0.2708 -0.2476 -0.2519
 3564W        W20038   0.063   2.116   1.383 -0.1353 -0.0578 -0.1270
 3565W        W20039   5.962  16.741   6.116  0.1082  0.1200 -0.3038
 3566W        W20040  13.370   4.740  13.262 -0.1224  0.0104  0.2527
 3567W        W20041   8.167  17.865  11.740 -0.0791  0.0986  0.0873
 3568W        W20042   6.046   9.955   1.190  0.1758 -0.0092 -0.1239
 3569W        W20043   0.154  16.892   1.621 -0.0288  0.3547  0.1105
 3570W        W20044  17.879   9.834   3.840 -0.2122 -0.1496 -0.3125
 3571W        W20045   2.317  12.506   3.952  0.5195 -0.3685  0.2015
 3572W        W20046   6.614   4.029  14.309  0.1788 -0.2088  0.0398
 3573W        W20047   5.592   6.769   0.655  0.1834 -0.0102  0.0718
 3574W        W20048   4.010   5.054  13.108  0.0968 -0.1878 -0.2443
 3575W        W20049  13.442   5.983   1.708 -0.1826 -0.1145  0.1120
 3576W        W20050   7.882   8.231   1.699  0.3383 -0.0110 -0.0489
 3577W        W20051  13.022   6.922  15.792 -0.1386 -0.1149 -0.0803
 3578W        W20052   5.482   3.063   4.844 -0.1233  0.2466 -0.0727
 3579W        W20053  15.954  12.389   4.218 -0.1477 -0.3287  0.0435
 3580W        W20054  14.636   9.429   0.350  0.0132  0.0031 -0.0653
 3581W        W20055  10.425  16.368  14.834  0.1021  0.0302  0.1487
 3582W        W20056   0.316   0.318  13.565 -0.0260  0.1086 -0.0941
 3583W        W20057   7.065  17.104   4.159 -0.0928 -0.0530 -0.2227
 3584W        W20058  15.715   1.844  13.594 -0.1400  0.3903  0.1728
 3585W        W20059  17.414  18.222  16.092 -0.2153  0.2814 -0.0409
 3586W        W20060  17.947  17.024  15.541  0.0050 -0.1006  0.0028
 3587W        W20061   0.285   8.376   3.416  0.0151  0.0932 -0.0651
 3588W        W20062   2.733  13.125  15.344  0.1087 -0.3968  0.3633
 3589W        W20063   2.837   6.945   0.963  0.2277  0.0658 -0.2163
 3590W        W20064   4.968   0.679  14.162  0.2945  0.1788 -0.1672
 3591W        W20065   4.432  17.740  14.684  0.0435  0.0889 -0.1550
 3592W        W20066  11.727  14.542   2.692 -0.3843  0.1836 -0.1413
 3593W        W20067   0.261   2.823   1.780 -0.1675  0.0252  0.3980
 3594W        W20068   5.586  11.433   2.814  0.3049  0.0959  0.0703
 3595W        W20069   8.510   9.455   0.491 -0.3889  0.1646 -0.1879
 3596W        W20070  17.629  15.401   0.045  0.2284  0.0108  0.0949
 3597W        W20071   8.171   1.389   0.302 -0.0899 -0.1954 -0.1799
 3598W        W20072   7.829  11.003  15.781  0.1000  0.0415  0.1536
 3599W        W20073  11.545   8.838   9.696 -0.1490 -0.3612 -0.0399
 3600W        W20074   7.380  11.916   1.980 -0.4179  0.0934  0.0708
 3601W        W20075  13.772  15.573   0.835 -0.2490  0.1178 -0.2801
 3602W        W20076   7.394   3.544   4.179 -0.0613 -0.2080  0.0435
 3603W        W20077  15.615   5.639   1.847 -0.0562  0.0093 -0.0089
 3604W        W20078   0.761   2.464   2.890  0.0498 -0.1455  0.1541
 3605W        W20079  11.883  13.146  15.881  0.1693  0.1781  0.1291
 3606W        W20080   6.835   8.641  14.261  0.4108  0.1602  0.0900
 3607W        W20081   7.147  12.821  15.171  0.0106 -0.3749  0.3162
 3608W        W20082  15.607   7.993  11.654 -0.0298 -0.0219 -0.0155
 3609W        W20083  15.840  15.622   3.839  0.0709 -0.1232 -0.2177
 3610W        W20084   8.317   3.521   2.573 -0.0855 -0.2253 -0.3418
 3611W        W20085  10.825   7.812   2.948 -0.0123  0.2407  0.0588
 3612W        W20086   9.518   3.434  13.967  0.2963  0.1423 -0.2155
 3613W        W20087  15.288  11.003  13.523  0.1383 -0.0815 -0.6207
 3614W        W20088   9.895  16.274   4.562 -0.1720  0.1113 -0.2710
 3615W        W20089  12.403  16.419   0.325 -0.1401  0.4032 -0.1646
 3616W        W20090   7.286  11.759  13.637 -0.0204  0.1623  0.1292
 3617W        W20091   4.625  12.441  14.858  0.1480 -0.0407 -0.1214
 3618W        W20092   9.858   6.092   1.800 -0.1894  0.0010  0.1777
 3619W        W20093   8.061  10.900  15.363  0.0054  0.1820  0.3323
 3620W        W20094   5.336  18.059  14.708 -0.2602 -0.0680 -0.1798
 3621W        W20095   4.045   7.916   0.733 -0.1194  0.2507 -0.1145
 3622W        W20096  13.367   6.933  14.945 -0.2899 -0.0752 -0.1314
 3623W        W20097   1.129  18.215  12.101  0.1416 -0.1246 -0.0561
 3624W        W20098   8.677  17.756   2.379 -0.0479  0.1941  0.2344
 3625W        W20099   6.133  12.151   2.253  0.1966  0.0160  0.1082
 3626W        W20100  11.002  11.976  13.072  0.2360 -0.1202 -0.0798
 3627W        W20101   1.381  14.019   4.462 -0.3504 -0.3050 -0.2837
 3628W        W20102  11.248  11.005   2.370  0.0439  0.2097  0.0530
 3629W        W20103  10.928   2.807   1.349 -0.1528 -0.0930  0.3321
 3630W        W20104   2.791  11.950   0.989  0.0904  0.3636 -0.2245
 3631W        W20105   4.482  17.407  15.197 -0.0053 -0.1733  0.1771
 3632W        W20106   3.977  14.474  15.381 -0.2441  0.1652  0.0273
 3633W        W20107  13.031  14.092   0.156 -0.0606  0.2292 -0.1820
 3634W        W20108  16.003  12.225  14.155  0.0428  0.1039  0.2309
 3635W        W20109   6.952   0.868  13.273  0.0140 -0.0425 -0.2182
 3636W        W20110  11.299  17.004   3.274  0.0313 -0.2190  0.0818
 3637W        W20111  13.152  14.764   1.596  0.3790 -0.0635 -0.0339
 3638W        W20112   3.668   2.517  11.248  0.0297  0.0204  0.0490
 3639W        W20113  18.164  15.533   4.236 -0.0399  0.2505 -0.1206
 3640W        W20114   1.791   9.284  15.607  0.0043  0.3996  0.0556
 3641W        W20115  17.758   5.800  15.996 -0.2223 -0.1101 -0.1892
 3642W        W20116  17.600   3.652  12.632  0.2563 -0.1507  0.0134
 3643W        W20117   8.255  10.858  16.335 -0.1058  0.2923  0.0983
 3644W        W20118   7.165  16.214   3.864 -0.2487 -0.0935  0.3232
 3645W        W20119  10.324   2.277  12.178 -0.2794 -0.2806 -0.3007
 3646W        W20120  18.362   4.826   4.913  0.1170  0.2071 -0.1476
 3647W        W20121  14.255   1.739   0.587  0.0623  0.0381  0.1904
 3648W        W20122   6.697   5.717   3.507 -0.1120  0.1627 -0.1467
 3649W        W20123   8.018   4.654   2.082 -0.1622 -0.0932 -0.0082
 3650W        W20124  16.623   7.191   4.394 -0.3367 -0.1442 -0.0354
 3651W        W20125  15.800   6.159  15.918 -0.0267  0.1324 -0.1000
 3652W        W20126  12.499  11.395   1.324  0.1809 -0.0124  0.1642
 3653W        W20127   1.960  12.126   2.360  0.1224  0.1075  0.0768
 3654W        W20128   9.173  13.956   4.024  0.0557 -0.2129  0.2805
 3655W        W20129  12.565  11.451  13.185 -0.1909  0.0052 -0.2257
 3656W        W20130  10.373  13.364   6.104  0.1045  0.3119  0.0441
 3657W        W20131   6.248   9.064  11.712 -0.1181 -0.5032 -0.0403
 3658W        W20132  15.993  13.850  11.273  0.1299 -0.0542 -0.1724
 3659W        W20133   5.718   0.468   3.405  0.0127 -0.0127 -0.1364
 3660W        W20134   4.859   1.519   6.008 -0.2697  0.1273  0.0737
 3661W        W20135  12.596   1.754  14.835  0.1962  0.0616  0.1954
 3662W        W20136  16.315  12.973   1.478 -0.2198  0.2073  0.1879
 3663W        W20137   1.745   1.366   0.275 -0.0198  0.3263  0.0023
 3664W        W20138   2.864   4.155  12.710 -0.2391  0.0852  0.3832
 3665W        W20139   2.552   4.024   0.130 -0.1130 -0.1634 -0.1612
 3666W        W20140   3.020  15.115   4.366 -0.0146 -0.0501 -0.1095
 3667W        W20141   6.890  10.111  13.445 -0.1492 -0.3922 -0.3919
 3668W        W20142   3.823  12.230   3.488 -0.0150 -0.2942 -0.1916
 3669W        W20143  13.096   8.832  15.111  0.0193 -0.1120  0.0571
 3670W        W20144  11.684   1.334   0.381 -0.0440 -0.1564 -0.0021
 3671W        W20145   5.529   0.724  15.354  0.3531  0.1062  0.0288
 3672W        W20146  12.775   6.613  13.655  0.0443  0.0639 -0.0564
 3673W        W20147  10.014   7.731  10.582 -0.1110  0.0306 -0.0356
 3674W        W20148   6.149  10.843   4.011 -0.1574 -0.2457 -0.0595
 3675W        W20149   7.205  10.350  12.120 -0.1274  0.2580  0.0853
 3676W        W20150   2.268  10.374  14.175 -0.1364  0.0706  0.3545
 3677W        W20151  11.747   2.697   4.437 -0.2832  0.2041 -0.1813
 3678W        W20152  12.175  10.663  15.825 -0.0738  0.1498  0.1593
 3679W        W20153   6.375   0.243   4.944  0.1096  0.1174 -0.0357
 3680W        W20154  10.692   5.287   2.593 -0.2905 -0.4391  0.0078
 3681W        W20155  10.033   2.245  16.323  0.0342  0.2261 -0.0740
 3682W        W20156  12.542   0.929  15.736 -0.0243 -0.2615 -0.0386
 3683W        W20157   4.075  10.214  14.907  0.0016  0.0150  0.1274
 3684W        W20158  14.062  11.098  15.331 -0.2185  0.1417 -0.1332
 3685W        W20159   0.498   0.926   0.100  0.1969 -0.0776 -0.0529
 3686W        W20160  15.638  13.846  14.818  0.0126 -0.6350  0.1597
 3687W        W20161   8.190   6.034  14.363  0.0111  0.1461  0.1975
 3688W        W20162   4.560   5.205  14.567  0.1526 -0.1655 -0.0770
 3689W        W20163  10.245   7.437   3.184  0.2471 -0.2383  0.0107
 3690W        W20164  15.101  12.158   1.660  0.4778  0.1108  0.1893
 3691W        W20165  12.812  12.243  16.308  0.0512  0.0798 -0.1202
 3692W        W20166  15.849   2.178  12.938 -0.1715 -0.0921  0.3564
 3693W        W20167  17.004   2.809  15.734 -0.4728  0.1026 -0.0452
 3694W        W20168   4.504   4.409  15.301 -0.2554  0.3193  0.2542
 3695W        W20169   2.128   4.447   3.663  0.1858  0.5500 -0.1751
 3696W        W20170   1.277   9.260   2.188 -0.2243  0.2133  0.0719
 3697W        W20171  12.105   1.678  14.685 -0.0240 -0.1006  0.0622
 3698W        W20172   6.931   2.459   2.111 -0.1583 -0.0228  0.0703
 3699W        W20173   7.282  10.610  16.099  0.2608 -0.0150  0.1636
 3700W        W20174   8.911   9.116  12.393 -0.2359 -0.0260 -0.0566
 3701W        W20175   9.513  18.007   0.371  0.1394 -0.1286 -0.1311
 3702W        W20176   9.887   8.451   4.773 -0.3523  0.2517  0.0227
 3703W        W20177   8.838  15.053  12.937 -0.0063 -0.3032 -0.0418
 3704W        W20178   9.062  10.431   5.734  0.0965  0.0681  0.3440
 3705W        W20179   0.240  10.309   0.783  0.0079  0.0150 -0.0265
 3706W        W20180  12.206   0.274   5.282  0.0651  0.0911  0.1945
 3707W        W20181   2.265  11.662   4.476 -0.0589 -0.4059  0.3216
 3708W        W20182   8.683  10.230   0.645  0.0422 -0.2234  0.3519
 3709W        W20183   4.369  14.525  10.819 -0.0836 -0.1891 -0.0918
 3710W        W20184  12.685  13.043  15.816  0.0652  0.3466 -0.1047
 3711W        W20185  15.184  14.618   5.513  0.1475  0.0851 -0.0181
 3712W        W20186   4.609  12.878   5.608 -0.0895  0.1210  0.1076
 3713W        W20187   2.907  12.664   5.937  0.2206 -0.0410 -0.2063
 3714W        W20188   5.742   2.627  13.663 -0.2726 -0.0927  0.0697
 3715W        W20189  13.650   1.413  13.821  0.1928  0.0376  0.0266
 3716W        W20190  10.475  13.800  16.316  0.3066  0.2310  0.0385
 3717W        W20191   9.351   7.504  14.765 -0.0642  0.0852  0.1166
 3718W        W20192  15.191   9.074  13.342  0.3624 -0.1892 -0.1495
 3719W        W20193  15.828   3.890  14.817 -0.2778  0.0619  0.0530
 3720W        W20194   5.617   1.502   0.733  0.3103  0.2566  0.1043
 3721W        W20195  17.923  10.804  14.423 -0.1580 -0.2581 -0.2606
 3722W        W20196   4.936  16.476   2.390  0.1579 -0.1940  0.0375
 3723W        W20197  11.705   7.821  11.006  0.0842 -0.1627  0.2905
 3724W        W20198   7.895   0.237  12.397  0.1414 -0.0668 -0.0063
 3725W        W20199  15.772   3.991   9.871 -0.0319  0.0917  0.1500
 3726W        W20200  10.429   0.453  11.803  0.1569 -0.5432 -0.0021
 3727W        W20201  16.098   3.500  15.010  0.2130 -0.1640 -0.0431
 3728W        W20202  11.063  10.311   4.951 -0.0025  0.4485  0.1364
 3729W        W20203   8.043  14.288  16.105  0.2417  0.0383 -0.1559
 3730W        W20204  10.037  10.589  13.896  0.2064 -0.0599 -0.1615
 3731W        W20205  15.810  10.241  10.961  0.0932 -0.2273 -0.3291
 3732W        W20206  10.877   8.637  15.277  0.0104  0.0989 -0.4717
 3733W        W20207   6.160  13.246  14.938 -0.0814 -0.2407 -0.0762
 3734W        W20208   6.080   4.915   2.290  0.1170  0.2654 -0.0521
 3735W        W20209  15.251  16.061   3.817  0.0435 -0.2163 -0.1603
 3736W        W20210   6.318  13.537   1.029 -0.1561  0.4739 -0.0690
 3737W        W20211   7.048   5.731  15.553  0.0068  0.0457  0.3943
 3738W        W20212   3.348   1.288  13.872 -0.2031 -0.0045 -0.0477
 3739W        W20213   3.941   0.293   3.608 -0.2150 -0.0698  0.0780
 3740W        W20214  16.256   6.411   3.239  0.0884 -0.1761 -0.1925
 3741W        W20215   8.134  12.762   3.325 -0.1360 -0.2019 -0.2133
 3742W        W20216  15.746   0.975  14.951  0.2202  0.1078  0.0661
 3743W        W20217   7.521   3.894  15.972 -0.2056 -0.2116 -0.1458
 3744W        W20218  11.306  17.582   0.055 -0.0709  0.2810  0.2093
 3745W        W20219  15.275  13.390   0.820 -0.1110 -0.2344 -0.1063
 3746W        W20220  18.112  12.259  15.584 -0.4057 -0.1419  0.1097
 3747W        W20221   8.359   5.514   1.717 -0.0347 -0.2723 -0.0859
 3748W        W20222   7.602   2.381   2.462 -0.2835  0.0950  0.0548
 3749W        W20223  12.576  13.177   1.553  0.0966  0.0701 -0.1931
 3750W        W20224   9.210  12.543  15.204 -0.0013  0.1126 -0.0297
 3751W        W20225   0.131   6.438  14.490  0.1756  0.2294 -0.0073
 3752W        W20226  10.417   0.151   3.075  0.1185 -0.0802 -0.1283
 3753W        W20227  13.879  13.888   0.551  0.1131 -0.1224 -0.1023
 3754W        W20228   3.279  10.915   6.218  0.0529 -0.3018  0.1276
 3755W        W20229  14.545  12.035  15.027 -0.4876 -0.2427  0.0039
 3756W        W20230   8.132  10.114   1.932  0.1647  0.1755 -0.3448
 3757W        W20231  15.056   6.476  14.886  0.1309 -0.1949 -0.1831
 3758W        W20232  14.410  11.895   5.553 -0.1452 -0.1682  0.0703
 3759W        W20233  14.144   4.180   1.706 -0.0858 -0.2615  0.2349
 3760W        W20234  10.248   0.923  13.394 -0.3139 -0.0717  0.0280
 3761W        W20235  17.065   9.854   2.517 -0.3636  0.0510  0.1587
 3762W        W20236  16.441   6.835   4.693 -0.1641  0.1583 -0.1025
 3763W        W20237  16.030  16.088  15.863  0.0994  0.1790 -0.0195
 3764W        W20238   5.151  17.145   4.183  0.0642  0.2086 -0.0484
 3765W        W20239   3.874   8.285  15.643  0.0114 -0.1744 -0.1345
 3766W        W20240   4.124  14.862  12.470  0.4210 -0.0762 -0.0996
 3767W        W20241  15.507   7.972  12.165 -0.0387  0.1271 -0.1138
 3768W        W20242   1.285   0.636  14.747  0.2806  0.1796 -0.1051
 3769W        W20243   9.592  14.135   6.168 -0.1984  0.1706  0.0744
 3770W        W20244   1.304  10.198  15.401  0.1930  0.0182 -0.0778
 3771W        W20245   9.734   2.472  11.644  0.0107  0.1592 -0.0288
 3772W        W20246   8.077   9.485   5.203 -0.0330  0.2075  0.0885
 3773W        W20247   9.099  16.207  15.530  0.2327 -0.0714 -0.1025
 3774W        W20248   3.195   2.186  14.030 -0.0745 -0.2955  0.2601
 3775W        W20249   6.721   8.748   2.667 -0.0627  0.0917 -0.1379
 3776W        W20250   8.852   0.279  15.432  0.0010  0.2037  0.1184
 3777W        W20251   3.980   1.696   0.682  0.0932 -0.1071 -0.0902
 3778W        W20252   2.286  12.006   4.032  0.0145  0.0833  0.0949
 3779W        W20253  11.045  16.900  15.838 -0.0557 -0.3925  0.0597
 3780W        W20254   2.790   9.982   1.035  0.2301  0.0854  0.1580
 3781W        W20255   9.340  13.282  14.441  0.0272  0.1319  0.0414
 3782W        W20256   1.548  17.329   2.747  0.1251  0.1161 -0.1890
 3783W        W20257  16.110   6.623   2.782 -0.0234  0.2077  0.0798
 3784W        W20258   3.650   5.906   5.030 -0.3383  0.0084 -0.1183
 3785W        W20259   1.220   0.282  13.967  0.0216  0.3392  0.0559
 3786W        W20260  10.731   8.231   4.148 -0.1511  0.2441 -0.1472
 3787W        W20261   8.278   1.346  14.447  0.2302 -0.0270 -0.0960
 3788W        W20262  14.886  16.468  15.768 -0.0171 -0.1062 -0.1858
 3789W        W20263   9.833   8.066   4.449  0.3203 -0.0392 -0.3181
 3790W        W20264   3.052  15.318  12.561  0.5201  0.0037  0.0247
 3791W        W20265  15.531   3.389   3.369 -0.1318  0.6286  0.1773
 3792W        W20266   1.759   2.591  13.566 -0.0544 -0.0920 -0.2418
 3793W        W20267  12.598  12.310   0.956 -0.1086 -0.1240 -0.1430
 3794W        W20268   3.541   1.965  11.608  0.1290  0.0353 -0.2089
 3795W        W20269  16.900   8.028  12.365  0.3225 -0.0902 -0.2148
 3796W        W20270  18.135  11.204   4.661 -0.1747 -0.3336 -0.0926
 3797W        W20271   7.375   6.022  16.235  0.4243  0.0264 -0.1897
 3798W        W20272  14.606   7.183   2.763 -0.1637 -0.3766  0.2615
 3799W        W20273  10.642   3.314  13.660  0.2555  0.1928 -0.0302
 3800W        W20274  14.702  13.845   1.250  0.0033  0.0278 -0.2718
 3801W        W20275   4.821   3.083  13.741 -0.1595  0.2288  0.0959
 3802W        W20276   5.496  10.055  13.665  0.1307  0.2126  0.0246
 3803W        W20277   2.355  16.556  12.980 -0.0723  0.0836 -0.2433
 3804W        W20278   8.006   9.071  13.875  0.3473  0.0356  0.1171
 3805W        W20279  12.402  15.506  12.548  0.1368 -0.3123 -0.1822
 3806W        W20280   9.877  15.960   2.746  0.1003 -0.0806 -0.0592
 3807W        W20281   8.613   1.408  15.458  0.2951 -0.2937 -0.2681
 3808W        W20282   1.531  14.258  13.459  0.1989  0.1864  0.0123
 3809W        W20283  11.506  16.234   5.862  0.0968  0.0372  0.1134
 3810W        W20284   2.284   6.954   5.855 -0.0521  0.0694  0.4633
 3811W        W20285  16.583   4.060   4.751  0.0219 -0.0093 -0.2791
 3812W        W20286  13.178  18.092  13.960 -0.1256  0.0688  0.2218
 3813W        W20287   7.839  15.970  14.995  0.1197 -0.1152 -0.2214
 3814W        W20288   5.998  17.811   5.604  0.0596 -0.2556 -0.0469
 3815W        W20289  12.576  15.516  11.779 -0.1442  0.0888 -0.0459
 3816W        W20290   1.422   2.392   5.042  0.1495 -0.0733  0.2290
 3817W        W20291   6.087  13.666  14.663 -0.2546 -0.1727 -0.3627
 3818W        W20292   3.092   6.674  15.921 -0.1937 -0.2910 -0.1056
 3819W        W20293  12.937  13.513   0.185  0.1149  0.3110 -0.3245
 3820W        W20294   4.122  11.159  16.206 -0.3080  0.1563  0.0302
 3821W        W20295  14.330   3.143  12.432  0.3789 -0.3040 -0.1411
 3822W        W20296   4.053  17.222  14.964 -0.2404 -0.1562  0.3427
 3823W        W20297  16.119  11.859   2.160 -0.2215 -0.4415 -0.0656
 3824W        W20298  13.111  17.346  16.110  0.3391 -0.0961 -0.1911
 3825W        W20299  11.303   9.491   1.382 -0.0963  0.0946  0.1193
 3826W        W20300   6.772  18.040   2.807  0.1582  0.0769  0.0341
 3827W        W20301   7.838  13.089   0.016 -0.0561 -0.2844 -0.2564
 3828W        W20302   0.054   1.568  11.549 -0.0688 -0.1788  0.1079
 3829W        W20303   1.090   1.282   0.222  0.2465 -0.0760  0.1645
 3830W        W20304   4.837  10.307  15.679 -0.0508  0.2454  0.4834
 3831W        W20305  12.177   3.853  13.946 -0.3311  0.0742 -0.1272
 3832W        W20306   8.388  15.377  11.512 -0.1108  0.0189 -0.1092
 3833W        W20307  16.061  15.579  11.513 -0.2590 -0.0070 -0.2733
 3834W        W20308   4.272  13.194   4.665 -0.1078  0.0059 -0.1127
 3835W        W20309  12.317   8.072   0.708  0.0172 -0.0462  0.0831
 3836W        W20310   3.817   6.294   3.450  0.1391 -0.1117  0.0019
 3837W        W20311   8.580   6.196   3.721 -0.1884 -0.0102 -0.0719
 3838W        W20312   9.319   7.415   0.568 -0.4440 -0.4316  0.3067
 3839W        W20313  12.630  12.880   0.255 -0.1137  0.1455  0.0644
 3840W        W20314   7.413   9.026  13.348 -0.3101 -0.1304  0.2079
 3841W        W20315   2.702   1.613  14.604 -0.0247  0.4539 -0.1249
 3842W        W20316   9.779  12.042  13.576 -0.0943 -0.1448  0.2697
 3843W        W20317   6.887   0.504  13.583  0.0879  0.1476 -0.1090
 3844W        W20318  10.689  12.861   1.302 -0.0154 -0.1876  0.2088
 3845W        W20319  16.618   7.568   0.708  0.0004 -0.1964  0.2783
 3846W        W20320  11.267  16.338   1.337 -0.1642  0.1081  0.0422
 3847W        W20321  13.600   6.447  10.589  0.1603 -0.1995 -0.0694
 3848W        W20322   3.963  15.270  15.884  0.1892  0.1705  0.2109
 3849W        W20323   4.835  16.420  16.025 -0.6468 -0.2067  0.0259
 3850W        W20324   7.669   2.118  14.352 -0.1227 -0.4033 -0.0025
 3851W        W20325   1.916   2.944   1.886 -0.0794 -0.0136  0.3879
 3852W        W20326  17.016  14.715   5.152  0.0229  0.1377 -0.0926
 3853W        W20327   1.557   3.685   0.288  0.2181  0.1309 -0.2034
 3854W        W20328   1.606   1.688  13.533 -0.2300  0.2640  0.0206
 3855W        W20329  15.276  15.666   5.670 -0.4654  0.0369  0.1357
 3856W        W20330  11.646   1.403  12.096  0.3315 -0.0353  0.0995
 3857W        W20331   4.238  13.997   3.411  0.1742  0.0362 -0.0733
 3858W        W20332   3.154   7.579   1.297 -0.0788 -0.2545 -0.2383
 3859W        W20333   2.025  16.287   0.232 -0.1202  0.2012 -0.2196
 3860W        W20334   2.888   0.997   1.925  0.3832 -0.1836 -0.1503
 3861W        W20335  10.948   1.068   1.270 -0.0036  0.2717 -0.0678
 3862W        W20336  16.733  11.306  14.858  0.1737 -0.0865  0.1112
 3863W        W20337  17.148  15.240  13.747  0.0623 -0.0141  0.1812
 3864W        W20338   5.681  15.648  15.782 -0.4164  0.1690 -0.2786
 3865W        W20339  18.303  18.317   5.133  0.1093  0.2467  0.3288
 3866W        W20340   3.796   7.785   3.315 -0.0203  0.1388  0.2457
 3867W        W20341   3.602   8.462  11.930 -0.0331 -0.2682 -0.0750
 3868W        W20342   1.792   0.817  15.235 -0.1976 -0.1274 -0.2898
 3869W        W20343   7.274  12.152   5.651  0.1466  0.0188  0.0044
 3870W        W20344  17.615   0.173   0.672 -0.0522 -0.3137  0.0812
 3871W        W20345  10.230  17.478   4.036 -0.1433 -0.3187  0.3410
 3872W        W20346   5.606  10.935   1.185 -0.0315  0.2278 -0.2105
 3873W        W20347   6.483   0.481   5.485  0.0445  0.4358  0.0292
 3874W        W20348   4.783  15.762   2.075 -0.0206  0.0225  0.0317
 3875W        W20349  11.216   4.471  11.608 -0.1836 -0.0681 -0.1263
 3876W        W20350  18.167  16.438   0.513  0.4236 -0.0538 -0.0152
 3877W        W20351   8.435   4.801  11.935  0.2928 -0.2619 -0.1004
 3878W        W20352   7.829  10.655  13.846 -0.0516  0.1156  0.4696
 3879W        W20353  11.051   1.214  12.101 -0.4009  0.3755 -0.2936
 3880W        W20354   1.676   8.473   3.823  0.1554  0.0671  0.1422
 3881W        W20355  16.075  14.554   3.766 -0.0201 -0.1736  0.1993
 3882W        W20356  12.626  13.644  14.416  0.0506 -0.0440  0.0821
 3883W        W20357   5.749  10.939  13.217  0.0021 -0.3362  0.2402
 3884W        W20358   1.703   0.965  12.671 -0.2316 -0.1372  0.0817
 3885W        W20359   7.005  16.935   3.620  0.1372 -0.1259 -0.0619
 3886W        W20360  10.996  17.129  13.155  0.1240  0.0973 -0.0870
 3887W        W20361   2.858   3.056  11.740  0.0744 -0.0481  0.1192
 3888W        W20362   7.176  17.355   4.898 -0.2418  0.2676  0.3748
 3889W        W20363   9.610   5.334   2.403  0.0097  0.4746 -0.1748
 3890W        W20364  17.359  14.958   4.900 -0.0970 -0.1920 -0.3054
 3891W        W20365   2.533   3.428   5.277 -0.2111 -0.5129  0.1844
 3892W        W20366   7.411  13.704  12.974 -0.1231  0.0038  0.0268
 3893W        W20367  13.155   0.785   1.212  0.2907 -0.0081  0.0585
 3894W        W20368  17.576  12.531  15.048  0.2730  0.1746  0.0082
 3895W        W20369  11.599  10.762   3.870 -0.1127 -0.0451  0.1564
 3896W        W20370  15.763   9.201   4.681 -0.0082  0.1969 -0.0852
 3897W        W20371  15.311  16.609   5.199  0.0920  0.0340  0.2234
 3898W        W20372  14.076   5.397  14.195 -0.1545  0.0718 -0.0518
 3899W        W20373   8.576  13.771   1.564  0.2492 -0.0279 -0.0253
 3900W        W20374  16.385   3.394   9.819  0.3302 -0.1366  0.0679
 3901W        W20375  15.106   4.301   4.655 -0.0410  0.1016  0.0296
 3902W        W20376  14.655   7.208  10.762  0.1062  0.0855  0.1528
 3903W        W20377   1.985  13.006   0.653 -0.4130 -0.2795  0.2871
 3904W        W20378   4.838   6.345   1.868 -0.2221  0.2996  0.1548
 3905W        W20379  15.316   8.857   0.730  0.0779  0.0774 -0.0378
 3906W        W20380  13.161  11.026  13.401 -0.1223 -0.0896  0.0088
 3907W        W20381   1.612   0.740  14.320 -0.1773  0.1090  0.3402
 3908W        W20382   9.794  11.781   4.115  0.0684 -0.0490  0.2231
 3909W        W20383  11.834  14.520  11.560  0.0365 -0.0591  0.3227
 3910W        W20384  11.986   9.691   3.854 -0.2244  0.0779  0.0946
 3911W        W20385   8.843  14.703   1.903 -0.2526 -0.0809  0.1167
 3912W        W20386   4.709   7.036  13.265  0.0587  0.1263  0.0256
 3913W        W20387  11.269  11.356   4.198  0.0170  0.1379 -0.0563
 3914W        W20388  15.036  14.069  12.398  0.2471  0.1142  0.2921
 3915W        W20389   9.644  10.361   4.287  0.3031 -0.1509 -0.0989
 3916W        W20390   6.192   6.763  10.244  0.1005  0.3451 -0.1140
 3917W        W20391  17.502   7.724   3.747 -0.0341 -0.1055  0.0328
 3918W        W20392   7.369  15.977   5.507  0.2919 -0.3120  0.0276
 3919W        W20393   8.562   9.424   4.308 -0.2199  0.0208 -0.1137
 3920W        W20394   3.688  14.817  14.949  0.0148  0.1343  0.1518
 3921W        W20395  11.086  16.151  12.891 -0.2073 -0.1771  0.3798
 3922W        W20396  15.902   6.550   0.141  0.0172 -0.0784 -0.0823
 3923W        W20397  12.473  16.921  11.993  0.0891 -0.1109  0.1097
 3924W        W20398  14.929   2.403   4.943 -0.0035 -0.2772  0.3061
 3925W        W20399   8.563  15.770   0.475 -0.2154 -0.0404 -0.1839
 3926W        W20400   6.777  11.785   4.726 -0.1694  0.3280  0.0560
 3927W        W20401  14.056   7.693  14.047 -0.0868 -0.1570 -0.1355
 3928W        W20402   9.352  16.990  14.280  0.1138  0.2250 -0.0110
 3929W        W20403   5.163   1.931   3.061  0.2825  0.4033 -0.0842
 3930W        W20404  12.615   7.983  15.058 -0.0629 -0.2171  0.0776
 3931W        W20405   4.249  10.899   2.166  0.1070 -0.1366  0.2212
 3932W        W20406  15.985  11.315  15.364  0.0111 -0.2686 -0.3003
 3933W        W20407  13.366  13.686  13.037  0.1577  0.0376  0.1133
 3934W        W20408   8.785  13.500  12.406 -0.0832  0.1878 -0.1964
 3935W        W20409   0.338   7.357  10.299 -0.1941  0.1280 -0.2242
 3936W        W20410  17.669   8.455   1.772 -0.1427 -0.2866  0.2476
 3937W        W20411   4.157   9.047  14.204  0.2482 -0.1183 -0.2439
 3938W        W20412   8.283  15.174  15.157  0.0103 -0.0734  0.4090
 3939W        W20413   2.503   5.490   3.475 -0.0562 -0.1451  0.2331
 3940W        W20414  11.323  14.172  16.286 -0.0488  0.0684  0.5685
 3941W        W20415   8.633   9.411  14.660 -0.0284 -0.1135  0.0386
 3942W        W20416   9.703   0.324  13.853  0.1610 -0.1473 -0.4094
 3943W        W20417   0.465   2.802   3.180 -0.0158 -0.0062  0.2846
 3944W        W20418   7.415  16.469  16.340 -0.2824 -0.2138  0.0976
 3945W        W20419   6.176   8.171   3.299 -0.0680 -0.2308 -0.1222
 3946W        W20420  16.574   9.408   3.626 -0.3140  0.2165  0.4637
 3947W        W20421  15.823   5.833  13.438 -0.1251  0.1155 -0.0574
 3948W        W20422   7.125  18.063  13.345 -0.1529  0.5085  0.1394
 3949W        W20423   7.116  15.014  15.316  0.0626  0.2338  0.2542
 3950W        W20424   5.428  11.954  12.693 -0.0998 -0.1143 -0.0742
 3951W        W20425   0.873  13.595   3.146  0.1948 -0.4231  0.3074
 3952W        W20426   1.305   8.846   0.263 -0.0418  0.0482  0.0543
 3953W        W20427  16.333   4.000   3.315  0.0437 -0.2997  0.1919
 3954W        W20428   8.684   7.489  13.340 -0.1260 -0.1155 -0.2066
 3955W        W20429   1.827   2.378   0.184 -0.1382  0.2010  0.2181
 3956W        W20430  16.651   4.350   4.347  0.1262 -0.0494  0.1236
 3957W        W20431   0.733   8.562  11.421  0.1942  0.0284 -0.0583
 3958W        W20432   3.851  12.009   4.949  0.1234 -0.0750 -0.1925
 3959W        W20433  15.284   0.425  15.063 -0.0961  0.1079  0.0362
 3960W        W20434  11.086  16.364   2.780 -0.0097 -0.2337  0.2297
 3961W        W20435   3.528  16.636  15.218 -0.2532 -0.1192  0.2688
 3962W        W20436  11.789  15.519   5.622 -0.3503 -0.2318  0.0357
 3963W        W20437  12.431   6.230  11.996  0.1117 -0.2289 -0.0066
 3964W        W20438  14.643   0.657   5.109 -0.0444  0.0587  0.2315
 3965W        W20439  15.123   8.695  10.601  0.0976 -0.0014 -0.1037
 3966W        W20440   8.933  11.016  12.454  0.1328 -0.2749  0.0348
 3967W        W20441   2.811   9.161  13.669  0.0817 -0.0322  0.0345
 3968W        W20442  16.492  11.635  13.130  0.2430 -0.0460  0.0750
 3969W        W20443   1.781   7.427   0.075 -0.0271 -0.0169 -0.0673
 3970W        W20444  15.583   7.105   2.794 -0.1597  0.0963  0.2806
 3971W        W20445  14.873   8.217  11.665 -0.1533 -0.2220 -0.1343
 3972W        W20446   2.168   1.937  14.723  0.2069  0.2582 -0.0057
 3973W        W20447  18.043  11.528   5.102  0.2684 -0.2313 -0.0759
 3974W        W20448  16.389   8.667   2.547  0.2007 -0.3100  0.0041
 3975W        W20449   5.581  18.115   3.691  0.6348  0.1830 -0.1113
 3976W        W20450  11.900  15.996   1.296  0.1729 -0.2552 -0.3002
 3977W        W20451  18.289  17.376  15.498 -0.2563  0.1627 -0.1952
 3978W        W20452   3.002   9.655  13.747 -0.0246 -0.1451 -0.3249
 3979W        W20453   8.662  17.705  13.340 -0.1058  0.0014 -0.0585
 3980W        W20454   3.986  17.609  12.648  0.1918  0.0578  0.2798
 3981W        W20455   5.626   5.431  14.716  0.3257 -0.4609  0.1130
 3982W        W20456  10.956  13.724   4.275  0.0160 -0.2159 -0.1920
 3983W        W20457   4.840   9.462  10.778  0.1722 -0.1648  0.1050
 3984W        W20458  12.367   4.449  13.274  0.1210 -0.3393  0.2883
 3985W        W20459  18.350   2.084  11.473 -0.1042  0.2570 -0.0241
 3986W        W20460  17.947   4.131  13.528 -0.0145  0.1162 -0.0767
 3987W        W20461  17.417   6.256   5.543 -0.0091  0.4455  0.2639
 3988W        W20462   8.391  18.231  14.193  0.4238  0.0054 -0.4304
 3989W        W20463   6.671   1.387  14.683 -0.0887  0.1809  0.0247
 3990W        W20464  10.900  13.017  13.337 -0.1512  0.1608  0.2299
 3991W        W20465   6.180   8.911   4.803  0.1887 -0.3426  0.1081
 3992W        W20466  16.617  13.074   4.557  0.0022 -0.0052  0.0113
 3993W        W20467  18.052  12.022  13.161 -0.0073 -0.3192 -0.3151
 3994W        W20468  17.662  12.698  10.908 -0.2029  0.1079 -0.3624
 3995W        W20469   8.865   6.486   0.748  0.0326  0.1930  0.0742
 3996W        W20470   0.504  15.023  12.241 -0.1001 -0.1015  0.3304
 3997W        W20471  17.885   9.828  13.649  0.1443 -0.1690 -0.4268
 3998W        W20472   5.861  11.655   3.166 -0.0297 -0.1108  0.1783
 3999W        W20473   4.759   4.343   1.273 -0.1892 -0.1487 -0.1393
 4000W        W20474  14.767   8.161  16.136 -0.2292 -0.1666 -0.4519
 4001W        W20475  10.981  11.422  13.142  0.3533  0.0968  0.1725
 4002W        W20476  17.125   4.844   1.106  0.0462  0.2141  0.0579
 4003W        W20477   1.992  14.806   0.166 -0.6056  0.3403 -0.0606
 4004W        W20478  16.729  10.374   1.656  0.0472  0.2972 -0.2222
 4005W        W20479  11.432  13.569   4.669  0.1507  0.2735 -0.2019
 4006W        W20480   5.139   8.971   2.300 -0.1552 -0.1793 -0.2932
 4007W        W20481   1.341  11.936  12.232 -0.1867  0.3358  0.0621
 4008W        W20482  10.156  15.293   2.263 -0.0262 -0.1543  0.1937
 4009W        W20483   2.403   0.062   0.376  0.3307  0.0051  0.0721
 4010W        W20484   3.188  17.075  16.142  0.4614 -0.0044 -0.0506
 4011W        W20485  16.528  16.495  13.718 -0.2755 -0.1010 -0.4014
 4012W        W20486  17.801   3.221   0.987 -0.0577  0.1129  0.0236
 4013W        W20487   1.857   7.891   0.901  0.1422 -0.3770  0.1162
 4014W        W20488  10.061  11.806  14.916 -0.1347  0.0378  0.2221
 4015W        W20489  12.486  17.379   3.401  0.0408 -0.1611  0.0049
 4016W        W20490   5.118   4.380  11.532  0.0474 -0.1938 -0.4334
 4017W        W20491   7.691   8.683  12.954 -0.0992  0.1211 -0.4689
 4018W        W20492   0.952  14.750  13.945  0.1073 -0.0018 -0.4969
 4019W        W20493  18.112  15.239   2.238  0.0359  0.0277  0.0884
 4020W        W20494  10.889   7.772   4.958  0.3198  0.0480 -0.2506
 4021W        W20495   4.140  11.069   3.500  0.1000  0.1139 -0.1293
 4022W        W20496   2.877   7.316   2.903 -0.2549  0.0055  0.2822
 4023W        W20497   8.659  15.106  14.156  0.0188  0.3746 -0.1259
 4024W        W20498   7.450  12.025  11.558 -0.0234 -0.4092  0.0252
 4025W        W20499   9.360   4.618   1.998  0.3933 -0.1939 -0.0832
 4026W        W20500   4.299   9.305   0.593  0.2186  0.0169 -0.1876
 4027W        W20501  13.126   3.984   0.564  0.1163  0.1596  0.2447
 4028W        W20502   0.354  14.659   4.734  0.0491  0.1854 -0.2137
 4029W        W20503   1.165   6.885  12.051  0.0783 -0.3227  0.0138
 4030W        W20504   9.261   6.526   1.466  0.2894 -0.1896 -0.1211
 4031W        W20505   9.355  16.340   1.819 -0.0261 -0.1431  0.0305
 4032W        W20506  15.051   2.799   4.638  0.0868 -0.0145  0.2992
 4033W        W20507   7.794  15.807  13.269 -0.0195  0.1742 -0.1290
 4034W        W20508   0.650   1.444  15.801  0.2586  0.2835  0.0372
 4035W        W20509   8.019   8.657  10.881 -0.0718 -0.1470  0.1312
 4036W        W20510  15.697  13.419  12.063  0.4144 -0.0259 -0.0235
 4037W        W20511   0.513  17.046   0.602 -0.0057 -0.0328  0.3048
 4038W        W20512   2.835  10.802  11.624 -0.0141  0.0485 -0.0372
 4039W        W20513  15.790   6.636   4.434 -0.1514  0.0615  0.1910
 4040W        W20514   5.239  15.188  14.938 -0.0643 -0.0529 -0.0984
 4041W        W20515   1.281   7.894   4.404  0.2387 -0.4047  0.1066
 4042W        W20516   4.136   6.987  14.790  0.0443  0.0815  0.0012
 4043W        W20517  16.608  13.508   4.222  0.1011  0.0646 -0.2191
 4044W        W20518  16.060   3.302   0.074 -0.2131 -0.2748  0.1255
 4045W        W20519  11.234   7.164  13.235  0.1263  0.2432 -0.1359
 4046W        W20520  11.460   5.161   3.893 -0.0928  0.4386 -0.0926
 4047W        W20521   1.316   3.913  12.150  0.0067 -0.0230  0.3310
 4048W        W20522  17.116  13.183  11.120 -0.0459 -0.2358 -0.0699
 4049W        W20523  18.019   9.732   4.390 -0.0106  0.0129 -0.0735
 4050W        W20524   5.026   3.082  13.299  0.1387 -0.0187 -0.0892
 4051W        W20525   2.986  18.205   4.230  0.0838  0.0892 -0.1576
 4052W        W20526   4.419   7.565   2.372 -0.0650  0.0191  0.1549
 4053W        W20527  15.741  14.183  16.059  0.0335 -0.2181  0.2423
 4054W        W20528  16.646  11.090  13.236 -0.1408 -0.0820  0.3674
 4055W        W20529  17.150   9.308  12.392  0.2639  0.0273  0.0844
 4056W        W20530   8.976  14.701  15.306 -0.3092 -0.1091  0.0032
 4057W        W20531   1.703   9.971   2.468 -0.1786  0.1446  0.2659
 4058W        W20532  15.621   2.144  15.366  0.2945 -0.1704 -0.1705
 4059W        W20533  15.525   6.968  11.207 -0.2408  0.2192  0.0646
 4060W        W20534   4.271   8.720  14.990 -0.1055 -0.0367  0.1347
 4061W        W20535   8.188  16.363   4.827 -0.1104 -0.0775 -0.2354
 4062W        W20536   1.710  15.400  11.852  0.0981 -0.1027  0.1451
 4063W        W20537  16.662   4.689  15.406  0.3502 -0.3498  0.1351
 4064W        W20538   6.134  16.090   2.959  0.0239  0.1256  0.1750
 4065W        W20539  18.201  12.355   4.450  0.2819 -0.0565 -0.2323
 4066W        W20540   5.001  14.783   3.607  0.1306  0.3049  0.1168
 4067W        W20541  13.194  14.549   2.981  0.0199  0.1287 -0.0663
 4068W        W20542  14.722  15.753   1.463 -0.0179 -0.0433 -0.1974
 4069W        W20543  17.347  11.306  15.732 -0.1327  0.1362 -0.0174
 4070W        W20544  16.474   0.239  13.443 -0.1827 -0.1469 -0.1402
 4071W        W20545   3.426   9.788   1.463  0.1405  0.0776 -0.0838
 4072W        W20546   4.437   2.260  13.608  0.4910  0.0191 -0.0793
 4073W        W20547  11.189  16.045  15.829  0.2289  0.4070  0.1639
 4074W        W20548  16.010   2.817  11.240 -0.0398 -0.0405  0.0411
 4075W        W20549   3.199  11.252   3.329 -0.0316 -0.1364 -0.0982
 4076W        W20550  18.094   8.730   2.231  0.0167 -0.0783 -0.0209
 4077W        W20551  10.707   7.287   2.952  0.0020 -0.2377 -0.2504
 4078W        W20552   1.334  13.053  16.143  0.0817  0.0139 -0.2182
 4079W        W20553   5.960   5.768  13.025  0.0404 -0.0339  0.2660
 4080W        W20554   5.078  12.170   0.377 -0.2084  0.1054  0.0616
 4081W        W20555   4.483   0.546  14.334  0.3298 -0.0163 -0.0745
 4082W        W20556  16.755  10.576   5.647  0.1238  0.1086 -0.2775
 4083W        W20557  13.751   4.531  11.647 -0.0244 -0.1950  0.0433
 4084W        W20558  15.954   6.607  15.067 -0.2456  0.0908  0.0952
 4085W        W20559  18.228  13.065   5.607  0.1628 -0.2049 -0.0390
 4086W        W20560  16.323   7.521  11.187  0.0707  0.0135 -0.0305
 4087W        W20561  10.531   6.230  12.675  0.4414 -0.2322  0.2276
 4088W        W20562   2.336  13.320   5.847  0.3195 -0.1607 -0.3626
 4089W        W20563   0.497   7.286   4.035  0.1516 -0.0053  0.0882
 4090W        W20564   7.047   6.401   0.082 -0.0105  0.3205  0.0069
 4091W        W20565   3.434  11.985   0.152 -0.1140 -0.0840 -0.3467
 4092W        W20566   5.324   5.272  13.230 -0.1506  0.2343 -0.0268
 4093W        W20567  16.841   2.554  16.171  0.0107 -0.1082 -0.1993
 4094W        W20568   5.222   2.842   0.987  0.1541  0.2003  0.0200
 4095W        W20569  15.956   8.435   2.610 -0.3828 -0.0484 -0.1201
 4096W        W20570  16.086   0.695   1.783 -0.0887  0.1684 -0.1430
 4097W        W20571  11.059   7.908  12.908  0.1425 -0.1630 -0.2650
 4098W        W20572   2.028   0.521   0.247  0.2133 -0.4356  0.0325
 4099W        W20573   2.229  16.203   4.362  0.0261  0.0354  0.1061
 4100W        W20574   0.536   5.439   1.543 -0.3686  0.2066  0.3146
 4101W        W20575   2.668   7.713   1.278  0.1338 -0.0191 -0.0487
 4102W        W20576  15.543   0.275  12.452  0.2349  0.1997  0.1165
 4103W        W20577   6.605   8.465  12.156 -0.1779 -0.1080 -0.2025
 4104W        W20578  11.080  15.782   0.312 -0.1805  0.2419  0.3487
 4105W        W20579  17.766  10.828   0.807 -0.1300  0.1548  0.1982
 4106W        W20580  11.402   1.585  13.569 -0.2690 -0.0788  0.0507
 4107W        W20581   5.041   0.925  12.585 -0.4709  0.1034 -0.1336
 4108W        W20582  12.366   9.320  14.674 -0.1190  0.1256 -0.2154
 4109W        W20583   8.323   2.192  16.208  0.1794  0.0463  0.0350
 4110W        W20584  13.566   0.161  15.539  0.2304 -0.0683 -0.1383
 4111W        W20585   9.666   2.601   1.061 -0.0981 -0.0078  0.0385
 4112W        W20586  12.313   3.435   1.702 -0.0539  0.7089  0.0330
 4113W        W20587  16.156   9.442  12.311  0.3593  0.0844  0.3747
 4114W        W20588  11.654  16.012  13.602 -0.3719 -0.2875  0.1286
 4115W        W20589   6.941  11.394  15.125  0.3026  0.2063 -0.0447
 4116W        W20590   3.948   2.119  13.383  0.3538 -0.0430 -0.0488
 4117W        W20591   0.906   0.192  14.358  0.1920 -0.0186  0.0938
 4118W        W20592   0.457  14.351  16.078  0.1665  0.1001  0.3613
 4119W        W20593   6.897   3.512  12.610  0.0591  0.0486 -0.1180
 4120W        W20594   0.288   2.034   1.847  0.1094 -0.1257  0.0934
 4121W        W20595   7.681  14.988  15.963 -0.0406  0.1601 -0.0643
 4122W        W20596   7.492   5.296  14.089  0.1803  0.0899 -0.3642
 4123W        W20597   3.014  11.385   4.129 -0.0988  0.4597  0.0100
 4124W        W20598  14.084  15.054  13.214  0.2979  0.1199 -0.1798
 4125W        W20599  15.591   4.860  12.778  0.1280  0.2079 -0.0807
 4126W        W20600  16.789   5.028   3.492  0.0432  0.0056  0.4662
 4127W        W20601   1.397   9.170  11.610  0.3241 -0.2819  0.0499
 4128W        W20602   7.693  11.683  14.652  0.2165 -0.0710 -0.0648
 4129W        W20603   7.922  13.177  14.907  0.2669  0.1575  0.1297
 4130W        W20604   1.372   6.580   1.453 -0.2331 -0.1972 -0.0170
 4131W        W20605   9.229   8.514   4.018  0.3169  0.0499 -0.2066
 4132W        W20606   4.694   4.209  14.444  0.1118 -0.0522  0.0436
 4133W        W20607   5.856   0.073   5.093  0.2349  0.0831  0.1881
 4134W        W20608  13.628   8.303   5.155 -0.2834 -0.2924 -0.1198
 4135W        W20609  10.713   1.412   0.205  0.1280  0.0380  0.1459
 4136W        W20610   7.937   7.193  14.726 -0.1857  0.2186 -0.0577
 4137W        W20611   9.769  13.488   1.898  0.0706 -0.0642  0.1835
 4138W        W20612  18.148  13.990   1.641 -0.0638  0.0877  0.2207
 4139W        W20613  10.037   6.353  12.482 -0.2476 -0.0378  0.0231
 4140W        W20614   8.843   0.653   3.047  0.0428  0.0969  0.1260
 4141W        W20615  13.518  16.317   2.420  0.0456  0.3405 -0.2585
 4142W        W20616  15.174  13.549  15.881 -0.0685 -0.1055 -0.0889
 4143W        W20617   8.436  11.998  11.093 -0.2736 -0.3333  0.0525
 4144W        W20618   2.965   1.636  13.760  0.1062  0.0070  0.0125
 4145W        W20619  11.526  10.080  11.628 -0.2266  0.0475 -0.3893
 4146W        W20620   8.790   6.761  11.212 -0.1503  0.0053 -0.3327
 4147W        W20621  11.209  16.773   1.105  0.0282  0.1053  0.0315
 4148W        W20622  16.520  18.115  16.054  0.0882 -0.1498  0.3119
 4149W        W20623  14.754  16.290  13.791  0.0881  0.1231  0.1837
 4150W        W20624   7.659   2.342   1.495  0.0866 -0.3666  0.0627
 4151W        W20625   3.966  10.608   0.470 -0.1423  0.0407 -0.1485
 4152W        W20626   2.104   4.811  15.465 -0.0222 -0.0995  0.0904
 4153W        W20627   5.668  10.290   2.145 -0.0812 -0.1293  0.1421
 4154W        W20628  16.904  14.530  14.627 -0.1964  0.1055  0.0845
 4155W        W20629   2.517   5.707  11.539  0.1490 -0.2954  0.1411
 4156W        W20630   1.059  11.110   2.905 -0.3231  0.0149  0.0402
 4157W        W20631   4.797  12.284   5.101  0.0402 -0.0271 -0.0347
 4158W        W20632  16.616  15.595   3.231  0.0567 -0.0789  0.0262
 4159W        W20633   1.178   8.407   2.099  0.0194 -0.0330  0.1799
 4160W        W20634  12.558   2.613  13.836  0.1483 -0.1592 -0.0234
 4161W        W20635   1.169   0.730   2.604  0.2319  0.0579 -0.0819
 4162W        W20636   1.995   7.007   1.491 -0.2006  0.1612 -0.2555
 4163W        W20637  12.780   2.117   1.941  0.0160  0.0570 -0.2521
 4164W        W20638   4.425  12.820   1.030 -0.5048 -0.1577  0.1186
 4165W        W20639  10.548  11.881   4.334 -0.1368 -0.0417 -0.4374
 4166W        W20640  13.101   2.652   1.142 -0.1162  0.0138  0.2340
 4167W        W20641  12.731   2.519   1.661 -0.0440 -0.0801 -0.4026
 4168W        W20642  13.166  10.268  14.074  0.1105 -0.3160  0.3623
 4169W        W20643   7.698  10.894  16.269  0.2499  0.0260 -0.1916
 4170W        W20644  16.427  12.315  15.494 -0.1558  0.0078 -0.0269
 4171W        W20645  12.550   9.499  13.815 -0.3318 -0.0868 -0.1458
 4172W        W20646  16.325   1.689  15.629  0.1486  0.1544 -0.1764
 4173W        W20647   8.833  11.327  10.579 -0.4505  0.1298 -0.1411
 4174W        W20648   2.662   0.843  15.125 -0.0162 -0.3978 -0.1313
 4175W        W20649  14.757   1.869   3.570  0.2950 -0.2978  0.0798
 4176W        W20650   5.334  15.658   5.876 -0.1327  0.0275  0.3336
 4177W        W20651   1.073   1.344   1.986  0.4082 -0.2372  0.0136
 4178W        W20652  15.018  14.807  13.870 -0.0333  0.2471  0.0825
 4179W        W20653  11.060  12.470  10.324  0.0613 -0.1200  0.4499
 4180W        W20654  16.511   4.752   3.984 -0.0962  0.1194  0.3159
 4181W        W20655   0.130  18.108  11.770 -0.2752 -0.0199  0.1273
 4182W        W20656   1.398   8.025   3.502 -0.0836  0.1147  0.0636
 4183W        W20657  17.151  13.561  12.933 -0.0857  0.0879  0.1418
 4184W        W20658  17.100   6.579   2.816 -0.1140 -0.1415 -0.0706
 4185W        W20659   4.691  13.570  12.889 -0.0425  0.0966 -0.1689
 4186W        W20660  15.792   5.195   3.180 -0.2712 -0.0598 -0.0044
 4187W        W20661  14.589   3.494  13.404  0.1578 -0.2058  0.2274
 4188W        W20662   5.639  15.482   4.611  0.1044 -0.1504  0.1234
 4189W        W20663  11.524   4.147  12.908  0.1581  0.3960 -0.0603
 4190W        W20664  13.826   5.730  15.737  0.5593  0.0063 -0.0533
 4191W        W20665   2.519   2.637   5.281 -0.0761 -0.1784  0.1482
 4192W        W20666  10.987   3.923  11.014  0.0277 -0.1299 -0.2560
 4193W        W20667   6.047  11.173   5.393 -0.0046  0.2213 -0.0629
 4194W        W20668   8.768  14.698  15.840  0.0953  0.0097 -0.1276
 4195W        W20669   1.741  12.611   3.145  0.0973 -0.3311 -0.3724
 4196W        W20670  17.568   2.785  12.380 -0.0227 -0.3514 -0.1985
 4197W        W20671   4.288   5.014  11.556 -0.1848 -0.0863  0.1675
 4198W        W20672   9.254   9.667  15.569 -0.1207  0.1154  0.1106
 4199W        W20673   5.322  14.309  15.363  0.0110 -0.0633  0.0543
 4200W        W20674  17.984   1.239   5.421  0.1921 -0.0627 -0.1839
 4201W        W20675  17.010   6.513   5.450  0.0405  0.2237  0.2093
 4202W        W20676   1.540   9.914   1.431 -0.1151 -0.1451  0.0607
 4203W        W20677  15.587   7.573   3.579  0.2242  0.0333 -0.2320
 4204W        W20678   9.603   5.609   1.143 -0.0391  0.0904  0.0016
 4205W        W20679   1.470   7.574   3.258 -0.0421  0.2243  0.0759
 4206W        W20680   7.469   9.904  10.525 -0.2596 -0.0186  0.1333
 4207W        W20681   8.321   1.082   3.666 -0.5773 -0.1268  0.3179
 4208W        W20682  16.161   9.192  10.849  0.1837 -0.1620  0.1599
 4209W        W20683   3.984   6.236   0.103 -0.0196 -0.1340 -0.0910
 4210W        W20684   7.329  15.152   6.698  0.0729 -0.0702 -0.1100
 4211W        W20685  18.242   8.941   3.724 -0.1568  0.1830  0.0011
 4212W        W20686  13.399   9.622  12.721  0.0610 -0.0886 -0.0884
 4213W        W20687   3.757   5.658   2.619  0.1626  0.1669 -0.0785
 4214W        W20688  15.003  11.109  13.179 -0.3270  0.2684  0.0976
 4215W        W20689   3.534   1.125   0.411  0.0280  0.3255  0.0941
 4216W        W20690  15.951  18.366  12.009 -0.0821 -0.0369 -0.0033
 4217W        W20691   6.482  10.653   3.253 -0.2654  0.0146  0.3362
 4218W        W20692  15.302   9.734  13.711 -0.1250 -0.2117  0.0503
 4219W        W20693   1.110  14.355  12.192  0.2352  0.7020 -0.1847
 4220W        W20694  16.396   1.609   4.666 -0.1503 -0.0547  0.1669
 4221W        W20695   3.606   4.347  14.300 -0.1937  0.1705 -0.1204
 4222W        W20696  12.458  10.276  12.032 -0.0107 -0.0570  0.0205
 4223W        W20697   4.851  14.444  14.510 -0.0268 -0.1456  0.1388
 4224W        W20698   2.961   2.036   3.513 -0.0365 -0.0900 -0.0047
 4225W        W20699   0.981  12.481   2.341 -0.2226  0.3033 -0.0500
 4226W        W20700  18.166  13.770   2.420  0.0658 -0.0399 -0.0582
 4227W        W20701   4.611  16.664   0.981 -0.0560  0.3714  0.0742
 4228W        W20702  15.821   8.316   1.482  0.0320 -0.0533  0.2341
 4229W        W20703   3.206   6.092  14.276 -0.1267 -0.2520 -0.0989
 4230W        W20704   2.636  14.802   4.211 -0.0574 -0.0630  0.2427
 4231W        W20705  17.394  16.519  14.170  0.0734  0.2132  0.0372
 4232W        W20706  15.713  10.263  11.750 -0.3491 -0.1515  0.1938
 4233W        W20707   2.599   1.341  15.417  0.1193  0.0184 -0.0136
 4234W        W20708  10.560   4.782  13.187  0.1376  0.0418  0.0532
 4235W        W20709  14.004   1.829  13.757  0.0242  0.1639  0.1096
 4236W        W20710  15.357   8.452  13.544 -0.1223 -0.1228  0.2425
 4237W        W20711   9.151   3.633  15.636  0.0895 -0.2227 -0.2235
 4238W        W20712  12.377   9.248  15.511 -0.3615 -0.0974  0.0350
 4239W        W20713   7.762   3.585   1.662 -0.1156  0.1538 -0.0941
 4240W        W20714   8.372  15.824  15.182  0.0676 -0.3795  0.1468
 4241W        W20715   9.356   2.851  12.852  0.3567 -0.0180 -0.2324
 4242W        W20716   2.042   1.780   4.450 -0.2697  0.0210 -0.1574
 4243W        W20717   0.470   6.343   1.315  0.1265 -0.2489 -0.1837
 4244W        W20718   5.468  17.068   4.690 -0.0767  0.0550 -0.1000
 4245W        W20719  17.817  12.074   4.506  0.1767  0.1032  0.0335
 4246W        W20720  15.445  13.037  16.238 -0.0713  0.1238 -0.1586
 4247W        W20721   3.441   0.247   0.481  0.3217 -0.2392 -0.6613
 4248W        W20722   7.768   7.851  13.920 -0.2056  0.1018  0.0910
 4249W        W20723  10.731  13.368   1.174 -0.0741 -0.5503 -0.2296
 4250W        W20724  11.667   1.110   1.666  0.1314 -0.0764  0.2268
 4251W        W20725  11.396   7.136  11.602  0.3536  0.2130  0.0882
 4252W        W20726   2.791   5.750  12.848 -0.1719  0.0539 -0.2280
 4253W        W20727  16.806  10.670   0.202 -0.1395  0.0434 -0.2329
 4254W        W20728  14.730  14.504   3.089  0.0050  0.4269 -0.0753
 4255W        W20729   2.541   0.855   5.185 -0.1994  0.2323  0.0377
 4256W        W20730   3.324  11.628  15.449 -0.0784 -0.1573  0.1499
 4257W        W20731  18.286  11.008   1.985  0.1263  0.2160  0.1209
 4258W        W20732   5.044  13.798  13.195  0.1997 -0.3071 -0.3632
 4259W        W20733  12.119   5.919  12.877 -0.1480 -0.0258 -0.0385
 4260W        W20734  11.378  12.247  13.358 -0.1215  0.2018  0.3217
 4261W        W20735   3.793  16.899   3.727 -0.0889 -0.2976 -0.1429
 4262W        W20736  12.151  12.911  11.422 -0.0721  0.1618 -0.2277
 4263W        W20737   9.718  11.250   1.381  0.0309  0.1541 -0.2392
 4264W        W20738   0.778   5.484   2.039 -0.2666 -0.2095  0.0399
 4265W        W20739   3.682   8.793  13.020  0.0207 -0.1379  0.3941
 4266W        W20740   9.736  16.188   3.273 -0.3017  0.0954 -0.3775
 4267W        W20741   1.371   7.370   5.209 -0.1538 -0.1182  0.2009
 4268W        W20742  16.710  15.501   2.232 -0.2683 -0.1286  0.1301
 4269W        W20743   4.724   1.651   0.118  0.2022  0.1785 -0.0437
 4270W        W20744  10.052  12.678   4.143 -0.0652 -0.1327 -0.2128
 4271W        W20745  11.878  10.437  12.667 -0.0156 -0.0361  0.1130
 4272W        W20746   3.903   0.178   0.297  0.0127  0.4638 -0.2878
 4273W        W20747   6.181  12.909  13.784 -0.0120  0.0880 -0.0873
 4274W        W20748   2.574   9.272   1.283 -0.4064 -0.1470  0.0244
 4275W        W20749   2.632  11.072   3.076 -0.1470  0.1934  0.2270
 4276W        W20750   4.705   1.820   5.614 -0.0225  0.0448  0.0982
 4277W        W20751   8.347   3.265   4.487 -0.1344  0.2839 -0.2113
 4278W        W20752   4.279  15.629  15.730  0.1215 -0.1761 -0.1655
 4279W        W20753   7.071   1.916  12.558 -0.3116 -0.1876  0.0054
 4280W        W20754  16.378  15.268  15.564 -0.3386  0.1818 -0.2637
 4281W        W20755   5.098  16.100  15.261 -0.1941 -0.3332  0.4663
 4282W        W20756   5.904   5.592   2.358 -0.0575 -0.0206 -0.2237
 4283W        W20757   7.138  14.844  16.191  0.2386 -0.2696  0.0954
 4284W        W20758  16.735   4.334   3.760 -0.2237 -0.1180  0.4048
 4285W        W20759   6.912  16.577   4.057  0.2890  0.1451  0.0153
 4286W        W20760  10.733  12.318   4.466 -0.2113  0.1142 -0.1521
 4287W        W20761   9.383  10.664   1.017  0.0213 -0.1900 -0.0281
 4288W        W20762  13.741  11.940   4.228  0.3382 -0.2886 -0.2999
 4289W        W20763   9.390   0.236   4.037  0.0154  0.1646  0.3304
 4290W        W20764   6.017   7.422  11.072 -0.3916  0.2246  0.1873
 4291W        W20765   8.756   3.438   1.491 -0.0855  0.0990  0.1320
 4292W        W20766  16.256  14.820   3.241 -0.0526 -0.0571  0.2187
 4293W        W20767   0.651  12.898  13.910 -0.2372 -0.1338  0.3020
 4294W        W20768   2.366   2.606  12.853  0.0785  0.1496  0.0384
 4295W        W20769  10.531   7.582  14.182  0.2288 -0.1262 -0.1271
 4296W        W20770  12.050   8.301   4.214 -0.0771 -0.0402  0.2131
 4297W        W20771   0.086   9.534   1.970  0.1838 -0.1568  0.1547
 4298W        W20772  15.827  15.960  12.357 -0.0902  0.0376 -0.0931
 4299W        W20773  13.279  11.658  16.211  0.0671 -0.0349  0.0957
 4300W        W20774   7.905  11.101   5.320 -0.0278  0.1199 -0.3037
 4301W        W20775   8.508   8.316   3.760  0.2305 -0.4826 -0.5010
 4302W        W20776  11.913   9.827  16.078 -0.0979  0.1545 -0.1515
 4303W        W20777  13.775  12.498  13.437 -0.0193  0.1972 -0.0891
 4304W        W20778   2.877  13.350   0.435  0.2060 -0.1312  0.1016
 4305W        W20779   0.526   8.873  15.996 -0.2506 -0.2456  0.0867
 4306W        W20780   7.061  12.350   3.295  0.0558  0.0696 -0.0540
 4307W        W20781   7.596   9.579  11.098  0.0005 -0.1911 -0.3612
 4308W        W20782   2.021  14.508  12.317  0.0066  0.0046 -0.1641
 4309W        W20783   7.621  17.018   6.597 -0.1658 -0.0313 -0.0673
 4310W        W20784  16.688   6.038  14.908  0.1478  0.0931 -0.1847
 4311W        W20785   3.503  13.032  14.017 -0.0389  0.2240 -0.2345
 4312W        W20786   7.817   5.763   3.182 -0.0092 -0.0257 -0.1193
 4313W        W20787  16.439   9.132   2.908 -0.1228  0.1145 -0.3333
 4314W        W20788  17.543   0.547   0.989 -0.1149  0.5206 -0.0966
 4315W        W20789  10.180   9.998  15.387  0.1652 -0.0486  0.1692
 4316W        W20790   5.179  14.312  13.217 -0.2952 -0.0084 -0.0590
 4317W        W20791  16.167  11.060  13.516  0.0246 -0.0095  0.1490
 4318W        W20792  10.320  17.594   5.823 -0.2101  0.5125  0.6039
 4319W        W20793  16.621   4.200  13.299 -0.0470 -0.0460 -0.3325
 4320W        W20794  18.317   0.695   2.982  0.2492 -0.4832 -0.1000
 4321W        W20795  15.190   7.048  14.520 -0.0045 -0.2817 -0.3545
 4322W        W20796   8.535  13.643  11.588  0.1294  0.1120 -0.0244
 4323W        W20797  15.098   8.891  11.085  0.1129  0.1800  0.0427
 4324W        W20798  12.465   3.113  12.089  0.1232  0.4366  0.1504
 4325W        W20799   0.424  16.122  15.663  0.0472 -0.1870  0.1622
 4326W        W20800  14.687   2.472  11.432 -0.0702 -0.2627 -0.2081
 4327W        W20801   9.022  14.141  14.437  0.0518  0.2649  0.0345
 4328W        W20802   6.185  13.547   0.392 -0.0915  0.0173  0.3989
 4329W        W20803  14.259  15.785   3.614 -0.2004  0.0180 -0.0498
 4330W        W20804  16.853   9.345  16.140 -0.2491 -0.2583  0.2626
 4331W        W20805   3.148  11.746   2.567  0.3970  0.2686 -0.0212
 4332W        W20806   3.206   1.775   2.284  0.2409  0.0266 -0.0364
 4333W        W20807  16.287  15.174   2.411 -0.0385  0.1022  0.0247
 4334W        W20808  15.113   6.385  11.356 -0.1133 -0.3893  0.1281
 4335W        W20809  11.942   3.100  15.926  0.2497 -0.0027  0.0657
 4336W        W20810   2.696   2.671  13.692 -0.1245  0.1689 -0.2846
 4337W        W20811   0.438   6.132  16.139 -0.2292 -0.0200  0.2890
 4338W        W20812   2.052   5.247  14.307 -0.0111 -0.4104  0.0455
 4339W        W20813   9.936  10.074  16.253 -0.1500 -0.4464 -0.0525
 4340W        W20814   2.101  15.001   2.043  0.3371  0.2990 -0.1664
 4341W        W20815   8.448  17.677   1.532  0.1466 -0.3978  0.4224
 4342W        W20816   7.145   2.095   2.415 -0.0999  0.4597 -0.2833
 4343W        W20817  11.874  15.254   3.882 -0.0082 -0.4172 -0.3588
 4344W        W20818   7.007  16.096   5.198 -0.0062  0.5439  0.1614
 4345W        W20819  13.341   8.716   3.726 -0.0777  0.1017 -0.0887
 4346W        W20820  12.564  13.155   0.970 -0.2312  0.1926 -0.1952
 4347W        W20821   4.441   6.862  11.867 -0.0453 -0.3901 -0.0625
 4348W        W20822  12.213   4.598   3.059 -0.1239 -0.1731  0.2001
 4349W        W20823   4.799   1.010   1.365 -0.2045 -0.0453 -0.0224
 4350W        W20824  11.303  12.845   4.915 -0.2207 -0.3071  0.0224
 4351W        W20825  17.611   2.525   3.844  0.3890  0.0650 -0.0966
 4352W        W20826   9.226  10.176  14.351  0.0386 -0.0154  0.0892
 4353W        W20827  17.101  16.265   1.223 -0.0471  0.0528  0.1151
 4354W        W20828   8.051  11.720   0.137  0.0043 -0.2873  0.0332
 4355W        W20829   0.658   1.284   4.795  0.3788 -0.0693 -0.3698
 4356W        W20830  15.418   0.711  14.657 -0.3484  0.0235 -0.0897
 4357W        W20831   8.324  13.690  13.778 -0.1414  0.1002 -0.1106
 4358W        W20832   9.611   5.010  15.215 -0.0615 -0.1294 -0.3683
 4359W        W20833   0.841  14.113  11.795 -0.2674  0.3533  0.1630
 4360W        W20834  13.954   4.173   4.068  0.1022  0.1900 -0.0636
 4361W        W20835   7.165   4.923   0.833 -0.1982 -0.2345  0.1703
 4362W        W20836   2.710   2.477  13.199  0.3058  0.0733 -0.0468
 4363W        W20837  14.827  12.329  13.259  0.0734 -0.0689  0.3332
 4364W        W20838  14.394   7.129   4.745  0.0058 -0.0617  0.1128
 4365W        W20839  15.651   8.544  10.377 -0.0372 -0.0566  0.0080
 4366W        W20840  12.067   7.605  14.413 -0.0056  0.4486 -0.0063
 4367W        W20841   4.118  14.220   0.623 -0.0859  0.3277 -0.2484
 4368W        W20842  14.547   8.833   0.306  0.2734  0.3881  0.2077
 4369W        W20843   9.119   8.918   2.483  0.0366  0.0348  0.0076
 4370W        W20844   7.491   6.535  13.552 -0.0432  0.2723  0.2375
 4371W        W20845  11.772   8.490  11.535  0.1437  0.1521  0.1593
 4372W        W20846  15.424  17.049  11.668  0.0036 -0.1217 -0.0672
 4373W        W20847  11.101   5.418   5.524  0.2792 -0.2642  0.1663
 4374W        W20848   2.245  11.523   2.820 -0.1871 -0.1407 -0.2258
 4375W        W20849   8.149   3.832  15.369  0.2097  0.2088 -0.1337
 4376W        W20850  16.621   9.812   2.336  0.2950  0.0685  0.3418
 4377W        W20851   3.357   5.683   3.123  0.1603  0.0055 -0.1534
 4378W        W20852  17.328   0.185   2.052 -0.1640  0.2121  0.2291
 4379W        W20853   2.366  10.460   4.629 -0.2330  0.0941  0.0977
 4380W        W20854   1.063  15.453  11.831  0.2519 -0.2403  0.0129
 4381W        W20855   0.431  16.350  16.200  0.0612 -0.4230  0.0804
 4382W        W20856  17.615   1.939   0.176  0.0700  0.2193 -0.1887
 4383W        W20857   0.471   1.829   3.273  0.0726 -0.0645  0.0417
 4384W        W20858  13.012   4.401  13.304 -0.1864 -0.0195 -0.3310
 4385W        W20859   9.111   9.438   5.470  0.0408 -0.1722  0.2993
 4386W        W20860   9.109   6.090   2.359 -0.0909  0.2084  0.1436
 4387W        W20861  10.279   4.316  10.405  0.1010  0.3464 -0.3740
 4388W        W20862   0.041  15.099  14.054  0.1525 -0.0186 -0.1137
 4389W        W20863   6.307   2.647  13.670 -0.0720  0.2825 -0.1522
 4390W        W20864  16.941   3.572  12.683 -0.0113  0.0660 -0.1506
 4391W        W20865  15.030   4.918  12.135  0.3231  0.0677 -0.4448
 4392W        W20866  17.180   4.180   4.207  0.2268  0.0579 -0.1961
 4393W        W20867   5.741  14.425   0.069 -0.1483  0.0638  0.1121
 4394W        W20868   5.499   2.882  15.943 -0.0762  0.1857  0.0778
 4395W        W20869  17.667  13.808   1.715  0.0042  0.0747  0.1949
 4396W        W20870   2.184   6.836   2.167 -0.3567  0.1536 -0.0029
 4397W        W20871  12.802  17.320  12.093  0.1665  0.0276  0.0999
 4398W        W20872  11.581  10.848   0.214 -0.2117 -0.3782 -0.2089
 4399W        W20873  14.966   0.631   1.072  0.1175 -0.0893 -0.3266
 4400W        W20874   2.411   2.264  13.735 -0.2401  0.0827 -0.0237
 4401W        W20875  11.465  17.373  15.214  0.5811  0.1419  0.0475
 4402W        W20876   5.572   2.437   0.905  0.2064  0.0644  0.1292
 4403W        W20877   5.069  14.935  13.187  0.0314 -0.0901 -0.0403
 4404W        W20878  18.100  15.095   1.299  0.0546 -0.1850 -0.0777
 4405W        W20879   0.376  12.187  14.302 -0.1238 -0.1225  0.2216
 4406W        W20880   0.189  10.457   2.180  0.2993 -0.1458 -0.3095
 4407W        W20881   9.162  13.875   4.956  0.2066  0.1844 -0.3181
 4408W        W20882   0.069  16.674   2.448  0.2472 -0.1083  0.1580
 4409W        W20883   1.111   9.858  15.706 -0.0497  0.0396  0.3181
 4410W        W20884  14.680  12.928  14.428 -0.2047 -0.2323 -0.3772
 4411W        W20885  17.566   2.398  13.061 -0.2314 -0.3521 -0.3446
 4412W        W20886   9.767   9.620   4.524  0.3767 -0.1569 -0.4352
 4413W        W20887  15.594  13.441   0.258 -0.2204 -0.1726  0.2481
 4414W        W20888  17.020  17.214  13.776 -0.1303  0.1940  0.0739
 4415W        W20889   5.097   3.215  15.624 -0.3559  0.4381 -0.2358
 4416W        W20890  13.278  15.487   2.664 -0.2634  0.0841  0.1253
 4417W        W20891   3.083   8.116  10.932  0.0886 -0.0942 -0.0503
 4418W        W20892  10.209   3.300  11.468  0.0467  0.2393 -0.1251
 4419W        W20893  14.947  16.729  14.911 -0.0173 -0.1247 -0.3539
 4420W        W20894  15.055  15.599   4.599  0.0805 -0.1714  0.3844
 4421W        W20895  13.270  16.025   3.681  0.2377  0.0362  0.0190
 4422W        W20896   4.934   6.540   0.211 -0.2660 -0.0405 -0.1316
 4423W        W20897   3.313  12.206   5.250 -0.0648 -0.1129  0.1757
 4424W        W20898   4.491  11.955   1.564 -0.2870  0.2753 -0.4461
 4425W        W20899   4.960  13.194   5.314  0.0962  0.1985 -0.0193
 4426W        W20900   9.912  12.284   1.650 -0.0985 -0.2565  0.0537
 4427W        W20901   6.635  14.348   4.928  0.1065 -0.2028 -0.2351
 4428W        W20902   8.380   8.357   0.428  0.1691  0.3444  0.0976
 4429W        W20903   8.489   9.745   1.810  0.3427 -0.2247 -0.1935
 4430W        W20904   8.349   5.370   3.180  0.1431  0.4705  0.4426
 4431W        W20905  14.415  17.529  16.085  0.0376 -0.0248  0.1261
 4432W        W20906  14.086  14.606   2.821 -0.4145 -0.2369  0.3625
 4433W        W20907  14.642   5.325   2.558 -0.5214  0.5037 -0.0461
 4434W        W20908   6.615  12.305   4.308 -0.1937 -0.3626 -0.0876
 4435W        W20909  14.107   8.033  15.190  0.1674 -0.0808 -0.0991
 4436W        W20910   7.626   0.228   0.243 -0.0230  0.0729 -0.0557
 4437W        W20911  12.539   5.757  11.194  0.0591 -0.2607 -0.2020
 4438W        W20912  14.470  10.874  12.021  0.1181  0.0704  0.1671
 4439W        W20913   3.298  10.164  13.968  0.0912 -0.2579 -0.1385
 4440W        W20914  18.195   2.884  13.807  0.1011 -0.1729 -0.1331
 4441W        W20915   3.090   6.991  11.883 -0.2101 -0.2260 -0.0831
 4442W        W20916   3.557   6.480   1.853 -0.0728 -0.1259  0.2046
 4443W        W20917   6.555   6.973   1.352  0.0635  0.2363 -0.2055
 4444W        W20918   6.776   1.777   4.670 -0.2646 -0.1362  0.1413
 4445W        W20919  11.687   3.109   0.861 -0.2280  0.2384 -0.0478
 4446W        W20920  15.363   9.313  11.042  0.1558  0.1367  0.1427
 4447W        W20921  18.121   0.974  15.015  0.0932  0.0998  0.2589
 4448W        W20922  11.851  14.571   2.232  0.1562  0.0399  0.2013
 4449W        W20923  11.581   6.774  15.808  0.1825  0.3039 -0.0926
 4450W        W20924  12.024   3.631  13.389 -0.1576  0.0832 -0.0272
 4451W        W20925  12.400  16.905   3.588 -0.0982 -0.1152 -0.0304
 4452W        W20926   0.631  16.732  12.705  0.0039  0.0072 -0.0473
 4453W        W20927  10.102  13.475  12.010 -0.2750  0.1303 -0.1319
 4454W        W20928  12.637   9.486  10.462  0.0248  0.0649 -0.1412
 4455W        W20929  15.937   9.111   1.349  0.1271 -0.0699 -0.1017
 4456W        W20930   2.813   2.905  12.206  0.0470  0.2231  0.0411
 4457W        W20931   4.400   6.382   5.509 -0.1153 -0.2494  0.3765
 4458W        W20932  15.387   0.793  12.413 -0.0922  0.2166  0.2310
 4459W        W20933   2.675  13.739  14.787 -0.1387 -0.1229 -0.0974
 4460W        W20934  17.177   8.361   1.075  0.0983 -0.0533  0.1421
 4461W        W20935  15.184   9.586  12.224 -0.0087 -0.4333  0.1026
 4462W        W20936   0.163  16.653   5.525 -0.0802  0.0223 -0.0421
 4463W        W20937   1.550  15.896   5.200 -0.0185  0.0560 -0.1300
 4464W        W20938   3.763   1.665  14.633 -0.0093  0.2235  0.2685
 4465W        W20939  13.409  10.429   3.050 -0.3354  0.1669 -0.1181
 4466W        W20940   1.914  17.059   1.950  0.1296  0.1380  0.5199
 4467W        W20941   4.292  11.394   1.840  0.4206 -0.1729  0.0246
 4468W        W20942   9.579   4.384   4.686  0.0090 -0.3932  0.1469
 4469W        W20943  16.837   9.990  14.470 -0.0681  0.1514  0.0038
 4470W        W20944   1.526  16.151   2.423 -0.1979  0.0034  0.0423
 4471W        W20945  15.707  14.430  13.154 -0.0789  0.1385 -0.0016
 4472W        W20946   2.811   6.817  15.512  0.3352 -0.2826  0.0509
 4473W        W20947  14.432   0.282  15.717 -0.1119  0.2454  0.0238
 4474W        W20948   2.796   5.842  15.706 -0.3762 -0.0882 -0.1135
 4475W        W20949   6.461   7.055   5.184  0.1611  0.0872  0.1812
 4476W        W20950  16.750   0.191   1.169  0.3555  0.0825  0.2548
 4477W        W20951   3.296  12.454   0.032  0.1027  0.1876 -0.0315
 4478W        W20952   6.722   2.974  14.692  0.1180  0.2743 -0.1066
 4479W        W20953   3.715   0.826  16.239 -0.2002 -0.1989 -0.0332
 4480W        W20954   9.237   8.389   0.798 -0.1308  0.2365  0.1434
 4481W        W20955   8.634   6.574  10.793 -0.0644 -0.5324 -0.1222
 4482W        W20956  10.106  16.835   0.029 -0.4617  0.1043  0.1928
 4483W        W20957  14.770  10.303  12.650 -0.1948  0.3209  0.0639
 4484W        W20958   9.071  15.950   1.116  0.2681  0.2181  0.3461
 4485W        W20959  17.852  16.387   2.981  0.0569 -0.1011 -0.0221
 4486W        W20960   2.255   5.813   0.300  0.0237 -0.0719  0.0021
 4487W        W20961  14.021   2.786  14.769  0.1914  0.1527 -0.2793
 4488W        W20962  13.326  11.425   0.293  0.4002 -0.1186  0.1369
 4489W        W20963   5.019   8.109   2.401 -0.0643  0.0222 -0.2152
 4490W        W20964   1.228   0.549  12.779  0.4235 -0.1023 -0.2859
 4491W        W20965   3.867  15.715  13.957 -0.3047 -0.0899  0.0288
 4492W        W20966  15.703   4.879   5.320 -0.1270 -0.0383  0.0510
 4493W        W20967   5.172  17.307   3.693 -0.1728  0.0290  0.1816
 4494W        W20968   9.737  10.327   1.519 -0.3970 -0.1396 -0.4317
 4495W        W20969  13.818   5.503  11.772 -0.1199  0.0222  0.1457
 4496W        W20970  10.372  14.437   2.382 -0.0347  0.1227  0.0876
 4497W        W20971   2.001   4.494  15.013 -0.0673 -0.1883 -0.1997
 4498W        W20972   0.627  16.661  12.222  0.2383  0.0554 -0.1028
 4499W        W20973   7.643   9.636   0.835 -0.1811  0.1886  0.1748
 4500W        W20974   3.409  11.464  14.941  0.0859  0.3137 -0.1692
 4501W        W20975  12.559   2.170  14.192 -0.1063  0.1503 -0.0145
 4502W        W20976   1.913   1.130  15.714  0.0071 -0.0629  0.1806
 4503W        W20977  15.625   0.345  15.753  0.2145  0.0247  0.1411
 4504W        W20978  11.546  14.805   3.805  0.2640 -0.0111  0.2834
 4505W        W20979   8.056   0.822  13.166  0.1113 -0.2378 -0.0851
 4506W        W20980  16.012   8.919  11.871 -0.0669 -0.0263  0.2959
 4507W        W20981   5.955   0.345   0.323  0.0380 -0.3193 -0.1689
 4508W        W20982  15.239  18.255   4.378 -0.2792  0.2332  0.2759
 4509W        W20983  15.962   4.055   3.636  0.0154 -0.3241  0.1580
 4510W        W20984  13.626   6.234   0.970  0.0594  0.1995 -0.2435
 4511W        W20985  15.416   8.954  15.786 -0.2984  0.0273 -0.0983
 4512W        W20986   4.735   1.887   0.980 -0.3712  0.2253  0.2948
 4513W        W20987  16.770  14.651  11.706 -0.3103 -0.1141 -0.0315
 4514W        W20988   0.097  17.392   4.315 -0.1147 -0.1959  0.0656
 4515W        W20989   0.363   9.972  16.151  0.0069  0.1200  0.1937
 4516W        W20990   7.841  16.085   4.518  0.1926 -0.2049 -0.1548
 4517W        W20991   3.050   8.906  16.086  0.1266  0.0230  0.0440
 4518W        W20992   1.300  17.201  11.886  0.0157 -0.0983  0.0426
 4519W        W20993  14.705   2.903   3.790  0.0017  0.3318 -0.2181
 4520W        W20994   0.540   1.020   3.756  0.2624 -0.1654  0.0349
 4521W        W20995   7.703  11.700  10.389 -0.5948  0.1666 -0.1994
 4522W        W20996   2.615  14.329  14.544  0.2986 -0.0059  0.0849
 4523W        W20997   8.730   3.208   2.673 -0.2314  0.0430  0.0328
 4524W        W20998   5.064   7.378  16.302 -0.0340  0.3931  0.0291
 4525W        W20999   9.538  14.908   2.795 -0.0374  0.1387  0.4555
 4526W        W21000  11.157  11.271  12.225  0.0817  0.0679 -0.2873
 4527W        W21001  12.211  14.738  14.841  0.1476  0.0274 -0.1531
 4528W        W21002  13.191   2.419  11.316 -0.2590  0.1362  0.0883
 4529W        W21003  15.454  14.414   2.131  0.3191 -0.1833  0.0207
 4530W        W21004   1.142   3.111   4.055 -0.0090 -0.2618  0.2851
 4531W        W21005   2.243  10.443  11.540  0.1421  0.2024  0.1159
 4532W        W21006   9.679   6.623  12.941 -0.0452  0.0034  0.0492
 4533W        W21007  15.000   5.130   4.024  0.0923  0.0620 -0.1529
 4534W        W21008   7.334   3.349  15.910  0.1177  0.0498 -0.2020
 4535W        W21009  18.243   6.276   2.543  0.1263 -0.0143  0.0874
 4536W        W21010   7.295  10.317   2.006 -0.2612  0.1515  0.1093
 4537W        W21011  16.080  14.546   2.010 -0.0768  0.1676 -0.2347
 4538W        W21012   7.285  14.580   2.681  0.1154  0.0774  0.0955
 4539W        W21013  13.495   3.800   4.083 -0.1156 -0.0417  0.0916
 4540W        W21014   1.272   1.668   0.006  0.2861  0.0369  0.2515
 4541W        W21015  14.950  15.486  13.078  0.1439  0.2673 -0.3923
 4542W        W21016   6.691   8.413  12.940  0.1288  0.1975 -0.4237
 4543W        W21017   6.931   9.413   0.194 -0.3927 -0.0229  0.1655
 4544W        W21018  16.671  15.680  13.199  0.1430  0.0550  0.1430
 4545W        W21019   6.626   9.418  15.712  0.1093 -0.0271 -0.0495
 4546W        W21020  10.777   8.827  14.709 -0.0750  0.2666 -0.1067
 4547W        W21021   2.951   4.020   0.994  0.1764  0.2502  0.0214
 4548W        W21022  11.277  16.565  12.714  0.0783 -0.2829 -0.1358
 4549W        W21023  16.273   6.401   0.471 -0.0709 -0.1255  0.1374
 4550W        W21024  17.266  17.142   0.667 -0.1229  0.1091  0.0078
 4551W        W21025  17.587  12.871   4.705  0.2260 -0.3428  0.1155
 4552W        W21026  16.513   4.428   0.259 -0.2237  0.0693  0.2947
 4553W        W21027   2.240  15.602   2.366 -0.1878 -0.2240  0.1202
 4554W        W21028   0.706  15.231   4.511  0.2354  0.1206 -0.0926
 4555W        W21029   9.130  12.558  14.187 -0.0647  0.3351 -0.3581
 4556W        W21030   0.230  15.090   3.093  0.2154  0.0126 -0.1388
 4557W        W21031   2.563   1.904  16.231  0.0201 -0.0058  0.1609
 4558W        W21032  10.977   0.737  14.989  0.0010  0.1737 -0.0637
 4559W        W21033  13.988   0.395  15.508  0.1369  0.1389  0.0021
 4560W        W21034  16.956   6.997  11.623  0.3135  0.3358  0.1151
 4561W        W21035   0.125   1.969  11.952  0.1048 -0.0180  0.1240
 4562W        W21036   7.988  15.963  12.783  0.1851 -0.0649  0.1787
 4563W        W21037  16.262   8.861   0.904  0.1014 -0.4837 -0.1891
 4564W        W21038   4.293   3.122   0.897  0.0494  0.1167  0.1486
 4565W        W21039   9.390  13.425   5.060 -0.3916  0.2154 -0.1513
 4566W        W21040  12.377  16.487   3.916  0.2246 -0.0685 -0.0870
 4567W        W21041   0.715   6.776   2.548 -0.2610 -0.2255 -0.0937
 4568W        W21042  15.311   1.021  15.249  0.0608 -0.0821  0.0283
 4569W        W21043  16.837   9.278   3.232  0.0529  0.1683 -0.0309
 4570W        W21044   3.428  16.425  16.208 -0.1224  0.2591  0.3643
 4571W        W21045  17.622  15.103  13.360 -0.1060  0.1471  0.2058
 4572W        W21046  17.102   6.742   3.659 -0.1831  0.0695 -0.0606
 4573W        W21047  16.121   1.023  13.059  0.0806 -0.1399  0.1642
 4574W        W21048   4.414   2.832  13.693 -0.0596 -0.0053  0.0699
 4575W        W21049   5.738   4.798   0.703  0.0803 -0.1274 -0.0516
 4576W        W21050   4.056  14.727   5.515 -0.0180  0.1390 -0.3620
 4577W        W21051   2.305  10.469   0.013 -0.1729 -0.1001 -0.0497
 4578W        W21052  11.188  12.646  13.725 -0.3506 -0.2045 -0.0049
 4579W        W21053   7.309   4.432  13.050 -0.1552  0.0113 -0.0713
 4580W        W21054  15.177   4.755  15.072  0.1328 -0.0962 -0.2010
 4581W        W21055  13.936  12.098  11.657  0.1396 -0.1440 -0.1877
 4582W        W21056   8.494   8.806  15.530  0.2849  0.1751  0.2549
 4583W        W21057  16.322   3.486   2.503  0.1606  0.2931 -0.0590
 4584W        W21058  17.796  18.084  12.005  0.0774  0.2619 -0.0466
 4585W        W21059   8.386  18.080   5.344 -0.1852 -0.0472 -0.1907
 4586W        W21060   7.774   1.325   4.027 -0.1286  0.0292  0.2458
 4587W        W21061   6.388   9.812  13.419  0.0262  0.1619  0.1160
 4588W        W21062   1.268   6.126   1.337  0.0857 -0.3772 -0.4620
 4589W        W21063   7.894   2.455   4.088 -0.7936 -0.1554  0.0299
 4590W        W21064  11.512  16.975   3.766 -0.0018  0.1091 -0.2011
 4591W        W21065  11.717   9.250   3.086 -0.0652  0.0060 -0.1077
 4592W        W21066   0.333   0.863   5.243  0.0246  0.1916  0.0237
 4593W        W21067   3.606  11.425   4.212  0.1519 -0.2671  0.2968
 4594W        W21068   7.150   0.874   4.365 -0.1811  0.1169 -0.0866
 4595W        W21069   4.911   6.961  11.649  0.1755 -0.0075 -0.0661
 4596W        W21070   6.701   5.361   5.509 -0.1600 -0.0088 -0.2190
 4597W        W21071  12.658   9.908   2.696  0.0664  0.0117  0.0391
 4598W        W21072   9.589  15.939   3.738  0.2031  0.0597 -0.0633
 4599W        W21073  10.022  12.336  12.965 -0.1582 -0.2976 -0.1881
 4600W        W21074   5.578   5.818  11.416  0.3416 -0.1188  0.0492
 4601W        W21075   8.469   5.589  14.532  0.2495 -0.3921  0.0608
 4602W        W21076   5.512  17.852   5.348  0.3615 -0.0797  0.0464
 4603W        W21077  17.088   8.439   3.236 -0.0745  0.0514 -0.2055
 4604W        W21078   2.568   9.568   0.843 -0.0812  0.0371 -0.0448
 4605W        W21079   7.702   1.358  14.576 -0.1201 -0.2926  0.1199
 4606W        W21080   2.439  10.355  13.269  0.2722 -0.4232  0.1440
 4607W        W21081   2.502   2.859  15.462 -0.0454 -0.1336  0.3281
 4608W        W21082   7.802  17.804   3.101  0.1157 -0.0277  0.1194
 4609W        W21083   9.742   7.575  11.930 -0.1936 -0.0486 -0.0566
 4610W        W21084   6.351  13.363   3.362 -0.1090 -0.0246 -0.1041
 4611W        W21085  14.693  11.068  11.593  0.1607  0.1534  0.0930
 4612W        W21086   3.922   7.114   3.812  0.0974  0.1033 -0.1687
 4613W        W21087   4.356   5.792  11.921  0.3039  0.2662  0.0717
 4614W        W21088  14.063  13.577   4.883 -0.1642 -0.1733 -0.1718
 4615W        W21089   9.826  17.299  16.084 -0.0081 -0.4063 -0.1562
 4616W        W21090  16.253  14.494  12.454 -0.1822 -0.2055  0.2834
 4617W        W21091   6.438  10.373   0.311  0.1392 -0.0146  0.1469
 4618W        W21092  10.804  10.697   2.391 -0.0038 -0.0391  0.0062
 4619W        W21093   5.892   8.567   5.179  0.0958 -0.1103 -0.1344
 4620W        W21094   5.825   6.200  14.066 -0.0103  0.2822  0.0071
 4621W        W21095  13.703  17.207  11.468 -0.0558 -0.2322 -0.0797
 4622W        W21096   4.502  10.915  14.241  0.0571 -0.2602 -0.0854
 4623W        W21097   8.587  16.110  15.659  0.0536  0.0462 -0.0540
 4624W        W21098   7.801   5.569   1.053  0.1737 -0.1471  0.0219
 4625W        W21099   1.510   4.287   2.181 -0.0746 -0.2488  0.0464
 4626W        W21100  10.407   0.719  14.331 -0.3185 -0.2620  0.0653
 4627W        W21101  16.253  14.314   4.165 -0.0275 -0.0041 -0.1648
 4628W        W21102   3.084   8.935   1.891  0.2649  0.5676 -0.1196
 4629W        W21103   5.085   0.678   1.649  0.1070  0.1535 -0.1061
 4630W        W21104   9.170   1.837  10.501  0.4745 -0.2641 -0.1585
 4631W        W21105   8.630   5.657   1.259 -0.1005  0.1468  0.0207
 4632W        W21106   5.426   9.443   1.449  0.0670  0.1339 -0.1959
 4633W        W21107  11.764   5.044  11.438  0.3922 -0.3462  0.2233
 4634W        W21108   4.783   3.630   0.401 -0.0047  0.0621  0.1115
 4635W        W21109   6.468  14.106  12.820 -0.0535  0.0618 -0.1691
 4636W        W21110  14.342   6.986   3.410  0.2378 -0.0130  0.0779
 4637W        W21111   5.640   2.836  15.448 -0.3302  0.1931  0.1510
 4638W        W21112   3.583   6.273  14.539 -0.0350 -0.1360  0.1040
 4639W        W21113  14.863   9.607  12.590 -0.2617 -0.1279  0.0010
 4640W        W21114  17.718  16.433   0.825  0.0859 -0.2458  0.3610
 4641W        W21115   9.007  11.026  15.978  0.3560 -0.0018 -0.0764
 4642W        W21116   8.244   0.281   2.458  0.0110  0.1438  0.0117
 4643W        W21117   0.583   8.755   5.061  0.3415  0.3143  0.1688
 4644W        W21118  16.023  15.741   3.337  0.1805  0.2034 -0.1525
 4645W        W21119  17.956  16.003   0.718  0.0538 -0.2833 -0.1387
 4646W        W21120  14.472   3.054   5.971  0.1205  0.1418  0.0669
 4647W        W21121   8.329   4.831  16.092  0.1541 -0.0175  0.0081
 4648W        W21122   3.258  12.594   0.518 -0.0704  0.1785 -0.1408
 4649W        W21123   9.597   0.639   5.588  0.0796  0.1774 -0.1593
 4650W        W21124   4.218   8.136  15.076  0.1305  0.1285 -0.1048
 4651W        W21125  16.115   2.141  13.877 -0.0415  0.1323 -0.2518
 4652W        W21126   3.462  17.173   0.269  0.2132 -0.2042  0.1299
 4653W        W21127   7.337  11.369   0.816 -0.1901 -0.4620 -0.4831
 4654W        W21128   0.374  15.053   4.106 -0.1435  0.0121 -0.0460
 4655W        W21129   8.136  15.192  12.526 -0.1399 -0.0881  0.0923
 4656W        W21130   9.707  13.594  14.737 -0.2755  0.0339 -0.2189
 4657W        W21131  18.066   9.191   0.607 -0.1266  0.2451 -0.2953
 4658W        W21132   7.138   8.670   2.292  0.2346  0.0951  0.1488
 4659W        W21133  13.141   9.514   4.472  0.1377  0.0926 -0.2089
 4660W        W21134  15.487   7.633   1.571 -0.2581 -0.2103 -0.1228
 4661W        W21135   2.619  14.429   2.382  0.2505  0.0960 -0.0969
 4662W        W21136  10.288   9.049  13.006  0.1132  0.0703 -0.0860
 4663W        W21137   0.432  13.728  13.454 -0.1616  0.1683 -0.0156
 4664W        W21138  14.831   6.083   4.320 -0.0157  0.1022 -0.3452
 4665W        W21139   3.912  11.067   2.671 -0.0656  0.1757  0.1941
 4666W        W21140   4.370  16.191   3.174  0.4211  0.0010 -0.1104
 4667W        W21141  13.337   5.462   4.154  0.1399  0.0374 -0.1244
 4668W        W21142  12.088   7.998   3.287 -0.0430  0.2925  0.2047
 4669W        W21143  10.457  14.921   4.642  0.0086  0.0108 -0.0205
 4670W        W21144  10.721   7.502   4.322  0.2134 -0.0776  0.3457
 4671W        W21145   5.496  16.099  14.023 -0.2530 -0.1207 -0.3967
 4672W        W21146   4.045  15.818   4.048  0.1435 -0.1827 -0.1385
 4673W        W21147   1.914   2.693   2.953  0.1723 -0.1167 -0.0374
 4674W        W21148   0.367   9.885   2.116 -0.0457 -0.3187  0.1379
 4675W        W21149   2.980  13.613   5.856 -0.0155 -0.0767 -0.1560
 4676W        W21150  13.811  18.137   5.729 -0.0811 -0.3794  0.0561
 4677W        W21151   9.995  11.691  12.151  0.3166  0.0536 -0.1636
 4678W        W21152   4.803   7.374   4.665 -0.1534 -0.0975  0.3312
 4679W        W21153  13.206   8.491  11.346  0.0377  0.0352 -0.1552
 4680W        W21154  13.618  15.889   2.648 -0.3868  0.0726 -0.0128
 4681W        W21155  11.633   7.653  15.838 -0.3041 -0.2275  0.1731
 4682W        W21156  12.955   1.627  11.688  0.1286 -0.0871  0.0047
 4683W        W21157   8.586   1.471   4.259  0.0873 -0.0748  0.2396
 4684W        W21158  15.940  10.410   0.252  0.1468 -0.1095 -0.0713
 4685W        W21159  18.350   2.630   1.460  0.2925 -0.0292  0.3138
 4686W        W21160   5.754  18.108  13.071  0.3240 -0.2375 -0.0534
 4687W        W21161  18.136  16.748  12.247  0.1691  0.4170 -0.0879
 4688W        W21162  15.722  18.074   5.011  0.2331 -0.0190 -0.5063
 4689W        W21163   1.938  11.191  13.941 -0.3114  0.1913 -0.1829
 4690W        W21164   1.556  14.323  14.638  0.0311 -0.0126 -0.0688
 4691W        W21165  10.747   9.551  14.817  0.0731 -0.0275 -0.0638
 4692W        W21166  14.371  18.130   2.272 -0.2571  0.2656  0.1505
 4693W        W21167   5.253  12.467   3.139  0.2591  0.1283  0.3131
 4694W        W21168  13.453  12.032  12.289 -0.2477  0.1967 -0.3271
 4695W        W21169  10.283  18.389  14.471 -0.2419 -0.0833  0.2567
 4696W        W21170  13.450   2.342  15.123 -0.3235  0.1753 -0.1115
 4697W        W21171   8.836  14.040   3.475 -0.0870  0.1189  0.0050
 4698W        W21172   0.798   3.982  15.108  0.0333 -0.1526  0.1565
 4699W        W21173   8.198   6.420   3.906 -0.5229 -0.1551 -0.0705
 4700W        W21174   5.331   9.651  12.303  0.1631 -0.0401  0.0530
 4701W        W21175   6.398   1.769  12.714 -0.0893  0.4775 -0.0670
 4702W        W21176   7.594  14.850   6.427 -0.1965  0.0206  0.0552
 4703W        W21177  10.453  13.985  15.367 -0.1738 -0.0964 -0.2970
 4704W        W21178   0.531   9.992  14.574 -0.0594 -0.0189 -0.1884
 4705W        W21179   3.002  10.800   1.627  0.0956 -0.3559  0.0359
 4706W        W21180  10.775  13.921  14.984 -0.0846  0.2213 -0.1653
 4707W        W21181  11.782  10.951  14.103 -0.1117  0.0936 -0.1833
 4708W        W21182  16.985   1.126   2.528  0.2029 -0.1531  0.4800
 4709W        W21183   6.989  13.128  11.452  0.2974  0.3668  0.1071
 4710W        W21184  12.735   7.588   3.803  0.3873  0.0237 -0.0936
 4711W        W21185   9.662   1.018  15.580 -0.1124  0.1225 -0.0798
 4712W        W21186   8.205   6.513   2.310  0.0144 -0.1477  0.0888
 4713W        W21187   5.225  11.692   2.180  0.2307  0.0351  0.3660
 4714W        W21188   2.547  14.412  15.777  0.0104 -0.0723 -0.1661
 4715W        W21189   3.872   4.424   3.144  0.0180 -0.1409 -0.1410
 4716W        W21190  16.085   4.672  15.722 -0.0487 -0.1528 -0.1289
 4717W        W21191  11.619  13.801  13.092 -0.2231  0.2749  0.1878
 4718W        W21192  12.332   7.923   3.864 -0.2984 -0.1715 -0.2181
 4719W        W21193   5.389  14.628   2.299 -0.0846  0.1412 -0.1247
 4720W        W21194   8.111   0.710   1.575 -0.0936  0.1596 -0.1778
 4721W        W21195  17.502   7.691  12.153  0.2359 -0.0953 -0.1086
 4722W        W21196   9.587   7.554  15.244 -0.2360  0.1695  0.0838
 4723W        W21197  12.810   2.696  14.260  0.1699 -0.0711 -0.0605
 4724W        W21198   4.561   6.462   3.102  0.2008 -0.0111 -0.0749
 4725W        W21199  15.002   6.741  12.888  0.1223  0.3076 -0.1034
 4726W        W21200  13.566  11.377   5.449 -0.0252 -0.0115  0.1550
 4727W        W21201  18.385  16.507  16.328  0.0090  0.1316  0.1509
 4728W        W21202   9.739   7.387  10.969  0.1091  0.4699  0.1520
 4729W        W21203   9.912   2.184  11.225 -0.0112 -0.1026 -0.2191
 4730W        W21204   1.712   6.327  14.526  0.2949 -0.1836 -0.2764
 4731W        W21205   2.440  11.496  14.054  0.1949  0.2304 -0.1069
 4732W        W21206   8.814  15.690   1.936  0.2279 -0.1527  0.3700
 4733W        W21207  10.358   8.764  12.487  0.3001 -0.1500  0.0736
 4734W        W21208   6.419  17.217  15.898  0.1417  0.1638  0.0737
 4735W        W21209  11.036  18.136   4.836  0.3660  0.0293 -0.1622
 4736W        W21210   3.996  13.807  15.999  0.0226 -0.0295  0.2473
 4737W        W21211  16.041  17.189  13.311 -0.0106 -0.3161  0.2139
 4738W        W21212   6.472   3.239   1.200 -0.0268 -0.4846 -0.2173
 4739W        W21213   2.241   4.913  14.638 -0.2337 -0.1813  0.2552
 4740W        W21214  15.970   4.432  15.162 -0.0698  0.0434  0.1719
 4741W        W21215   1.410  15.679   3.908  0.2144 -0.0987  0.0512
 4742W        W21216  10.336  10.654   2.758 -0.1190  0.2232 -0.0971
 4743W        W21217  17.750  14.790   1.003 -0.3095 -0.0034  0.0536
 4744W        W21218   6.425  15.736   3.675  0.1334 -0.2436  0.0572
 4745W        W21219   5.242  11.644  13.358 -0.1182  0.0765 -0.0353
 4746W        W21220  11.862  18.270   4.012 -0.1036  0.3383  0.0219
 4747W        W21221   2.679  17.557  13.622  0.2400  0.0685 -0.1410
 4748W        W21222   4.818   8.055   5.379 -0.0108  0.1610  0.0571
 4749W        W21223  16.582  16.539  11.947  0.3470 -0.2404  0.1070
 4750W        W21224   8.857   3.276   5.217 -0.2423 -0.1118 -0.0405
 4751W        W21225   3.056   4.054  13.637  0.0332 -0.1179  0.1930
 4752W        W21226   9.762  14.828   3.611 -0.3042 -0.0861  0.3270
 4753W        W21227   0.823  13.247   0.124 -0.1049 -0.1720  0.1055
 4754W        W21228  10.897  10.196  14.337 -0.1990  0.3350 -0.1273
 4755W        W21229  14.686   0.772  12.866  0.1167 -0.0472  0.2581
 4756W        W21230   5.895   6.867  11.188 -0.2493 -0.3808  0.0077
 4757W        W21231  14.538   8.376   1.927  0.1770 -0.1044 -0.0538
 4758W        W21232   9.855   3.673  12.346  0.0298 -0.1268  0.0506
 4759W        W21233   5.389  13.364   2.851 -0.2777 -0.0112 -0.0978
 4760W        W21234   2.186  15.091  15.364  0.0105 -0.2407 -0.1362
 4761W        W21235  15.825  18.083   1.431 -0.0828  0.3469 -0.1139
 4762W        W21236   0.754   8.144  12.393 -0.2685  0.0252  0.3088
 4763W        W21237  11.827   6.669   1.259  0.0202  0.0074  0.1057
 4764W        W21238   7.599   4.537   5.266  0.3139 -0.0502 -0.1170
 4765W        W21239   9.967   3.167  12.189 -0.1710  0.0686  0.2678
 4766W        W21240  11.744  13.402   6.286  0.2839  0.0312 -0.0099
 4767W        W21241   4.594   3.344   2.705  0.0964  0.0512  0.1734
 4768W        W21242   0.457   9.682  11.060  0.1387 -0.0538 -0.1030
 4769W        W21243   3.718  15.348   0.101  0.2000 -0.1103  0.0204
 4770W        W21244  14.304   8.504  11.031 -0.2706  0.2493 -0.3605
 4771W        W21245   5.257  10.641   4.647  0.1948  0.3564 -0.3333
 4772W        W21246   3.323   4.791   6.247 -0.0672  0.0284  0.1383
 4773W        W21247  12.094   6.472  10.928  0.2064  0.0272  0.1668
 4774W        W21248   1.996  16.944   3.387  0.3242  0.1776  0.0445
 4775W        W21249  11.313   5.362   0.004  0.1672  0.3288 -0.2705
 4776W        W21250   2.701   4.166   2.242 -0.1097  0.3848  0.1536
 4777W        W21251   3.566  10.103  14.480  0.1688 -0.0577  0.1427
 4778W        W21252   4.518  14.213   2.557  0.0357  0.1129  0.3652
 4779W        W21253  12.557   9.606  13.273  0.0710  0.0525 -0.0484
 4780W        W21254  15.854   7.160  12.533  0.0771 -0.3454 -0.1587
 4781W        W21255   9.988   1.394   0.057 -0.0124 -0.2492 -0.4008
 4782W        W21256  14.641   5.542   4.203 -0.0456 -0.2151  0.2789
 4783W        W21257   8.266  17.065   5.402 -0.0531 -0.2219  0.2912
 4784W        W21258   4.747   1.170  15.830 -0.0657  0.2478  0.0884
 4785W        W21259   2.514  18.070  12.710  0.2976  0.0490 -0.1992
 4786W        W21260  16.030   2.776  16.339  0.3100  0.0301  0.2158
 4787W        W21261  11.391  11.812   1.331 -0.1152 -0.0429 -0.3500
 4788W        W21262   9.044   5.053   0.542 -0.2470  0.1816  0.1818
 4789W        W21263   7.613  12.441   5.307 -0.1466 -0.0804  0.1920
 4790W        W21264  13.190  16.084  13.337  0.1651  0.3346 -0.2947
 4791W        W21265  17.015  12.662  12.750 -0.1770 -0.1803 -0.0605
 4792W        W21266   3.496  11.882  12.280  0.1328  0.0281 -0.0275
 4793W        W21267  13.421  17.368  12.678  0.0026  0.0437 -0.4263
 4794W        W21268   1.566  16.438  13.986  0.1699  0.2965 -0.1391
 4795W        W21269  12.060   6.442   1.651 -0.0957 -0.1049  0.2285
 4796W        W21270   7.461  18.321  12.315  0.0520 -0.3259 -0.0616
 4797W        W21271   3.067   5.504  16.034  0.2009  0.0870 -0.3487
 4798W        W21272  13.041   5.305  14.153 -0.1579  0.0113  0.2637
 4799W        W21273   5.690   6.579   2.149  0.0183  0.0524 -0.1289
 4800W        W21274  11.076  16.803   5.055 -0.0387  0.0015  0.1250
 4801W        W21275   5.716   1.372   5.184  0.2729  0.2119 -0.2650
 4802W        W21276   0.628   2.944   0.896  0.1287 -0.3734  0.0448
 4803W        W21277   2.362  15.432   0.075  0.1220  0.2854  0.2632
 4804W        W21278   9.556   6.780  14.751 -0.0369  0.0869 -0.0392
 4805W        W21279   1.641   3.064   4.148 -0.0138 -0.1911 -0.0715
 4806W        W21280   3.865  13.429   4.505 -0.2655  0.0034  0.2228
 4807W        W21281   1.553  16.395  15.614  0.2768  0.2524  0.0442
 4808W        W21282  17.039  15.816  11.365  0.0026 -0.0703 -0.0772
 4809W        W21283   0.788   9.035   2.182 -0.1167  0.1219 -0.4300
 4810W        W21284   7.058   9.593  14.401 -0.0117  0.0082 -0.1296
 4811W        W21285   6.305  11.107  13.916  0.0358  0.1700 -0.2193
 4812W        W21286   0.689   6.366  14.661 -0.1005 -0.1956 -0.1701
 4813W        W21287   2.910   7.179  14.240 -0.0980  0.0161  0.5560
 4814W        W21288  11.592   3.494  15.982  0.0547  0.3065 -0.1688
 4815W        W21289   4.701   7.121   3.233 -0.3712  0.0921  0.0352
 4816W        W21290   2.698  13.967   5.573  0.1477 -0.0613 -0.0610
 4817W        W21291   9.157  14.550   4.262  0.0535  0.0647 -0.1013
 4818W        W21292   8.936   7.354   4.493 -0.0399  0.1072  0.0160
 4819W        W21293  18.003  13.483  10.162 -0.0777  0.1391  0.0212
 4820W        W21294  14.354   5.531  13.130  0.1037  0.1277  0.1370
 4821W        W21295  17.426   6.278  15.067 -0.0835  0.0844 -0.1339
 4822W        W21296  16.914  11.603  15.960  0.2999  0.2179  0.1428
 4823W        W21297   5.045  17.617   5.472 -0.2799 -0.0864  0.0425
 4824W        W21298   1.141  10.859   3.321  0.3983  0.0120 -0.2620
 4825W        W21299  11.107   6.138   0.063  0.2298 -0.2797 -0.0430
 4826W        W21300   4.189   2.794  15.901 -0.2644  0.2064  0.1678
 4827W        W21301  14.718   1.259   1.998  0.2625 -0.0186 -0.2088
 4828W        W21302   5.190   8.016   0.577 -0.2125 -0.1340 -0.6279
 4829W        W21303  12.160   2.202  11.590 -0.0339 -0.2583  0.1037
 4830W        W21304   9.263   8.018  13.651 -0.3833  0.0473 -0.1675
 4831W        W21305  12.158   9.344  11.985  0.0851 -0.2756 -0.0159
 4832W        W21306   9.269  13.796  12.208  0.1411  0.1245  0.1775
 4833W        W21307   9.124  11.929  11.901 -0.2061 -0.2170 -0.1080
 4834W        W21308   1.935  14.983  12.070  0.4085  0.2492 -0.3239
 4835W        W21309   7.197   3.521   0.799 -0.1037  0.0096 -0.0407
 4836W        W21310   3.971   1.965  12.357  0.2656  0.0810 -0.0714
 4837W        W21311   5.673   1.215   2.784  0.0394 -0.2255  0.2797
 4838W        W21312   1.504  10.939   0.296  0.0786  0.0362  0.4067
 4839W        W21313  11.120  12.582   0.993 -0.1938  0.2272 -0.2275
 4840W        W21314   8.562  13.208  11.946  0.3068  0.0652 -0.1778
 4841W        W21315   5.108   9.354  15.039 -0.1611 -0.3254 -0.3180
 4842W        W21316   0.332   0.804  14.728  0.1492  0.0556  0.0972
 4843W        W21317  15.206  10.893  14.401 -0.0491  0.2663  0.2960
 4844W        W21318  15.250  14.561  15.614  0.1158 -0.0417  0.0590
 4845W        W21319   7.221  13.598  11.452 -0.2838 -0.1432 -0.0672
 4846W        W21320   4.740   0.953  15.150 -0.1169 -0.1544 -0.0160
 4847W        W21321   3.273   8.108  13.581 -0.2910  0.0454 -0.1823
 4848W        W21322   3.016  17.516   4.854 -0.0127 -0.3235 -0.1893
 4849W        W21323   8.534   2.349   2.933  0.1310  0.1441  0.2118
 4850W        W21324   0.610   1.758  14.992  0.3847  0.3173 -0.0912
 4851W        W21325   3.579   0.787  13.943  0.1153  0.2127  0.1536
 4852W        W21326   6.940   2.981   3.464 -0.2777 -0.0725 -0.0940
 4853W        W21327   4.925  17.234  14.910 -0.0677 -0.0805 -0.1908
 4854W        W21328   1.606   7.911  11.798 -0.0808 -0.0220 -0.0023
 4855W        W21329  16.032  14.459  11.190  0.1879  0.3523  0.1844
 4856W        W21330  16.548   8.865   0.508  0.1831  0.1164 -0.0011
 4857W        W21331  17.145   4.378  15.632  0.4122 -0.1846 -0.1975
 4858W        W21332   8.975   8.354   1.203 -0.2744 -0.0995  0.0709
 4859W        W21333   8.993  15.133  16.086 -0.0902 -0.0894  0.0070
 4860W        W21334   5.430   5.056   1.118 -0.1311  0.0514 -0.0640
 4861W        W21335   5.935  11.781   1.906 -0.2872 -0.0063 -0.0578
 4862W        W21336  11.143   5.901  14.331  0.4332  0.0496 -0.1676
 4863W        W21337  14.313   7.284  10.416  0.1820 -0.1555  0.3153
 4864W        W21338   9.839   0.607   0.653  0.1422 -0.2519 -0.2243
 4865W        W21339  11.358  16.028  11.880  0.0161  0.2393  0.0677
 4866W        W21340   6.936   8.965  15.625  0.0622 -0.0466 -0.1553
 4867W        W21341   0.778   4.217   3.233 -0.1431  0.1693 -0.0339
 4868W        W21342   0.239  13.698   4.857 -0.2020 -0.3974 -0.1052
 4869W        W21343   0.017  16.463  15.837  0.1981 -0.1025 -0.1612
 4870W        W21344   5.721  17.538   2.227  0.0388 -0.0113 -0.2353
 4871W        W21345  12.202   5.957   1.413 -0.2479  0.2236 -0.2705
 4872W        W21346  11.397  11.544   5.250  0.0306 -0.1113  0.0595
 4873W        W21347   2.514   4.478   4.616 -0.0017 -0.0381  0.1170
 4874W        W21348   6.215  17.516  13.747  0.0134  0.0504 -0.1418
 4875W        W21349   0.133  10.047  14.875  0.0476  0.0125  0.1180
 4876W        W21350   9.993   5.319  16.214 -0.1149  0.0684 -0.0698
 4877W        W21351  10.899   9.497   0.105  0.2179  0.3445  0.1554
 4878W        W21352  15.897   1.400   4.448  0.0113  0.2760 -0.0293
 4879W        W21353  11.621   4.170  15.275 -0.0593 -0.1547  0.1765
 4880W        W21354   4.872   7.178  14.000 -0.3611 -0.1398  0.1410
 4881W        W21355  17.335  12.116   2.587 -0.1538  0.5455 -0.2212
 4882W        W21356  12.433   9.266   0.831  0.2514  0.0593  0.1204
 4883W        W21357   0.276   5.928   4.026 -0.0150  0.3158  0.3372
 4884W        W21358  16.956   4.304   0.349  0.1305  0.2018  0.1909
 4885W        W21359   8.920  12.804   3.121 -0.1087 -0.0478  0.0561
 4886W        W21360  16.517  14.002   4.941 -0.0003 -0.1039  0.1567
 4887W        W21361  16.422  13.719  15.428  0.0383 -0.0380 -0.1144
 4888W        W21362  11.001  16.949   3.668  0.3503  0.2088 -0.3503
 4889W        W21363   2.785  10.438   5.101  0.1654 -0.2833 -0.0891
 4890W        W21364  17.037  11.329  11.582 -0.0717  0.3223  0.1738
 4891W        W21365  17.974  10.688   4.437 -0.0962 -0.1169 -0.2388
 4892W        W21366   6.706  17.239   2.385 -0.3016  0.2710 -0.0200
 4893W        W21367   5.976  14.452  14.669  0.3381 -0.1760  0.1643
 4894W        W21368   6.697   6.329  14.683 -0.0601 -0.1026  0.1345
 4895W        W21369  16.469   4.574   4.727  0.2154 -0.0703 -0.1947
 4896W        W21370  18.056   7.967  15.965 -0.1885  0.1672 -0.1743
 4897W        W21371   9.432   6.713  13.454  0.3547  0.1704 -0.0202
 4898W        W21372   8.936  11.542   6.023 -0.0678 -0.0325 -0.1860
 4899W        W21373  14.057   1.918  14.799  0.0513  0.1514  0.4149
 4900W        W21374  11.236  17.484   3.425 -0.0267 -0.0006 -0.0429
 4901W        W21375   2.080   8.802   3.665  0.0185 -0.1174 -0.2155
 4902W        W21376   4.531  11.541   4.256  0.3168 -0.1813  0.2873
 4903W        W21377  11.693  15.254   2.183  0.0468 -0.3241  0.1370
 4904W        W21378   4.889  18.060   1.318 -0.0931 -0.0892 -0.1411
 4905W        W21379  17.305   9.201  16.331 -0.0565  0.0566 -0.0357
 4906W        W21380   7.589   5.409   0.666 -0.0531  0.0847 -0.4364
 4907W        W21381   0.809  14.540   1.984  0.0880 -0.0275 -0.0186
 4908W        W21382   5.375   2.992   2.637 -0.0544 -0.2121  0.2659
 4909W        W21383   1.508   8.984  14.848 -0.2735 -0.0272 -0.1097
 4910W        W21384   4.193   6.435  12.031 -0.1556 -0.0752 -0.0871
 4911W        W21385   6.102  15.908  13.350 -0.2019  0.1400  0.0694
 4912W        W21386   4.359  16.532  15.210 -0.2639  0.0928  0.2480
 4913W        W21387   9.834   3.487  14.970  0.1028  0.0743  0.1760
 4914W        W21388   1.385   4.944  12.149  0.3657 -0.0896  0.0989
 4915W        W21389  13.119  17.068  12.379  0.0562 -0.1533 -0.3302
 4916W        W21390   7.464   6.612  12.675 -0.0649 -0.3123  0.1601
 4917W        W21391   8.168   2.455  12.551  0.0140  0.0110 -0.0028
 4918W        W21392   5.802   5.798   2.924  0.0795  0.0206 -0.2102
 4919W        W21393  16.582  12.801  15.688 -0.0355 -0.0305  0.0390
 4920W        W21394   6.242  13.622   2.927 -0.0223 -0.0561 -0.1052
 4921W        W21395   1.322  14.454   4.685  0.1161 -0.2049 -0.0890
 4922W        W21396   6.656   7.826   5.508 -0.1506  0.1782 -0.0310
 4923W        W21397   1.765   1.078   4.608 -0.0684  0.2646 -0.3356
 4924W        W21398  14.432   2.949  11.012 -0.1606 -0.0766  0.4298
 4925W        W21399   4.412   2.257   0.231 -0.0798 -0.0974  0.2004
 4926W        W21400   1.336   5.540  12.396  0.1264  0.2572 -0.2427
 4927W        W21401  13.800  18.170   3.273  0.3375 -0.3112  0.0199
 4928W        W21402   1.999   9.420   2.976 -0.2070  0.0549  0.0747
 4929W        W21403   9.799   0.012  13.212 -0.0909  0.1355 -0.1668
 4930W        W21404  14.922  12.318   2.908  0.0846  0.0342 -0.3114
 4931W        W21405   1.868  15.085  15.766  0.3621  0.0126  0.0901
 4932W        W21406   7.945  11.714   2.572  0.1064  0.2675 -0.2945
 4933W        W21407   3.383   7.447  11.174  0.0032 -0.1073 -0.3782
 4934W        W21408   4.517  11.465  12.892  0.3975 -0.1957  0.0129
 4935W        W21409  10.181   0.166  12.897 -0.0558 -0.0139 -0.0286
 4936W        W21410   0.680   1.192   0.499  0.1713 -0.2381  0.0441
 4937W        W21411   0.504  15.628   3.038  0.1553 -0.2332  0.0151
 4938W        W21412   3.762   5.535  12.876 -0.1425 -0.2592 -0.0015
 4939W        W21413   6.707   5.332   3.842  0.0701  0.0783  0.0954
 4940W        W21414  14.041   1.088   5.897 -0.0178  0.1038 -0.0426
 4941W        W21415  10.600   4.217  15.703 -0.0894  0.1336 -0.0471
 4942W        W21416   6.866  13.478  13.803  0.1025  0.0152  0.1966
 4943W        W21417  11.978  11.024   0.438 -0.2705  0.0702  0.3762
 4944W        W21418   8.000   1.722  15.344 -0.0052  0.2731 -0.4003
 4945W        W21419   8.226   1.066   4.163 -0.2034 -0.3649  0.1032
 4946W        W21420  15.563  10.005  14.650 -0.1355  0.2699 -0.1717
 4947W        W21421  12.409   1.763  16.319 -0.0816  0.1437 -0.0498
 4948W        W21422  11.748   0.063   5.546 -0.2124  0.0647 -0.1076
 4949W        W21423   0.676  11.436  11.355 -0.1133  0.2625 -0.0987
 4950W        W21424   2.255   8.422  12.942  0.1420 -0.0285 -0.1602
 4951W        W21425   7.660   7.045   3.922  0.0753  0.1584  0.2419
 4952W        W21426   6.731   2.290   0.258  0.3988  0.1043  0.5206
 4953W        W21427   2.551   3.032   3.070 -0.0669 -0.2205  0.2016
 4954W        W21428  17.030   1.504  14.036 -0.0965 -0.3406  0.1414
 4955W        W21429   6.054  16.959   1.000  0.1506 -0.3912  0.1835
 4956W        W21430  12.796   6.147  15.292 -0.2928  0.2987  0.2385
 4957W        W21431  14.608   4.515   0.317  0.1995 -0.0863  0.0492
 4958W        W21432  17.805   7.897   4.480 -0.0963 -0.2384 -0.3781
 4959W        W21433   0.975   9.056   1.161 -0.0574  0.0666  0.2205
 4960W        W21434   7.047  13.249   4.574  0.1042  0.2299  0.0379
 4961W        W21435  11.273  14.879   0.337 -0.3021  0.1889  0.0971
 4962W        W21436   1.029  16.265   4.736  0.0324  0.0142 -0.1573
 4963W        W21437  13.425   2.977  12.339 -0.0675 -0.2457  0.0974
 4964W        W21438  11.657   2.786  15.143  0.0190  0.4199  0.1219
 4965W        W21439  12.676  16.593   0.856 -0.0217  0.3020 -0.1313
 4966W        W21440  13.713   9.005   3.509 -0.2283  0.2600 -0.1637
 4967W        W21441  10.204  11.851  13.125 -0.0096  0.2094 -0.3211
 4968W        W21442  15.485   9.993  16.075  0.0638 -0.0229  0.0716
 4969W        W21443   9.351  14.530  12.641  0.0697 -0.0829 -0.0118
 4970W        W21444   2.354  12.380  13.688  0.2525  0.0544 -0.0066
 4971W        W21445  13.881  16.314  15.889  0.1452 -0.0106 -0.0522
 4972W        W21446  11.182   7.477   2.843 -0.0252 -0.0026  0.1712
 4973W        W21447  10.984  17.664  16.004  0.0632 -0.0481  0.2169
 4974W        W21448  13.699   7.112   3.086 -0.2340  0.1718 -0.0496
 4975W        W21449  16.651   7.826   2.756  0.0672 -0.1648 -0.1603
 4976W        W21450  10.760  12.519  11.704  0.0301 -0.2347 -0.5086
 4977W        W21451   9.561   6.113   1.371  0.0791 -0.3535  0.1449
 4978W        W21452   7.951  10.488   0.120 -0.3301  0.3252  0.3910
 4979W        W21453  10.771   4.240  13.333 -0.1836 -0.2306  0.0874
 4980W        W21454  14.413   2.339   4.933 -0.1910  0.3096  0.2204
 4981W        W21455   2.697  10.600  14.206 -0.0728 -0.1232  0.2284
 4982W        W21456   6.230  10.164  13.791  0.4281  0.0436  0.2208
 4983W        W21457   8.692  10.717  16.180 -0.3165  0.4571  0.2637
 4984W        W21458   2.793  14.468  14.963  0.0039  0.2357  0.0190
 4985W        W21459  15.189   3.701  16.035  0.2936 -0.0777  0.0686
 4986W        W21460  16.874  17.642   1.410 -0.4920  0.0108  0.0768
 4987W        W21461   3.915  13.221  14.767  0.3234 -0.0018 -0.0870
 4988W        W21462   2.679   9.866   3.018  0.3455 -0.5409  0.3086
 4989W        W21463   0.541   2.269  11.930  0.0544 -0.1122 -0.0281
 4990W        W21464   0.617   8.584   2.094  0.1841  0.1078 -0.0380
 4991W        W21465   3.155   7.154  12.499  0.0932 -0.0757  0.1018
 4992W        W21466   0.025   7.070  11.129  0.1194 -0.0723 -0.1666
 4993W        W21467  11.464   3.785  10.822 -0.1556  0.0005 -0.0875
 4994W        W21468  12.320   3.983  13.121  0.2409 -0.1354  0.1392
 4995W        W21469  13.276   8.457  11.960 -0.3032 -0.2974  0.2387
 4996W        W21470  14.953  11.084  14.814 -0.1484  0.1059  0.0089
 4997W        W21471  16.406  12.378   3.471  0.2936  0.0724  0.2818
 4998W        W21472   7.462  15.101  14.984 -0.0743 -0.0055  0.2501
 4999W        W21473   8.118   1.503  12.011  0.0385  0.3792  0.0111
 5000W        W21474  16.848   5.658  16.323 -0.0750 -0.1528  0.1917
 5001W        W21475   5.673   1.311  16.160  0.2029  0.0548 -0.0358
 5002W        W21476   8.321  15.714  12.511  0.0459 -0.0202  0.0718
 5003W        W21477  10.115  10.897  14.905 -0.1607 -0.0409 -0.0902
 5004W        W21478   9.227   8.279  15.340  0.1292 -0.1824  0.2763
 5005W        W21479   0.174   6.774   3.734  0.1036 -0.1046 -0.2647
 5006W        W21480  12.515   5.673  13.368  0.1235 -0.1968 -0.1870
 5007W        W21481   9.932  14.756  12.115  0.2854 -0.1260 -0.0326
 5008W        W21482   2.373  13.434   4.316 -0.1752  0.2192  0.2842
 5009W        W21483   9.454   4.670   3.512  0.0754 -0.1462 -0.0845
 5010W        W21484   7.251   9.757   1.607  0.0808 -0.3030  0.0951
 5011W        W21485  15.912   6.662  12.370 -0.3435 -0.0347 -0.2860
 5012W        W21486   3.393  13.866   3.599 -0.0426  0.2529  0.0669
 5013W        W21487  10.601   3.320  14.593  0.2424 -0.2028 -0.0442
 5014W        W21488  14.495  16.979   2.875 -0.0977  0.2496 -0.2113
 5015W        W21489   8.796   6.663  11.769  0.0992  0.2201  0.0597
 5016W        W21490  16.213  15.212   5.437 -0.2019 -0.0525  0.2283
 5017W        W21491   3.114   0.156   0.910  0.1692 -0.1104  0.1213
 5018W        W21492   5.432  14.668   0.954  0.1871 -0.0855 -0.1289
 5019W        W21493   0.723   2.262  14.776 -0.1555  0.1116  0.3296
 5020W        W21494  15.846   7.082  13.024  0.0089 -0.2861  0.0715
 5021W        W21495  16.796   5.078   5.707 -0.0132 -0.0997  0.1984
 5022W        W21496  13.365   5.857   2.158  0.2222  0.1194 -0.1434
 5023W        W21497  14.576   4.752  14.832  0.3546  0.0675 -0.2449
 5024W        W21498   1.243  15.400  15.613  0.1091  0.0496 -0.0282
 5025W        W21499  17.714  16.469   2.476  0.2896  0.0710 -0.1583
 5026W        W21500  17.226   9.007   2.636  0.2015 -0.1606 -0.0361
 5027W        W21501   9.547   2.530  13.610 -0.1430  0.0615  0.0414
 5028W        W21502  13.341   7.441   1.274  0.1217 -0.4232 -0.0904
 5029W        W21503  12.865  11.425  15.777 -0.0971  0.0967 -0.2340
 5030W        W21504   7.388  17.686   5.828 -0.2434 -0.0734 -0.2838
 5031W        W21505  10.823  12.374   1.898  0.1224  0.1741 -0.0503
 5032W        W21506   0.220  17.086   5.796  0.2072 -0.2712  0.1621
 5033W        W21507  13.882  14.285  13.903 -0.0394 -0.3496 -0.1569
 5034W        W21508   8.458   1.709   0.585  0.0968  0.0471  0.1736
 5035W        W21509   2.964   4.650   4.124  0.0563  0.1617  0.0299
 5036W        W21510  11.751  13.887  15.046 -0.1115  0.2163 -0.0514
 5037W        W21511  16.952   7.057   2.739 -0.0309 -0.6197  0.1635
 5038W        W21512   8.535   5.871   2.488 -0.1022  0.2277 -0.0612
 5039W        W21513   6.154   1.993   1.223 -0.0208 -0.0749 -0.1436
 5040W        W21514  15.811   0.464   0.766  0.2236  0.0833  0.1750
 5041W        W21515  13.557   6.769   4.829  0.3217 -0.1664 -0.1318
 5042W        W21516   4.272   2.006   2.882 -0.1679 -0.0895  0.2417
 5043W        W21517   3.155   4.948   4.474 -0.0957  0.2535  0.1083
 5044W        W21518   9.819  17.688   5.835 -0.2219 -0.0758  0.1689
 5045W        W21519  11.508  15.270  15.689  0.1200 -0.0148 -0.1649
 5046W        W21520   5.418   7.590   4.718  0.0214  0.0802  0.0517
 5047W        W21521   7.969   6.855   2.631 -0.0343  0.2626 -0.4042
 5048W        W21522  12.551   7.032  13.879 -0.2702 -0.2711 -0.0372
 5049W        W21523   2.518   8.385  11.532  0.1831 -0.0947  0.1717
 5050W        W21524   8.771  13.434  15.004  0.1429  0.1100  0.2724
 5051W        W21525  10.602   7.115   2.433  0.1106 -0.0359 -0.0727
 5052W        W21526  16.036   2.671  13.680  0.1504  0.0034 -0.0959
 5053W        W21527   0.235  15.785  12.799  0.1180 -0.0334 -0.3286
 5054W        W21528  15.724  15.681   1.484 -0.1151  0.1238 -0.2365
 5055W        W21529  17.870   7.733   2.188  0.1909 -0.1082  0.0965
 5056W        W21530   8.245  16.158  14.760  0.2703  0.0846  0.0915
 5057W        W21531  10.010   5.782   0.802  0.5250 -0.0761 -0.1002
 5058W        W21532   6.718   9.374   1.161 -0.2887 -0.2079  0.3988
 5059W        W21533  17.399  13.957  10.961 -0.1651 -0.0940 -0.1363
 5060W        W21534  17.799  11.514  15.943 -0.0519  0.1192 -0.0306
 5061W        W21535  13.006  18.096   2.040 -0.1075 -0.1659 -0.3622
 5062W        W21536   4.909  14.959   1.544  0.2267 -0.1451  0.0236
 5063W        W21537   0.867  15.967  13.987 -0.2616 -0.1558 -0.1546
 5064W        W21538   3.065   8.134   3.885 -0.0725  0.0266 -0.0391
 5065W        W21539   1.026  15.843   0.441  0.2845  0.3315 -0.1302
 5066W        W21540  18.001   0.021  14.665  0.0698  0.2914  0.5048
 5067W        W21541  12.962   9.745  14.091 -0.2232  0.1546 -0.2601
 5068W        W21542  14.497  15.999   2.522  0.1772 -0.1144  0.1488
 5069W        W21543  16.711  16.108   0.274  0.0247  0.0126 -0.1823
 5070W        W21544   3.148  11.269  12.640  0.0614  0.2345  0.1487
 5071W        W21545  15.835   8.731  14.921  0.0672  0.2580 -0.0334
 5072W        W21546  12.277   2.677   1.129 -0.0942  0.0545 -0.0004
 5073W        W21547   6.486  14.876   3.815  0.4220 -0.1017 -0.0792
 5074W        W21548  14.225   5.825   3.263 -0.2461  0.0638 -0.1990
 5075W        W21549  16.106  13.811   3.151  0.0078  0.0817 -0.1378
 5076W        W21550  14.023   8.241  13.033 -0.0348  0.1588  0.0265
 5077W        W21551   4.645   3.504  13.602 -0.0158 -0.0105  0.1959
 5078W        W21552  11.016   3.170  14.259 -0.1573 -0.2332  0.1754
 5079W        W21553  15.186   0.464  12.126 -0.0083  0.2017  0.0444
 5080W        W21554   3.662   3.432   2.732 -0.1671  0.2211 -0.3545
 5081W        W21555   3.676   2.517  14.848  0.0658 -0.1478  0.2865
 5082W        W21556  16.410  18.372   3.051 -0.0780  0.2078  0.0392
 5083W        W21557   7.265   3.871   3.409 -0.1294 -0.1099  0.2039
 5084W        W21558   0.862   7.540   2.150 -0.0612  0.1804 -0.3136
 5085W        W21559  13.883  15.264   3.255  0.2734  0.1661  0.3308
 5086W        W21560  10.594  16.346  13.059 -0.0169  0.1011 -0.1627
 5087W        W21561  11.202   6.413  14.119  0.2751  0.1536  0.1265
 5088W        W21562   6.256  14.412   0.044  0.2934  0.1482  0.1756
 5089W        W21563   7.153  10.663  12.558 -0.2569 -0.0192 -0.0861
 5090W        W21564   4.030   1.256   4.456  0.2422 -0.0692 -0.1615
 5091W        W21565   1.966  11.199   5.550 -0.0368  0.2219  0.1972
 5092W        W21566   6.841  13.735   1.753 -0.0209 -0.0242  0.1831
 5093W        W21567   5.900   2.903   2.184 -0.5023  0.1303 -0.1375
 5094W        W21568   7.523   9.885  11.585  0.3688 -0.0656  0.0554
 5095W        W21569   0.451  17.145   1.125  0.3635  0.0792 -0.0401
 5096W        W21570  11.301  12.021   0.896 -0.2044 -0.0992  0.3075
 5097W        W21571  15.141   7.817   1.250  0.4034  0.3699  0.1190
 5098W        W21572   3.905   0.114  12.631  0.2068  0.0610  0.1817
 5099W        W21573   6.677  16.203   3.446 -0.2827 -0.0853 -0.1230
 5100W        W21574  16.786   8.717  12.974 -0.3397  0.0064 -0.2833
 5101W        W21575   4.427   5.412   0.063  0.1773  0.1848  0.0978
 5102W        W21576   0.025  10.661  15.946  0.0684  0.1423  0.1951
 5103W        W21577   1.083   8.731   4.789  0.0705  0.3357  0.0834
 5104W        W21578   1.692  18.245   5.913 -0.3329  0.1886 -0.4626
 5105W        W21579   3.351   9.333  14.045  0.1043  0.1070  0.0337
 5106W        W21580   7.217   4.124   0.001  0.3027  0.0907 -0.4058
 5107W        W21581  12.165  15.310  13.552 -0.2072 -0.1420 -0.3133
 5108W        W21582  15.083   2.257  11.638  0.2800  0.1738  0.0302
 5109W        W21583  12.542   3.614   2.547 -0.2060  0.0966 -0.3847
 5110W        W21584   9.533   4.038  15.846  0.1291  0.1658 -0.2538
 5111W        W21585   6.153  14.244   1.137 -0.3236  0.1417  0.0394
 5112W        W21586  14.856  13.095   1.724  0.0454  0.2179 -0.0285
 5113W        W21587   0.661  11.287  14.596 -0.1412 -0.3577  0.1248
 5114W        W21588   3.358   5.112   5.439  0.3070  0.0955  0.3075
 5115W        W21589  14.361  17.187   5.015 -0.0895  0.0510 -0.1020
 5116W        W21590   8.617   9.068   3.414  0.1076 -0.0352  0.0114
 5117W        W21591  11.340   9.576   3.164  0.0174  0.0361  0.1927
 5118W        W21592   9.842  14.387   5.809 -0.0306  0.0912 -0.4025
 5119W        W21593   6.246  14.577   1.668 -0.0971 -0.2338  0.0030
 5120W        W21594  12.078  10.887   1.172 -0.1078  0.0893  0.0366
 5121W        W21595   6.613   3.703   0.226 -0.0117  0.0362  0.1626
 5122W        W21596   9.172   0.817   5.879 -0.2419 -0.1980  0.2573
 5123W        W21597   9.799  14.691  11.634  0.0779 -0.1072  0.3812
 5124W        W21598   4.651   5.534   5.167 -0.0909 -0.0932  0.2238
 5125W        W21599  15.562  12.281  12.765 -0.1557 -0.2576  0.1875
 5126W        W21600   7.843  11.968   2.126 -0.0995  0.2102  0.0992
 5127W        W21601  17.625  14.886   2.290 -0.2206  0.0036 -0.4177
 5128W        W21602  16.219  18.308  14.305  0.0557  0.2209  0.1382
 5129W        W21603  10.599   9.131   1.078  0.1157  0.1400  0.3815
 5130W        W21604   1.892   2.039  15.612  0.0237  0.1184  0.1013
 5131W        W21605  11.608   6.272   0.192 -0.3775 -0.3344  0.1990
 5132W        W21606   0.481   8.996  15.316 -0.2143 -0.3549  0.2362
 5133W        W21607  14.295  13.004   2.596  0.1026  0.0341  0.3075
 5134W        W21608  10.886   7.297  15.065 -0.0476 -0.0551  0.1433
 5135W        W21609   9.859   2.848  15.545  0.3335 -0.1598  0.0563
 5136W        W21610   1.074  14.705   3.917 -0.2213 -0.0418  0.0911
 5137W        W21611  12.876   7.511  11.377  0.3891  0.1013  0.2699
 5138W        W21612   4.676  11.046  13.623 -0.2129 -0.4020  0.0323
 5139W        W21613  16.088   9.660  15.458 -0.0704 -0.2881  0.0211
 5140W        W21614   1.467   9.634  12.464 -0.1529 -0.3660 -0.0765
 5141W        W21615   0.897   8.605   0.175  0.0144  0.0508 -0.0043
 5142W        W21616   2.328  16.917  14.612 -0.2149 -0.0088  0.1930
 5143W        W21617  13.693  18.390  14.605  0.2352  0.1315  0.2050
 5144W        W21618  15.229  14.328  13.837  0.1864 -0.4349  0.0725
 5145W        W21619  16.141  16.812  15.646  0.0445 -0.0523  0.4309
 5146W        W21620   4.956   8.152  15.813  0.1468 -0.3833  0.0119
 5147W        W21621  15.801   1.035   4.772  0.1179 -0.2685 -0.0537
 5148W        W21622   6.039   0.414  12.194  0.0600 -0.2289  0.0366
 5149W        W21623   1.976   9.013  14.093 -0.1174  0.0017  0.1587
 5150W        W21624   3.976   0.379  11.294  0.1632  0.4373  0.2209
 5151W        W21625  13.768   1.138  14.272 -0.0526 -0.3678  0.0233
 5152W        W21626   0.357  16.323  14.124 -0.1183 -0.0276  0.0583
 5153W        W21627  16.052  10.462  11.324 -0.1089 -0.0670  0.0042
 5154W        W21628  17.426   6.608  16.058  0.0611 -0.2018 -0.1396
 5155W        W21629   2.364   6.661  12.917 -0.0798 -0.0456 -0.2091
 5156W        W21630  10.038   1.432   0.657  0.1597 -0.3138 -0.2270
 5157W        W21631   9.098   6.271   4.026  0.1299 -0.0800  0.0605
 5158W        W21632   5.696   5.455   1.158  0.1946 -0.2051  0.0154
 5159W        W21633   8.476   5.200   0.433  0.2895  0.1191 -0.1451
 5160W        W21634  12.539  18.061   0.703  0.3451 -0.2719 -0.2253
 5161W        W21635   4.058  14.470   0.038  0.0712  0.2635 -0.1099
 5162W        W21636  12.674   3.161   3.007 -0.2948  0.3396 -0.3717
 5163W        W21637  14.849   9.228   0.777  0.0603 -0.2442  0.1701
 5164W        W21638  12.931  12.684   5.123  0.2314 -0.1469  0.1881
 5165W        W21639  11.201  13.444   1.884  0.0027  0.1902  0.0970
 5166W        W21640   9.403   8.532  14.045  0.0803 -0.1409 -0.1521
 5167W        W21641   9.497   4.673   2.949  0.0714 -0.4197  0.1838
 5168W        W21642   8.777   8.106   0.214 -0.0240 -0.0653 -0.1431
 5169W        W21643   4.721  11.172   3.489  0.0919 -0.2332 -0.5751
 5170W        W21644   9.359   9.242  10.490 -0.3461  0.2843  0.1166
 5171W        W21645  14.752  13.917   5.460 -0.0337  0.1038 -0.1679
 5172W        W21646   0.155  17.519   1.428 -0.0007 -0.1325  0.1698
 5173W        W21647  14.873   9.162  10.652  0.0913 -0.0785  0.1026
 5174W        W21648  11.267  17.359   5.051 -0.0375  0.1451 -0.1598
 5175W        W21649  13.991  18.002   3.762 -0.0779 -0.1045 -0.2718
 5176W        W21650   4.417  10.406   4.322  0.0303  0.0717  0.0387
 5177W        W21651  17.100   7.944   1.489  0.0013 -0.0785  0.0415
 5178W        W21652  16.972   8.148   4.615 -0.1546  0.1194  0.0404
 5179W        W21653   7.769   5.692  16.185 -0.0947 -0.0923  0.0749
 5180W        W21654   9.514  11.407  16.008 -0.0809 -0.2273  0.0645
 5181W        W21655  18.012   1.549  14.919  0.2050 -0.1217  0.1133
 5182W        W21656  14.474   5.133  14.446 -0.3177 -0.0994  0.0054
 5183W        W21657  11.377   0.582  13.757  0.0330 -0.1005  0.0323
 5184W        W21658   3.648  12.890   4.670  0.0934  0.1403 -0.0302
 5185W        W21659   5.733   4.847   3.886  0.0598 -0.0016  0.0841
 5186W        W21660   3.229   1.372   2.683 -0.1396  0.0274 -0.0901
 5187W        W21661  18.213  15.649   2.547  0.2279  0.1196 -0.1038
 5188W        W21662   2.636   1.369   0.900 -0.1400 -0.1042 -0.1595
 5189W        W21663   9.025  13.932  15.077 -0.1602 -0.3898 -0.0687
 5190W        W21664   2.034   6.960   3.705 -0.1418  0.0326 -0.1026
 5191W        W21665  17.698   5.710   3.722 -0.2860  0.4104 -0.1092
 5192W        W21666  16.747   8.339   2.819  0.0785  0.0303  0.0799
 5193W        W21667   4.720  17.901   2.869  0.5736 -0.3057  0.3832
 5194W        W21668  15.906   4.211   3.093  0.0769  0.0064 -0.2039
 5195W        W21669  12.197   6.940   4.106  0.0890 -0.1637  0.2559
 5196W        W21670  18.184   4.438   0.790  0.0152  0.0492  0.0374
 5197W        W21671   6.354  13.908   4.401 -0.0596 -0.2934 -0.0952
 5198W        W21672   9.040  17.824   0.426 -0.0101  0.0258  0.2735
 5199W        W21673   1.799   6.244  13.272  0.1641 -0.0772  0.2735
 5200W        W21674  12.125  18.147  12.917 -0.0427  0.0288 -0.0237
 5201W        W21675  12.943  17.978   5.944 -0.0276 -0.3209  0.0597
 5202W        W21676   6.247   0.479   4.505 -0.0972 -0.1042  0.1113
 5203W        W21677  11.123   2.644  15.238  0.3549 -0.1045 -0.1335
 5204W        W21678  16.865   8.578  13.609 -0.1659 -0.2698 -0.2201
 5205W        W21679   3.402   4.545   1.430  0.0721 -0.2479 -0.0282
 5206W        W21680  12.148   5.452   3.282  0.2662  0.0960 -0.2720
 5207W        W21681  17.388  12.992   2.062  0.0858 -0.0732 -0.0673
 5208W        W21682   8.669   6.315   2.318 -0.0929  0.1628  0.1878
 5209W        W21683  18.257   0.952   5.143 -0.2475 -0.0446  0.0104
 5210W        W21684  13.142  17.157  14.170  0.3345 -0.1591 -0.1492
 5211W        W21685   4.443   5.933  13.136 -0.0868 -0.1735 -0.2305
 5212W        W21686  10.762   4.813   2.683 -0.4201 -0.1477 -0.3847
 5213W        W21687  11.125   5.555   4.165  0.0553  0.0109 -0.0216
 5214W        W21688   8.744  12.563  11.194  0.1786  0.3109 -0.0979
 5215W        W21689  17.008  14.550   1.558 -0.1225 -0.1575 -0.1303
 5216W        W21690   0.844  14.145  15.185  0.1038  0.0433 -0.1480
 5217W        W21691   0.699  12.948  11.959  0.0675 -0.1450 -0.3056
 5218W        W21692  18.031   7.005  13.509 -0.2019  0.3539 -0.5496
 5219W        W21693   2.509  17.262   0.978  0.0218 -0.3568  0.1900
 5220W        W21694  16.120   1.371   0.092  0.0139 -0.2254 -0.0709
 5221W        W21695  16.919   3.671   5.143  0.0256  0.3988  0.1417
 5222W        W21696   6.779   8.146   1.792 -0.0176  0.1556 -0.0635
 5223W        W21697   3.184   1.052   0.024  0.1284 -0.1668  0.0548
 5224W        W21698  14.633   5.938  13.372 -0.1097 -0.0759 -0.1916
 5225W        W21699  17.191   5.092   4.169  0.2578 -0.0855 -0.1147
 5226W        W21700  10.863   3.672  15.701 -0.1645 -0.1308  0.0020
 5227W        W21701   9.371   2.309  12.689 -0.1944  0.0521 -0.0363
 5228W        W21702   8.066  17.550  12.173 -0.1319  0.2167 -0.1970
 5229W        W21703  13.111  11.868  11.965 -0.4548 -0.3706 -0.0437
 5230W        W21704   4.912   5.893  15.284 -0.0130  0.1160 -0.1241
 5231W        W21705   4.162   6.840  15.841 -0.1619  0.0942 -0.0256
 5232W        W21706   6.484   5.992   3.929  0.3773  0.1748  0.0950
 5233W        W21707  14.406  12.774   1.889 -0.1582 -0.0011 -0.0782
 5234W        W21708   4.473  18.212   4.683 -0.0604 -0.0446 -0.0191
 5235W        W21709   3.568  10.563  11.865  0.0868 -0.4355 -0.2796
 5236W        W21710   1.740   8.398   0.614 -0.1812  0.1352  0.3031
 5237W        W21711  10.183   1.119  14.532  0.2876 -0.0396 -0.0835
 5238W        W21712  14.407  10.409   4.615  0.3560  0.2398  0.1094
 5239W        W21713  13.183   1.721   3.990 -0.4497 -0.0010  0.0365
 5240W        W21714  10.993   0.968  12.534  0.1416 -0.1032 -0.0346
 5241W        W21715   2.934  14.166  11.893 -0.3448  0.2048 -0.0891
 5242W        W21716   2.016   5.674   1.366 -0.0188 -0.0275  0.0576
 5243W        W21717  18.316  12.122   4.946  0.2066 -0.0880 -0.0954
 5244W        W21718  11.822  12.559  15.792 -0.1510  0.0864 -0.0559
 5245W        W21719  14.030  15.065  12.732 -0.4186  0.0172  0.3197
 5246W        W21720   8.389   4.539  13.730  0.0498 -0.1292  0.0189
 5247W        W21721  14.222   8.497   1.551 -0.1869 -0.0493  0.0086
 5248W        W21722  16.221   6.075   4.388 -0.1066  0.0087 -0.1372
 5249W        W21723   5.128   0.367   1.225 -0.4089  0.2786 -0.2568
 5250W        W21724  16.728  14.301  16.204 -0.0934 -0.0568 -0.0409
 5251W        W21725  12.736   5.856   0.670  0.1846  0.0799 -0.4008
 5252W        W21726  13.880   7.317  16.210 -0.0723 -0.3182 -0.1239
 5253W        W21727  14.559   6.467  14.948  0.1351  0.0209  0.1006
 5254W        W21728   0.925   1.571  11.350  0.1520 -0.1180  0.0124
 5255W        W21729   7.441  11.739  15.131  0.0140  0.2998 -0.1083
 5256W        W21730   3.100   8.462   1.617  0.1891 -0.3247 -0.3445
 5257W        W21731   4.633   5.585   2.540  0.0086 -0.1303  0.0368
 5258W        W21732  13.371  13.249  13.860  0.1195 -0.2593 -0.0112
 5259W        W21733   9.389   8.046   4.118  0.0426  0.2481  0.1362
 5260W        W21734   7.557  14.028   2.025 -0.1590 -0.0491  0.0314
 5261W        W21735   0.267   7.209  11.636  0.1569 -0.0742  0.4190
 5262W        W21736  16.777  12.485   2.566  0.0661  0.0500 -0.0578
 5263W        W21737   4.503   9.433   2.171  0.2289  0.0315  0.1343
 5264W        W21738   9.877   8.882  13.424 -0.2548  0.0118  0.0817
 5265W        W21739  10.453  18.382   0.884  0.1779  0.2122  0.0600
 5266W        W21740   0.762   1.063  11.362  0.1941  0.0372  0.2408
 5267W        W21741   4.949  12.439   2.695  0.2215 -0.0178  0.3969
 5268W        W21742   3.479   1.550   0.617 -0.0281  0.2910  0.1070
 5269W        W21743   4.704   3.987   1.900 -0.0963  0.0783 -0.2572
 5270W        W21744   0.699  11.975  14.015  0.0359 -0.0379  0.0914
 5271W        W21745  10.340  10.397  14.523 -0.0435 -0.1183  0.1611
 5272W        W21746   2.509   9.703   5.430 -0.1506  0.2789  0.0700
 5273W        W21747   7.498   8.602  15.586  0.1843 -0.1671  0.2170
 5274W        W21748   8.495  15.323   0.073  0.0960  0.0026 -0.2608
 5275W        W21749  15.795  15.218  12.773 -0.0297 -0.1553 -0.1127
 5276W        W21750  17.592  17.517   1.537  0.1664 -0.2190 -0.0060
 5277W        W21751  12.329   7.959  13.574  0.1361  0.4786 -0.2767
 5278W        W21752  13.447  12.283  13.133 -0.1930 -0.1776  0.2757
 5279W        W21753  11.608  17.976   0.584  0.0830  0.0444 -0.2989
 5280W        W21754  10.805   2.938   4.252 -0.0098 -0.1406  0.0012
 5281W        W21755  17.826   9.138  10.950 -0.1831 -0.2023 -0.1966
 5282W        W21756   4.717   5.693  14.433 -0.2853 -0.1016  0.0808
 5283W        W21757  15.200  14.595   3.249  0.3061 -0.1896 -0.0588
 5284W        W21758   1.089   9.992  12.542 -0.0694 -0.0522  0.2173
 5285W        W21759   9.238   3.129  14.835  0.0090  0.1453 -0.0748
 5286W        W21760   0.729  13.432   4.203 -0.2551  0.3478 -0.1281
 5287W        W21761  11.386   6.283  11.665 -0.1367 -0.1117  0.0611
 5288W        W21762  17.213   0.670   5.544  0.0773  0.3366  0.0245
 5289W        W21763   9.030  17.767   2.061  0.0234 -0.1093  0.1390
 5290W        W21764  14.737  15.015  12.860 -0.2615  0.1437 -0.3304
 5291W        W21765   6.498   7.332   2.182 -0.0258  0.1993  0.1263
 5292W        W21766   0.493  17.254  14.163  0.0169 -0.0840 -0.0609
 5293W        W21767  15.347   3.155  15.153  0.3353 -0.0447  0.1664
 5294W        W21768  10.175  11.176  13.475 -0.2177  0.1156  0.0868
 5295W        W21769  14.211  13.081  14.311  0.1919  0.1426  0.0093
 5296W        W21770  14.816  18.172  13.726 -0.0518 -0.1867  0.1193
 5297W        W21771  14.137  10.042   1.835  0.1260 -0.0601 -0.1091
 5298W        W21772  17.622  14.887   4.429 -0.1861  0.2057 -0.1557
 5299W        W21773  15.637  13.233   1.791 -0.2376  0.2699  0.0380
 5300W        W21774  15.481   1.725  12.238 -0.3238  0.1874 -0.1411
 5301W        W21775   3.759   3.311  14.220  0.1388  0.3336  0.2103
 5302W        W21776  13.953  17.567  12.527 -0.3375 -0.3220  0.0202
 5303W        W21777  15.587  10.662   9.698 -0.1278  0.0777  0.1600
 5304W        W21778  17.003   0.678   3.254 -0.0078  0.0686  0.0023
 5305W        W21779   1.110  14.887   4.422 -0.1312  0.2476  0.1557
 5306W        W21780   9.389   4.857  13.691 -0.0208 -0.2106 -0.3312
 5307W        W21781   3.282  14.544  14.833 -0.3100 -0.1634 -0.1136
 5308W        W21782  14.052  17.604  15.570  0.2797 -0.1949 -0.0056
 5309W        W21783   0.773   4.630   0.879  0.0778  0.0921  0.1230
 5310W        W21784  14.277  12.929   3.061  0.1274 -0.2784  0.1368
 5311W        W21785   4.709  11.409   0.811 -0.2579  0.0203 -0.1067
 5312W        W21786   2.631   0.808  11.745  0.1642  0.1584  0.2168
 5313W        W21787  15.235  15.502   0.675 -0.0941 -0.1025  0.2100
 5314W        W21788   5.026   3.668   2.845 -0.3487  0.4128 -0.1014
 5315W        W21789  16.580   0.165  14.567  0.1253 -0.3462 -0.0432
 5316W        W21790  13.537   6.242  14.560 -0.0625  0.1147  0.0099
 5317W        W21791   2.344   4.519   0.252 -0.1014  0.1429  0.0859
 5318W        W21792   5.219   9.028  11.701 -0.2129  0.4123 -0.0780
 5319W        W21793  17.442  15.253  14.903 -0.1118  0.1520 -0.4023
 5320W        W21794  16.307   9.874  12.044 -0.0774  0.1256  0.0600
 5321W        W21795   8.210  17.826  12.527 -0.2046 -0.2450 -0.2245
 5322W        W21796  16.752   9.593   4.256 -0.0273  0.1439 -0.0211
 5323W        W21797  12.774   1.255  15.424  0.0755  0.0087  0.1431
 5324W        W21798  11.946   3.955  10.984  0.1223  0.3613 -0.2274
 5325W        W21799   9.148   7.628  13.264 -0.2080 -0.1911  0.0238
 5326W        W21800  15.722   5.418  15.463  0.1616 -0.0585  0.0533
 5327W        W21801   5.227  16.541   2.794  0.0605  0.0091  0.0576
 5328W        W21802  10.219  10.041   1.518  0.0532 -0.0304 -0.2992
 5329W        W21803   3.271  11.805   4.328 -0.3766 -0.1477 -0.1004
 5330W        W21804   1.537   0.430   2.932 -0.2768  0.0735 -0.2807
 5331W        W21805  14.669  12.890   4.419  0.1106 -0.1747  0.1382
 5332W        W21806   6.522  10.676  11.429 -0.0072 -0.0255 -0.0342
 5333W        W21807   9.687   7.599  13.036 -0.0351 -0.2272  0.4085
 5334W        W21808  13.579  18.382  13.669 -0.0555 -0.2130 -0.0632
 5335W        W21809   7.609   3.336   2.941 -0.0672  0.2113 -0.2029
 5336W        W21810   6.880   5.676  13.289  0.2509  0.2644  0.1249
 5337W        W21811  12.838   9.825  15.204  0.3299 -0.2690  0.0491
 5338W        W21812  13.878   3.039  15.933 -0.0919  0.2793 -0.1556
 5339W        W21813   5.258   6.574   5.418  0.1014  0.1965 -0.1617
 5340W        W21814   9.894   8.097  12.002 -0.2960 -0.4010 -0.1516
 5341W        W21815  16.589   3.248  11.658  0.1221 -0.1433 -0.1124
 5342W        W21816  14.380   5.993  13.837  0.1746  0.0202  0.0852
 5343W        W21817   1.679  14.272  15.138  0.3772 -0.2381  0.0266
 5344W        W21818  11.599  16.629   3.449 -0.0649  0.0651  0.0961
 5345W        W21819  12.484   7.858  11.354 -0.0793 -0.1001 -0.0538
 5346W        W21820   6.815   0.017   2.429 -0.0462  0.2005  0.0545
 5347W        W21821   2.992   1.179   1.261  0.0492  0.2238  0.2190
 5348W        W21822   9.191  10.324   2.414  0.0132 -0.0829  0.0965
 5349W        W21823   1.353  13.378   2.876  0.3243 -0.2925  0.1366
 5350W        W21824  17.637   6.314   2.405 -0.1517 -0.1053  0.3132
 5351W        W21825  12.431   1.332  14.970 -0.0918  0.2014 -0.2105
 5352W        W21826   2.094  16.660   4.183 -0.0601 -0.0934  0.2899
 5353W        W21827  11.169   9.335   5.085 -0.0063  0.1752 -0.0577
 5354W        W21828   4.792   9.568   0.724  0.2724  0.3110  0.1693
 5355W        W21829   9.173  15.570   3.451 -0.1429 -0.1944  0.3051
 5356W        W21830  15.114  18.007  11.845  0.4642  0.1379 -0.2844
 5357W        W21831   7.639  17.414   4.745  0.1187  0.2837  0.0316
 5358W        W21832   0.017   1.742   0.564  0.0204  0.0103 -0.2542
 5359W        W21833  15.305  13.013   4.330  0.0154 -0.0259  0.0816
 5360W        W21834   6.381   2.818   1.414  0.1697 -0.0152 -0.0613
 5361W        W21835  10.252   1.493   3.943  0.1361 -0.0962 -0.1524
 5362W        W21836   3.740  13.891  12.054 -0.0587 -0.2094  0.1246
 5363W        W21837   3.595   5.454  12.232  0.2820 -0.1128  0.3840
 5364W        W21838   9.003  12.307  15.865  0.2771  0.1954 -0.0972
 5365W        W21839   6.151   7.627  15.354 -0.1296 -0.2387 -0.0952
 5366W        W21840  12.608  14.212   3.393  0.0029 -0.0011  0.0918
 5367W        W21841  15.387  10.586   4.826 -0.0962  0.0135 -0.0217
 5368W        W21842   4.358  13.829  13.289  0.2370  0.2556 -0.2530
 5369W        W21843   6.068   9.388   4.507 -0.0159  0.1028  0.0569
 5370W        W21844   6.523  18.005   4.382 -0.0789  0.3535  0.1028
 5371W        W21845  18.301  16.057  16.140  0.2399 -0.2204  0.2354
 5372W        W21846  17.226   7.087  10.954  0.0115  0.3007  0.0779
 5373W        W21847  11.356   2.394   1.437 -0.3375  0.1228  0.1733
 5374W        W21848  15.911   2.275   2.244 -0.0593  0.3810 -0.0681
 5375W        W21849  11.006  16.870  13.599  0.0038 -0.0991 -0.1656
 5376W        W21850  15.517   1.677   1.730  0.0105  0.2482  0.0376
 5377W        W21851  14.928   5.379   1.799  0.1941 -0.0229 -0.2030
 5378W        W21852  15.417   1.309   5.164  0.0559 -0.1736 -0.0739
 5379W        W21853  11.528  18.363  14.091 -0.0178 -0.0309 -0.1675
 5380W        W21854   8.618   7.335   1.780 -0.0539  0.0981 -0.0689
 5381W        W21855  11.196   1.000  12.966  0.2466  0.0731 -0.0302
 5382W        W21856   1.904   3.026   3.598  0.1241 -0.1281  0.0600
 5383W        W21857   5.917   1.471   3.798 -0.0838  0.1349  0.1228
 5384W        W21858  16.432   2.178  12.872 -0.0857  0.1866  0.1026
 5385W        W21859   4.533  15.266   4.799  0.1727 -0.0828  0.1858
 5386W        W21860  10.962   1.190   2.649  0.3163 -0.0372  0.0729
 5387W        W21861  12.965  13.538  13.417  0.1190  0.0448  0.1584
 5388W        W21862   0.597  18.081   0.790  0.1097  0.0713 -0.1531
 5389W        W21863   0.964  11.375  12.787 -0.1473  0.1185 -0.0549
 5390W        W21864   2.992  15.867  12.750 -0.0206  0.1060  0.1298
 5391W        W21865  11.417  14.567   5.166 -0.1239 -0.1963  0.2709
 5392W        W21866   7.658   6.628  15.734  0.0846  0.1998  0.0139
 5393W        W21867   9.531   2.750  10.278  0.0208  0.2356 -0.1953
 5394W        W21868  11.901   5.770   5.661 -0.0853  0.1968  0.3553
 5395W        W21869  15.514   4.029   1.589 -0.0479 -0.1805  0.1127
 5396W        W21870  16.758   4.793   2.871  0.0474 -0.2509 -0.3156
 5397W        W21871  10.096  16.927   3.975  0.2688 -0.2132  0.2302
 5398W        W21872   3.408  14.618  13.249  0.0672  0.0974 -0.3759
 5399W        W21873   3.652   4.925   1.682  0.1188  0.1559  0.1031
 5400W        W21874  12.763  15.673   2.372  0.0501  0.0255  0.1647
 5401W        W21875   1.266  17.398  12.378  0.2488  0.1129  0.2848
 5402W        W21876   5.634   4.048   4.312  0.1264 -0.1128 -0.0215
 5403W        W21877   3.358  11.710   1.658 -0.1147 -0.3681  0.1521
 5404W        W21878   0.035  17.291  14.440  0.2037 -0.0922 -0.0649
 5405W        W21879  15.974  14.082  12.235  0.2535 -0.0775  0.2105
 5406W        W21880   3.459   1.386  13.039  0.4485 -0.0264 -0.1962
 5407W        W21881   0.431  14.381   0.992 -0.3262 -0.1249  0.1643
 5408W        W21882  13.671   0.487  16.067 -0.2782  0.0555 -0.4439
 5409W        W21883   2.602   3.152   1.154  0.0320  0.4225 -0.0610
 5410W        W21884  11.596   6.272  10.911 -0.0327  0.0345  0.0182
 5411W        W21885  17.657  15.708   5.411  0.0659  0.0037 -0.0301
 5412W        W21886  15.927   0.932  12.292  0.0744 -0.2074 -0.2514
 5413W        W21887  10.876  14.314   3.373 -0.0192 -0.0449  0.3207
 5414W        W21888   8.953  16.290   4.347  0.1065  0.0776 -0.0151
 5415W        W21889   3.128   2.801  16.322  0.0075  0.3106 -0.0384
 5416W        W21890  12.233   5.555   0.504 -0.0617 -0.0558  0.2392
 5417W        W21891   4.136  16.954  15.969  0.3567  0.0171 -0.0936
 5418W        W21892  10.036   0.208   5.804  0.0980 -0.0346  0.1443
 5419W        W21893  16.055  16.414   0.989 -0.1344  0.1985  0.1714
 5420W        W21894  12.422  18.142   4.071  0.0944  0.1355  0.2979
 5421W        W21895  10.959  12.761   2.641 -0.1454 -0.1336 -0.1387
 5422W        W21896  18.228  14.868   5.546  0.1481  0.1181 -0.4234
 5423W        W21897  14.263   2.827  15.576  0.0899  0.1696  0.1630
 5424W        W21898   5.996   0.857  12.719  0.3452 -0.3777  0.3576
 5425W        W21899   1.336   6.857  15.604  0.0984 -0.3727  0.1984
 5426W        W21900   8.167  17.548   5.589  0.0203 -0.1875 -0.0452
 5427W        W21901   3.364   2.366   0.194  0.0008  0.1053  0.1098
 5428W        W21902   9.833  10.630  11.428 -0.3220 -0.1365  0.0459
 5429W        W21903  17.040   9.304   3.823  0.0175  0.3837 -0.0380
 5430W        W21904   9.970   9.212   4.349 -0.2892  0.0831  0.0260
 5431W        W21905  16.185   9.859  12.617 -0.5681  0.1411 -0.0073
 5432W        W21906   6.703  10.056   2.572  0.0664 -0.1924  0.3532
 5433W        W21907  11.870  17.225   0.774  0.2783 -0.0107  0.1243
 5434W        W21908   9.391   6.038  15.600 -0.1663 -0.0946 -0.1561
 5435W        W21909   3.033   5.450   3.539 -0.0742 -0.2480  0.0902
 5436W        W21910   4.681  11.192   2.104  0.0682  0.0363  0.0010
 5437W        W21911  18.192   3.380  14.068  0.0856 -0.0022  0.1834
 5438W        W21912  12.167  14.431   1.653 -0.1566  0.1823  0.2477
 5439W        W21913   6.759  17.181  14.472 -0.2943 -0.1566 -0.1635
 5440W        W21914   3.206  13.106   0.705 -0.2561 -0.1581  0.0859
 5441W        W21915   1.286   6.377  15.654 -0.1073  0.0794  0.0702
 5442W        W21916   5.061  14.824  15.260 -0.2713 -0.0116  0.0268
 5443W        W21917   1.185   7.083   1.355 -0.0753 -0.0500 -0.1716
 5444W        W21918   5.023   9.613   3.238  0.0964 -0.0151 -0.0920
 5445W        W21919  15.759   8.020   2.925  0.0092 -0.1987 -0.0064
 5446W        W21920  14.430  15.072  15.253  0.0232  0.0124  0.1881
 5447W        W21921   2.737   5.087   3.241 -0.2103  0.1035 -0.0120
 5448W        W21922  12.080   5.563  15.345  0.0259  0.0148 -0.2338
 5449W        W21923  13.702   6.778   1.006  0.0784 -0.3322 -0.3255
 5450W        W21924  15.855   4.455  12.108 -0.0461  0.0837  0.1867
 5451W        W21925   7.219  11.086  14.328 -0.1146 -0.3681 -0.0028
 5452W        W21926  13.356   0.982  12.820 -0.3227 -0.0877 -0.2518
 5453W        W21927  15.867  17.233  12.693  0.1852  0.0036  0.0685
 5454W        W21928  15.074  13.025  14.015 -0.0219 -0.3633 -0.1437
 5455W        W21929  11.311  14.214   3.701 -0.2407  0.8063 -0.0273
 5456W        W21930  11.394  10.718   0.708 -0.0051 -0.0365  0.1881
 5457W        W21931  16.377   6.788  11.049 -0.2672 -0.0912 -0.1005
 5458W        W21932  11.160  14.568   4.146 -0.1739  0.2944  0.1411
 5459W        W21933   3.768  14.170   3.601 -0.2096  0.0984 -0.0114
 5460W        W21934   9.118   8.721  16.252  0.0737  0.1194 -0.0755
 5461W        W21935   1.302   2.018  15.728  0.1617 -0.1724 -0.1733
 5462W        W21936   1.735  10.544  12.195 -0.0209 -0.1136  0.0974
 5463W        W21937   4.107   0.521  14.054 -0.0214 -0.1660  0.0597
 5464W        W21938  13.356   8.417  10.781  0.0476 -0.1488  0.0522
 5465W        W21939   1.652   6.075   1.604  0.0087 -0.0222  0.2092
 5466W        W21940  12.481   5.668  15.570 -0.0716 -0.2805  0.0696
 5467W        W21941  17.837   0.577  15.090  0.0357  0.0359 -0.0453
 5468W        W21942   7.047   0.216   2.028  0.3216  0.0564  0.3130
 5469W        W21943  11.805   5.383  11.804  0.0691 -0.2717 -0.1541
 5470W        W21944  18.018   8.500  13.792 -0.4601  0.0021  0.3350
 5471W        W21945   6.716  13.521   4.761  0.1559  0.0185 -0.1506
 5472W        W21946   6.182  17.739   4.138 -0.2780  0.1114 -0.0632
 5473W        W21947   9.037   0.356   5.638 -0.2077 -0.1160 -0.1590
 5474W        W21948  12.951   7.469  14.416 -0.3172  0.0970 -0.2522
 5475W        W21949  17.424   0.433   2.475  0.0701  0.1586  0.2115
 5476W        W21950  17.980   7.967  15.078  0.0060 -0.2171  0.1916
 5477W        W21951   6.331  14.124  14.599  0.0663 -0.0481  0.0624
 5478W        W21952  13.027  14.384  11.393 -0.1823 -0.0345 -0.5373
 5479W        W21953   9.667  11.147  11.430 -0.2181 -0.1011  0.3353
 5480W        W21954  18.120   5.948   1.680  0.0610 -0.1055  0.1229
 5481W        W21955  14.948  11.236   3.570  0.2601  0.0199 -0.0166
 5482W        W21956   2.368  11.009  14.362  0.2441  0.0742  0.1273
 5483W        W21957  14.414  14.619   0.960 -0.0532 -0.0704 -0.2998
 5484W        W21958   8.757   7.791   1.090  0.0096  0.0730  0.1413
 5485W        W21959   5.453   5.974   1.059  0.4775 -0.2723 -0.0242
 5486W        W21960  12.612   6.597   1.460 -0.2413  0.2607 -0.0026
 5487W        W21961  16.128  12.983  11.482 -0.0498 -0.3995  0.1088
 5488W        W21962  17.422   4.623   4.282 -0.3116  0.0638 -0.0599
 5489W        W21963  15.859  13.725   3.547  0.0380 -0.4680 -0.1581
 5490W        W21964  17.101  18.047  13.083  0.0966 -0.2266  0.1571
 5491W        W21965   0.786  13.201   0.686 -0.0461 -0.1541  0.3009
 5492W        W21966   6.126   5.723  14.823  0.2098  0.1816  0.1376
 5493W        W21967   7.407   1.492   2.867  0.1440  0.3747 -0.0767
 5494W        W21968  16.212   8.442  15.113  0.1946 -0.4451  0.0436
 5495W        W21969  15.331  15.384   1.550 -0.0298  0.0273 -0.0877
 5496W        W21970   2.963   1.797   0.758 -0.1042 -0.1311 -0.2321
 5497W        W21971   2.610  12.166  11.682 -0.0829 -0.1830 -0.0972
 5498W        W21972  11.586   7.993   9.609 -0.4337 -0.0690 -0.1534
 5499W        W21973   6.971   5.986  14.971 -0.2246 -0.4592  0.0121
 5500W        W21974   4.451   1.918  14.507 -0.0898 -0.0318  0.0774
 5501W        W21975   3.640  17.610   1.952  0.2429  0.3170 -0.0384
 5502W        W21976   7.044  13.937  13.899  0.1559  0.0240  0.1151
 5503W        W21977  15.309   7.133   4.808  0.0771 -0.0717  0.0295
 5504W        W21978  12.027  14.326   0.411 -0.1072  0.2884 -0.1165
 5505W        W21979  16.620   9.179   4.041 -0.2726  0.0648 -0.0710
 5506W        W21980   0.877  16.450   3.370 -0.0644 -0.1252 -0.0087
 5507W        W21981  12.898  16.111   2.042  0.3325  0.0298 -0.1404
 5508W        W21982   0.074   7.132   4.247  0.2816  0.0943  0.0610
 5509W        W21983   7.087   3.116   4.295 -0.0335 -0.0043 -0.2158
 5510W        W21984   7.478  11.290  13.329  0.3262 -0.1128  0.1577
 5511W        W21985  17.088  13.768   1.453 -0.3035 -0.0291  0.3844
 5512W        W21986   8.876  16.818   2.735  0.0285 -0.1247 -0.1153
 5513W        W21987   8.020   4.802  13.490 -0.1450  0.2071  0.1985
 5514W        W21988   5.636  13.871  16.204  0.0290 -0.1311  0.0502
 5515W        W21989   0.466   0.863  11.765 -0.1782  0.2313  0.0704
 5516W        W21990   8.683  17.117   4.757  0.1042 -0.5499  0.1303
 5517W        W21991   5.949   0.947   4.892 -0.0789  0.1093  0.1461
 5518W        W21992  17.318   5.281   5.582  0.3244 -0.1779 -0.2020
 5519W        W21993   2.630   0.960   4.701  0.0580 -0.2465  0.0844
 5520W        W21994   0.047   5.113   3.254 -0.0074 -0.1020  0.0351
 5521W        W21995   5.830  18.208   1.634 -0.1525 -0.2654 -0.1696
 5522W        W21996  15.677  11.628  12.206  0.0625 -0.0252  0.3856
 5523W        W21997  13.000   4.598  11.909 -0.0158 -0.3449  0.1483
 5524W        W21998  12.873   1.830  13.300  0.0592 -0.1190  0.1145
 5525W        W21999   3.800   6.946   4.272  0.0453 -0.0946  0.0105
 5526W        W22000   9.588   0.199   0.520  0.0378 -0.0678 -0.1431
 5527W        W22001   7.981  10.632  11.979  0.1145 -0.2219  0.0017
 5528W        W22002  11.061  10.889  13.052 -0.0524  0.3177 -0.3749
 5529W        W22003  12.489   5.244  11.153 -0.0628  0.0349 -0.0308
 5530W        W22004   2.417  11.995   3.121 -0.0232 -0.2656  0.1585
 5531W        W22005   6.623   6.840   3.701 -0.1270  0.0813  0.0473
 5532W        W22006  11.521   5.851  16.249 -0.2553 -0.1347  0.0941
 5533W        W22007  12.559   0.684   3.236  0.1608 -0.3354  0.0391
 5534W        W22008   4.372  13.788   0.995 -0.1148  0.0593  0.0602
 5535W        W22009   0.751   5.258   5.073  0.0524 -0.0408  0.2273
 5536W        W22010  14.129   8.999  10.774 -0.4825 -0.3342 -0.2161
 5537W        W22011  12.456  14.807   4.874 -0.1678  0.2095 -0.1127
 5538W        W22012  11.703   7.580   3.088 -0.2831  0.0958 -0.1573
 5539W        W22013  12.649   5.413  16.033 -0.1669 -0.0596  0.0239
 5540W        W22014   4.906   2.336   3.204 -0.1927 -0.1836 -0.1886
 5541W        W22015  15.544   3.757  14.429 -0.2076 -0.0580  0.1705
 5542W        W22016  12.812   7.960   4.743 -0.0889 -0.1289 -0.0391
 5543W        W22017   0.417   5.790   2.032  0.0510  0.3263 -0.0679
 5544W        W22018   5.220   2.446  13.228 -0.2405 -0.0684  0.0743
 5545W        W22019  14.554   1.463   4.545  0.0759 -0.2810  0.1315
 5546W        W22020  15.393  17.331  14.492  0.1178  0.0796 -0.0435
 5547W        W22021  10.215   7.738   0.339 -0.2290  0.0478 -0.3844
 5548W        W22022   3.470   4.172   4.901 -0.2561  0.2590  0.1625
 5549W        W22023  12.416  14.085  10.392 -0.1946  0.2286  0.0413
 5550W        W22024  12.976   0.912   0.196 -0.0479  0.1246 -0.0224
 5551W        W22025   7.498   5.572  11.899  0.1582 -0.2066 -0.2472
 5552W        W22026   3.992  11.135  12.975  0.0628  0.1888  0.0315
 5553W        W22027   4.751   0.043   4.306  0.2255  0.0838  0.0710
 5554W        W22028   7.765   2.787   2.843  0.2086  0.4255 -0.1659
 5555W        W22029  11.395  10.701  13.370  0.2647 -0.0307 -0.4200
 5556W        W22030  12.725   9.381  14.331  0.1654 -0.0764  0.2723
 5557W        W22031  14.932  17.306  11.797 -0.0312 -0.1810  0.4023
 5558W        W22032  18.092  14.729  13.886 -0.1620  0.0373  0.1994
 5559W        W22033  11.248  14.515   2.037 -0.2672  0.0711  0.1529
 5560W        W22034   7.932  18.341  14.582  0.1827 -0.0801  0.0741
 5561W        W22035   7.779   6.368  11.762 -0.1568 -0.0427  0.2488
 5562W        W22036  15.318   4.450  15.451  0.0755 -0.1479 -0.3126
 5563W        W22037   4.785  15.341  15.877 -0.2114 -0.1005  0.0657
 5564W        W22038   8.831  10.203  10.761 -0.4843  0.1409 -0.1291
 5565W        W22039  13.327  11.577  15.681 -0.2545 -0.4461  0.0879
 5566W        W22040  10.169  18.110  15.544 -0.1296 -0.0254 -0.2942
 5567W        W22041  17.083  17.245  11.176  0.1036 -0.1213 -0.0412
 5568W        W22042  10.814   1.929   0.205 -0.1541  0.1310  0.0236
 5569W        W22043   3.296   0.736   0.423  0.5083  0.3738  0.5047
 5570W        W22044  15.613   5.385  16.303  0.2485  0.0484  0.0643
 5571W        W22045   5.935   0.038  15.432 -0.0581  0.0462  0.1125
 5572W        W22046  13.471  16.154   0.206 -0.0008  0.1247  0.1010
 5573W        W22047   9.572  10.635   2.037 -0.1686  0.3189  0.0479
 5574W        W22048  10.751   5.126   2.099  0.1502 -0.0280 -0.2840
 5575W        W22049  11.690  12.031   5.031  0.2406 -0.2846 -0.3070
 5576W        W22050   4.347   7.115   4.049  0.3807 -0.0217  0.0931
 5577W        W22051   4.770   7.929  12.279  0.2858  0.3804 -0.1203
 5578W        W22052   6.825  12.686   4.520 -0.0514 -0.0541 -0.0984
 5579W        W22053   0.904   5.643   6.082 -0.0243  0.0473  0.1950
 5580W        W22054  16.154  15.688  15.392 -0.3260  0.0471 -0.2867
 5581W        W22055  12.669  14.579   0.164 -0.2056 -0.0734 -0.0494
 5582W        W22056   4.269   7.138   0.103  0.0740 -0.1832  0.2875
 5583W        W22057   0.100   4.627  13.005  0.0466  0.0270 -0.1180
 5584W        W22058   2.377  17.475  12.212 -0.1141  0.0530 -0.3031
 5585W        W22059   4.406  11.543  16.037 -0.0673  0.2301 -0.1526
 5586W        W22060  17.815   7.577  14.716 -0.0718 -0.1865  0.2462
 5587W        W22061  16.733  14.647   5.597 -0.1983 -0.0798 -0.2916
 5588W        W22062   7.623   2.244  12.364  0.4300 -0.1839  0.6448
 5589W        W22063  14.251   4.759   0.807 -0.0617  0.1641 -0.0575
 5590W        W22064   0.196  10.450   2.882 -0.2800 -0.3122 -0.0114
 5591W        W22065  12.100   0.162  13.213 -0.3201 -0.4670 -0.0307
 5592W        W22066  18.140   6.024  11.435  0.2047  0.2944  0.1515
 5593W        W22067  17.234  18.119  12.627  0.0445  0.0973  0.0733
 5594W        W22068  17.125  17.465  11.858 -0.1925  0.1448  0.0204
 5595W        W22069   2.499  13.871   0.195  0.0702  0.1293 -0.2365
 5596W        W22070   4.917   9.670  16.284 -0.0448 -0.2596 -0.0228
 5597W        W22071   6.396   5.520   0.082  0.1866 -0.1136 -0.1491
 5598W        W22072  11.660  12.715  12.756 -0.1225 -0.2248  0.0357
 5599W        W22073   6.914  14.097   3.689  0.0452  0.1483 -0.1602
 5600W        W22074  15.813  12.908   1.489  0.1580  0.0875 -0.3944
 5601W        W22075  13.031  10.684  15.494 -0.0809 -0.1012 -0.0016
 5602W        W22076   9.568  16.240   4.968 -0.3141 -0.0876  0.2800
 5603W        W22077  13.773  16.526   5.043 -0.0410 -0.1021  0.2481
 5604W        W22078  13.307   1.351   4.288  0.1647  0.1312 -0.1535
 5605W        W22079  13.614   0.186  14.090 -0.2235 -0.1035  0.2155
 5606W        W22080   2.133   0.182  12.406  0.0797 -0.0814  0.1461
 5607W        W22081   6.686   2.130  16.069 -0.1243  0.1685  0.0084
 5608W        W22082   1.518   8.411   5.457  0.0018 -0.0167 -0.0792
 5609W        W22083   1.095  15.792   5.089 -0.1082 -0.3349  0.1844
 5610W        W22084   5.830  10.346  13.965 -0.2260 -0.0012  0.1078
 5611W        W22085  17.520   7.433   5.535  0.0650  0.2734 -0.0480
 5612W        W22086  16.998  10.987   4.398  0.3923  0.0545 -0.3978
 5613W        W22087   9.369  12.216   2.367 -0.1077 -0.0363  0.4800
 5614W        W22088  13.680   7.495   4.033  0.1913  0.0567  0.0753
 5615W        W22089   0.140   0.917   2.517 -0.2088  0.1163  0.0647
 5616W        W22090  11.810   1.778  15.434 -0.0807  0.1817  0.0809
 5617W        W22091   7.168   4.118   2.069  0.2753 -0.0959  0.3890
 5618W        W22092  14.671  10.734   0.641 -0.0524 -0.0592  0.1474
 5619W        W22093  15.493   4.801  12.270  0.2121 -0.2916  0.1103
 5620W        W22094   4.760   8.615   1.635 -0.0134  0.2558  0.0505
 5621W        W22095  15.488  17.459   3.415  0.1239 -0.2490  0.0457
 5622W        W22096   2.476  15.325   1.974 -0.0036  0.0409 -0.2777
 5623W        W22097   8.704  11.214   2.774  0.0702  0.1530 -0.1343
 5624W        W22098   2.889   1.113   3.328  0.0153  0.1425  0.1702
 5625W        W22099  16.925  14.994  11.353 -0.0214 -0.0734  0.1492
 5626W        W22100  15.242  10.530  13.901  0.0747 -0.0494  0.3205
 5627W        W22101  18.164   9.267  15.892 -0.1951 -0.1293 -0.0209
 5628W        W22102  11.176   5.951  10.728 -0.0111  0.1297  0.0513
 5629W        W22103  13.000   8.125  13.153  0.3389  0.2060 -0.2925
 5630W        W22104  14.146   9.767   6.003 -0.2418 -0.2108  0.0879
 5631W        W22105  16.482   7.374   1.980  0.0761 -0.2459  0.4021
 5632W        W22106  17.392   3.046  15.867 -0.1587 -0.1477  0.4104
 5633W        W22107   1.479  12.482   1.574  0.0584  0.2826 -0.0511
 5634W        W22108   1.669   6.896   0.032  0.1309 -0.0049  0.3511
 5635W        W22109  16.015  14.891   0.183  0.0327 -0.1832  0.3107
 5636W        W22110   8.545   6.889  15.048  0.0792 -0.7051  0.0990
 5637W        W22111  12.123   9.260  13.767 -0.0735  0.4177 -0.2228
 5638W        W22112  14.460   3.275   3.488 -0.1544  0.1267 -0.0183
 5639W        W22113  13.481  14.591   0.848  0.1408 -0.4014  0.2660
 5640W        W22114   3.861  15.328  14.894  0.1156  0.1764 -0.2054
 5641W        W22115   6.279   4.753  12.799  0.0699 -0.0847  0.0794
 5642W        W22116  13.263   8.834  14.160 -0.1355  0.0162  0.1086
 5643W        W22117   9.568   5.763   5.044 -0.0812 -0.3660  0.2152
 5644W        W22118  10.538   1.952   2.322  0.1122  0.1922  0.3071
 5645W        W22119  18.130  11.714   4.625 -0.0300  0.2059  0.3216
 5646W        W22120  15.327   2.528   3.942 -0.0351  0.0924  0.2667
 5647W        W22121   4.039  12.582   3.817 -0.1776 -0.3145 -0.1299
 5648W        W22122  17.625   0.294  16.138  0.0374 -0.0204  0.2244
 5649W        W22123  13.272   3.802  14.899 -0.0452 -0.1197  0.2797
 5650W        W22124   9.964  16.308   0.760  0.1278  0.1432 -0.3512
 5651W        W22125   8.172  13.324  10.530  0.0590  0.1119 -0.0493
 5652W        W22126  16.906  17.609   2.291 -0.1587 -0.0719  0.0115
 5653W        W22127  10.781  14.011  13.577  0.2134 -0.2920  0.0179
 5654W        W22128   5.514   3.510  15.440 -0.0344 -0.2072  0.1398
 5655W        W22129  10.271   8.230   0.524  0.2285 -0.0181  0.2851
 5656W        W22130  11.521   2.093  12.699  0.0597  0.2738 -0.1340
 5657W        W22131  17.774  17.418   6.275  0.1884  0.0749  0.2892
 5658W        W22132   8.160  16.433   2.145 -0.0850  0.5617  0.1008
 5659W        W22133  17.227   1.133   2.053 -0.2163  0.3500  0.0547
 5660W        W22134   7.644   3.549  15.494  0.0350 -0.3950  0.1741
 5661W        W22135  10.189   5.540  13.514  0.1276  0.1216 -0.0402
 5662W        W22136  11.779  10.219   3.717 -0.0758 -0.1104 -0.2609
 5663W        W22137  13.335  12.452  14.649  0.4724  0.0823 -0.1812
 5664W        W22138  13.035   5.825  14.000 -0.2178 -0.1405 -0.1709
 5665W        W22139   7.450   8.482   1.904 -0.0721  0.0254 -0.2154
 5666W        W22140   1.583   8.188   4.720  0.2433  0.0194 -0.2317
 5667W        W22141   5.130  10.093  11.873 -0.2657 -0.0050 -0.0359
 5668W        W22142   8.758   8.624  11.494 -0.3113  0.1074  0.0032
 5669W        W22143  16.579  15.655   4.198 -0.0466  0.0696  0.0092
 5670W        W22144  17.834  15.746   1.218 -0.2778 -0.0582 -0.0792
 5671W        W22145   8.437   6.286   1.128 -0.0171  0.0519  0.0060
 5672W        W22146   9.762  14.737  14.293  0.1159  0.0580 -0.1587
 5673W        W22147   9.463  17.989   5.617  0.2025  0.1711 -0.3977
 5674W        W22148  12.714   2.377   3.458 -0.0712 -0.0254 -0.0849
 5675W        W22149  12.863   8.697   4.059  0.3837  0.1911 -0.1045
 5676W        W22150  14.699  11.468   1.765  0.2574  0.0011 -0.1287
 5677W        W22151   9.716  15.555   2.441 -0.0148  0.2596 -0.0180
 5678W        W22152   2.536   9.784  13.868  0.1678  0.0011  0.1490
 5679W        W22153   8.025  12.084  13.363  0.5142  0.0255 -0.2307
 5680W        W22154  13.866   4.052  16.283  0.1965 -0.2937  0.1765
 5681W        W22155  12.829  16.892  14.493 -0.0114  0.1846  0.1353
 5682W        W22156   1.079  16.087   3.793 -0.2917 -0.3359 -0.2842
 5683W        W22157  16.856   3.044  12.588 -0.2752 -0.1090 -0.3387
 5684W        W22158   5.008   0.509   6.001  0.2340 -0.0328 -0.0052
 5685W        W22159   3.408  13.241   1.216  0.1592  0.1311  0.2420
 5686W        W22160   8.064   9.882  14.841  0.3716 -0.0093 -0.1068
 5687W        W22161  18.234  12.201   3.588  0.1952  0.1723  0.1575
 5688W        W22162  13.378   6.349   2.544 -0.1399 -0.1402  0.0600
 5689W        W22163  17.635  16.971  16.167  0.2605  0.2014  0.0638
 5690W        W22164   9.868   3.161   2.258  0.1870  0.3191  0.1327
 5691W        W22165  18.162   8.084   0.117  0.0018  0.0414 -0.1645
 5692W        W22166   8.893  12.552   5.606 -0.4955 -0.2428 -0.1812
 5693W        W22167   9.599  13.398  14.022  0.0060  0.0360  0.1954
 5694W        W22168   7.142  13.992  15.901  0.0584 -0.0965  0.0904
 5695W        W22169  12.626   5.164   3.671 -0.0468  0.0893 -0.0934
 5696W        W22170  14.874   9.235   4.264  0.0332 -0.0504  0.0957
 5697W        W22171  12.205  14.444  15.879  0.0346 -0.1505 -0.0914
 5698W        W22172   7.212   2.968   2.958  0.3536  0.1587 -0.0244
 5699W        W22173  13.699  13.065  13.473 -0.0604 -0.1154 -0.0417
 5700W        W22174   9.143   0.743   5.245  0.0148 -0.3978  0.1937
 5701W        W22175   4.704  13.492   0.806 -0.0121 -0.0622  0.0723
 5702W        W22176   8.540   0.941   5.071 -0.1954 -0.2658  0.0373
 5703W        W22177  15.939  10.128   1.264 -0.0754  0.0983 -0.5100
 5704W        W22178  15.940  16.046  15.036  0.2489  0.4326 -0.2454
 5705W        W22179   7.072  13.278  12.797 -0.0655  0.0929  0.0824
 5706W        W22180  16.664  16.936  13.409  0.2986  0.2403 -0.2106
 5707W        W22181  17.987  18.269  14.003  0.2015  0.2009  0.1110
 5708W        W22182   8.354   8.567  11.212  0.1376  0.2077 -0.0344
 5709W        W22183   3.539   7.995   2.360 -0.1203 -0.1356  0.1653
 5710W        W22184   4.759  15.180  15.054  0.0086 -0.1615  0.1462
 5711W        W22185  16.801  11.608   1.345  0.5720 -0.0182  0.0545
 5712W        W22186  10.220  13.349   1.325 -0.2651 -0.0084  0.0978
 5713W        W22187   3.948   5.547  16.137 -0.2116 -0.0473  0.1914
 5714W        W22188  15.176   8.089   3.845  0.1220  0.2767  0.0715
 5715W        W22189   1.676  14.095   4.925  0.1927 -0.1964 -0.0654
 5716W        W22190   1.338  13.036   1.813 -0.1518 -0.0180  0.1017
 5717W        W22191   3.695   0.642  12.747 -0.1300  0.2167  0.1158
 5718W        W22192   3.602   5.420  13.357 -0.1154 -0.1262  0.2001
 5719W        W22193  11.416   2.205   4.331  0.2650  0.2941 -0.1366
 5720W        W22194  16.923  13.053   5.043  0.1386 -0.4195 -0.1616
 5721W        W22195   9.240  16.121   0.710 -0.1009  0.2969 -0.1313
 5722W        W22196   3.440  13.283   2.956  0.1379 -0.0111  0.0624
 5723W        W22197  15.224  12.016   2.518  0.1564 -0.0277  0.0806
 5724W        W22198   7.073   4.677   0.134  0.0329  0.2339  0.0089
 5725W        W22199   8.882   9.130  12.941  0.1589 -0.1164  0.1457
 5726W        W22200   0.843  13.442   1.808  0.1451  0.0771 -0.2722
 5727W        W22201   7.275   7.821   4.942  0.0738 -0.2092 -0.2476
 5728W        W22202   1.108  12.458   5.120  0.0928 -0.0401  0.0520
 5729W        W22203   7.266   9.995  11.119  0.1494 -0.1205 -0.1194
 5730W        W22204  12.030   8.811   0.104 -0.0968  0.1637  0.2711
 5731W        W22205  11.526  15.546  14.746  0.0785  0.0217  0.1413
 5732W        W22206  17.255  17.789   4.714  0.1259 -0.2110  0.2071
 5733W        W22207  15.407   8.566  12.961 -0.3657  0.1557 -0.0174
 5734W        W22208   2.152   2.520  12.306 -0.1692  0.1865 -0.1843
 5735W        W22209   5.574   7.729   0.668 -0.0986  0.3658  0.0395
 5736W        W22210  16.891   5.294   1.695  0.0803 -0.3000 -0.2409
 5737W        W22211  12.371   3.609  15.382  0.1730  0.0298  0.1478
 5738W        W22212  17.714   4.064   2.226  0.1698 -0.0113 -0.1791
 5739W        W22213   1.477  16.978   1.142  0.0495 -0.0044 -0.2652
 5740W        W22214  10.492   4.770  12.664 -0.3061  0.0593 -0.1401
 5741W        W22215   7.253  11.454   1.730 -0.1784 -0.0386  0.3186
 5742W        W22216  15.507  11.940   4.673 -0.0472  0.0842 -0.0459
 5743W        W22217  16.378  11.024  15.802 -0.0872  0.0860 -0.2082
 5744W        W22218   7.830  12.508  13.790  0.1603 -0.1815  0.0468
 5745W        W22219   7.146  10.084   3.685 -0.2872 -0.3362  0.0145
 5746W        W22220  11.932  17.128   4.766  0.2033 -0.1796  0.1895
 5747W        W22221   9.603   1.851   3.459 -0.2749  0.5135 -0.0247
 5748W        W22222   1.715   2.302   2.712  0.3615 -0.1517  0.3325
 5749W        W22223   5.981   3.380   3.104  0.2211  0.0596 -0.1973
 5750W        W22224   8.480  10.134  15.071  0.1795 -0.2279 -0.0656
 5751W        W22225   2.601  11.030   0.640 -0.2386 -0.3663  0.1366
 5752W        W22226   2.298   0.844   2.718 -0.2363 -0.2294 -0.2746
 5753W        W22227  11.012  16.102   0.723  0.5601 -0.0698  0.0509
 5754W        W22228   9.882  17.864   1.752 -0.2315  0.2947  0.0899
 5755W        W22229   6.636   9.518   5.923  0.4623 -0.0338  0.0341
 5756W        W22230   3.246  13.445  11.246 -0.2692 -0.0401  0.1375
 5757W        W22231  11.150  11.122   0.433  0.0707  0.2789 -0.2585
 5758W        W22232  18.169  16.545  11.786 -0.2109  0.1174  0.0055
 5759W        W22233  10.584  14.710   0.546  0.3446  0.1276  0.1114
 5760W        W22234   0.104   4.628   0.407 -0.3828  0.1834  0.0790
 5761W        W22235  11.907  17.989  15.926 -0.2529  0.0275  0.0346
 5762W        W22236   9.469  14.644  13.258 -0.3561  0.1825  0.0178
 5763W        W22237  16.197   1.653   3.533  0.0905 -0.1266 -0.2271
 5764W        W22238   6.685  11.797   3.092 -0.2143  0.0454 -0.1762
 5765W        W22239   1.566  11.633  12.869 -0.0816  0.1774 -0.0252
 5766W        W22240  14.166  11.687   4.733  0.1091 -0.1863  0.0312
 5767W        W22241   6.287  13.772  15.598 -0.1139  0.0476  0.1039
 5768W        W22242  13.904   6.762  15.509 -0.1223  0.0752  0.1567
 5769W        W22243  14.414   9.947   4.686 -0.1723  0.0876  0.2531
 5770W        W22244  15.921   0.683   1.227 -0.0918 -0.0058  0.2973
 5771W        W22245  14.336   7.148  16.110 -0.0654  0.0424 -0.3437
 5772W        W22246   8.749   7.270  10.983 -0.0388  0.1065 -0.0997
 5773W        W22247   1.597   4.765   1.506  0.1787  0.1419 -0.3614
 5774W        W22248   3.145   5.996  12.406  0.0956 -0.2063  0.1375
 5775W        W22249   3.156  12.683  12.355 -0.0065 -0.1191  0.4911
 5776W        W22250  16.435   1.983   2.215  0.0589  0.0407 -0.3040
 5777W        W22251   2.461  13.891   1.297 -0.4085 -0.1405 -0.1884
 5778W        W22252  16.647   6.129  14.330 -0.2237 -0.1089  0.0526
 5779W        W22253   5.786  17.777  16.030 -0.0474 -0.1232 -0.0966
 5780W        W22254   9.851  13.017  12.277  0.0921 -0.3216  0.0761
 5781W        W22255  16.595   7.082  11.991  0.0047  0.2376 -0.1578
 5782W        W22256   3.042   0.142   1.397  0.1962 -0.0765  0.0349
 5783W        W22257   5.653   9.929  15.986  0.0334 -0.1932 -0.1605
 5784W        W22258  12.598   1.484   2.163  0.2219  0.1978  0.0243
 5785W        W22259  10.529  16.832  16.007 -0.1303 -0.0557 -0.3721
 5786W        W22260  15.518  16.530   3.913  0.1831 -0.1373 -0.3091
 5787W        W22261   7.258   7.425  14.628 -0.1599 -0.3405 -0.0412
 5788W        W22262   6.992   3.467  11.608  0.0416 -0.0909 -0.0374
 5789W        W22263  12.452  15.124   6.122 -0.1913 -0.0409 -0.0885
 5790W        W22264   9.993   3.404   3.161  0.1360 -0.3341  0.2147
 5791W        W22265   3.632  17.547  12.188 -0.1451  0.2936 -0.1399
 5792W        W22266   6.917  15.616  15.250 -0.1221  0.0457  0.2499
 5793W        W22267   3.233   7.479  11.732  0.2481 -0.2979 -0.0445
 5794W        W22268   7.754  11.193  14.388 -0.0586 -0.1131  0.3034
 5795W        W22269  17.988  15.314   0.873 -0.0632  0.1580 -0.0336
 5796W        W22270   3.398  12.237  13.683  0.0196  0.0632 -0.2210
 5797W        W22271  14.441  13.700   2.227  0.1098 -0.0803  0.3160
 5798W        W22272  10.475   6.210   2.033  0.0343 -0.3023  0.1095
 5799W        W22273   0.700   7.795   1.756 -0.0767 -0.2053 -0.1072
 5800W        W22274  15.910   1.432  12.308 -0.0450  0.0100  0.0169
 5801W        W22275  13.749   6.427   0.550 -0.0403 -0.1551  0.0796
 5802W        W22276   0.406  14.164  13.849 -0.2116  0.0933 -0.0899
 5803W        W22277  10.669  10.897  11.318  0.0649  0.1643 -0.1212
 5804W        W22278  15.061  17.093   1.655  0.0457 -0.0048  0.0446
 5805W        W22279   5.612   2.828   1.409  0.4750  0.0381 -0.2040
 5806W        W22280  11.656   1.793  13.207 -0.1567 -0.5654 -0.2610
 5807W        W22281   0.043   5.585   1.583  0.3218  0.2187 -0.0689
 5808W        W22282  11.077   6.835   4.731 -0.0769 -0.1344  0.1007
 5809W        W22283   6.042   7.621   1.561  0.0478 -0.0489 -0.2909
 5810W        W22284   9.245  11.700   1.686 -0.0106  0.0429 -0.0303
 5811W        W22285  11.777   8.613  14.925  0.1780  0.0081 -0.1517
 5812W        W22286   8.872   7.545  15.732 -0.1480 -0.2401  0.0317
 5813W        W22287  10.413   7.480  11.450  0.0339 -0.3044  0.4706
 5814W        W22288  12.259   6.411  14.819 -0.0206 -0.2073 -0.0940
 5815W        W22289   9.555  17.846  16.208 -0.1035 -0.2219 -0.0660
 5816W        W22290   1.465   2.117   1.459  0.2689  0.2912 -0.1021
 5817W        W22291  17.286   0.242   3.478 -0.1579 -0.1019  0.0562
 5818W        W22292  13.232  18.164  15.671  0.2731  0.0491 -0.0113
 5819W        W22293   6.516  17.822   1.177  0.2058 -0.1377 -0.0547
 5820W        W22294  16.569   3.462   1.040 -0.4081 -0.1376  0.2754
 5821W        W22295   7.671  12.749   3.655  0.2049  0.0601 -0.0090
 5822W        W22296  11.043  11.626   0.484  0.0066 -0.0387  0.2028
 5823W        W22297   4.929   2.701  14.981  0.1984 -0.3229  0.1743
 5824W        W22298   2.547   9.819   1.450  0.1553  0.3385  0.0221
 5825W        W22299   3.661  10.254   1.266 -0.0267  0.3286  0.1709
 5826W        W22300   7.878   8.660   3.087 -0.2245  0.3965  0.0208
 5827W        W22301  14.314  14.780   4.407  0.0112  0.0086 -0.1810
 5828W        W22302   3.228  15.071   4.975 -0.1264  0.0705 -0.0403
 5829W        W22303   2.235  17.856   2.222 -0.0115 -0.1263 -0.2932
 5830W        W22304  15.478   7.645   2.966  0.4167  0.0151  0.0737
 5831W        W22305   4.559   8.097  14.359  0.0064 -0.1145 -0.1004
 5832W        W22306  16.071  10.704  11.798  0.0660 -0.1744 -0.2626
 5833W        W22307   9.876   2.378  13.262 -0.0147  0.3747 -0.2137
 5834W        W22308  16.207  13.543  15.964  0.0678  0.2194  0.0056
 5835W        W22309   9.813  17.075   2.864 -0.1657  0.0472  0.0643
 5836W        W22310  11.843   7.187   2.163  0.1413 -0.0337 -0.1888
 5837W        W22311   0.224   5.440  14.282 -0.0984 -0.0158 -0.1472
 5838W        W22312   3.852   1.165   1.560 -0.2262  0.0482 -0.0553
 5839W        W22313   0.949  15.262  12.396  0.1439 -0.3725  0.1032
 5840W        W22314   0.146  11.811  12.637 -0.0766 -0.3395  0.3156
 5841W        W22315   1.159  15.590   5.555  0.2078  0.0956 -0.3458
 5842W        W22316   9.255   2.799  16.235  0.3516  0.0876  0.0898
 5843W        W22317   2.464   5.566   1.662 -0.3118  0.0893 -0.1267
 5844W        W22318   8.304   8.900  14.514  0.1595 -0.2424 -0.3892
 5845W        W22319   5.175  16.247  16.316  0.0595 -0.3841 -0.1455
 5846W        W22320  18.097  13.852   4.443 -0.2075 -0.1105  0.1201
 5847W        W22321  15.971  15.181  11.839  0.0831 -0.0297  0.1883
 5848W        W22322  16.107  17.232   2.466  0.0510  0.2755 -0.2406
 5849W        W22323   9.724  17.587   2.762  0.0351  0.1509 -0.3041
 5850W        W22324   2.800  13.431   1.548 -0.1454  0.0041  0.0949
 5851W        W22325  17.362  16.973  15.137  0.1353  0.0694  0.0558
 5852W        W22326  12.658   9.286  11.048 -0.1461 -0.0480  0.1035
 5853W        W22327   1.998   8.642  13.659  0.1673  0.1937 -0.0681
 5854W        W22328   6.492   9.013   3.121  0.1008 -0.0782  0.2524
 5855W        W22329  16.154  15.092   4.912  0.0371  0.2249 -0.0773
 5856W        W22330   3.081  10.558  15.217  0.1289 -0.0031  0.2225
 5857W        W22331   3.418   1.630  15.213  0.0167  0.0882  0.2398
 5858W        W22332   0.118  17.232   5.185  0.0809 -0.0748  0.1103
 5859W        W22333   7.122   0.065  14.789 -0.2962 -0.0189 -0.0716
 5860W        W22334   8.083  14.968  14.233 -0.0491  0.0609  0.0354
 5861W        W22335  17.783   0.893  14.112  0.0886  0.1284 -0.0540
 5862W        W22336  14.709   6.075  10.558  0.0758  0.2687  0.0928
 5863W        W22337  17.487   3.685   2.575 -0.6246 -0.3365 -0.0590
 5864W        W22338   8.714  13.724   0.117 -0.0260 -0.2937 -0.0368
 5865W        W22339   7.951  16.710  13.815 -0.0883 -0.2268 -0.1288
 5866W        W22340   1.503  12.219   5.696 -0.3284 -0.0365  0.1969
 5867W        W22341  12.958  11.677  15.229  0.1738 -0.2530  0.1319
 5868W        W22342  16.762   0.960   2.927 -0.0199  0.3739  0.2226
 5869W        W22343   0.653  14.094   4.443  0.1204  0.2397  0.2057
 5870W        W22344  13.363  11.803   6.154  0.0744 -0.0623  0.0853
 5871W        W22345  11.147   9.462  12.631 -0.3037  0.0286 -0.0505
 5872W        W22346   6.882  14.704   0.468  0.1288 -0.1524 -0.1593
 5873W        W22347   2.126  17.929   6.016  0.4748 -0.0187 -0.2649
 5874W        W22348   0.363  15.939  13.707  0.2303  0.0935  0.0806
 5875W        W22349  17.546   1.353   5.126 -0.0816  0.0473 -0.2864
 5876W        W22350  12.959  16.977  13.319 -0.0294  0.0917 -0.2783
 5877W        W22351   6.918  15.779   3.619 -0.2563 -0.2126 -0.0061
 5878W        W22352  10.584  11.117  15.016  0.0378  0.1271 -0.0151
 5879W        W22353  12.185   9.299   1.306  0.1658 -0.0247 -0.1063
 5880W        W22354   0.418   0.815   0.704  0.0515  0.0791 -0.1349
 5881W        W22355   8.746  11.249  11.829  0.3391  0.0855  0.2295
 5882W        W22356  13.249   3.732   1.158 -0.0075  0.0570  0.0782
 5883W        W22357   6.065  16.781  15.870  0.0210  0.1700  0.0214
 5884W        W22358  10.199  12.973  13.570  0.0949  0.0083  0.1722
 5885W        W22359  15.186  14.206  12.887 -0.3367  0.3071  0.0831
 5886W        W22360   9.941   4.251   1.293 -0.0395  0.1438  0.3055
 5887W        W22361  10.099   4.896  12.915 -0.0065 -0.0895 -0.1676
 5888W        W22362  11.582   6.626  14.446 -0.1120  0.0032 -0.3303
 5889W        W22363  10.420  10.172   2.599  0.1432  0.2509  0.1876
 5890W        W22364  12.597   8.211  16.121  0.2783 -0.0548 -0.1294
 5891W        W22365  11.818  12.094  15.967 -0.1608 -0.0524 -0.3234
 5892W        W22366  11.468  13.601   5.234 -0.1144  0.0097 -0.1266
 5893W        W22367  14.134  12.106   3.903  0.3890  0.0455 -0.0388
 5894W        W22368   4.521  15.938   4.057 -0.1387  0.0735 -0.3561
 5895W        W22369   4.292   2.248  16.066  0.1516 -0.1876 -0.0579
 5896W        W22370   9.307   1.285   2.873  0.1611 -0.0599  0.0071
 5897W        W22371  15.041   6.712   2.213 -0.0555 -0.2443  0.0270
 5898W        W22372   9.642   6.763   1.191  0.0351  0.1123  0.1332
 5899W        W22373   8.432   6.501  12.333  0.1398  0.0980 -0.0935
 5900W        W22374   4.077   2.360   2.220  0.0692 -0.1826 -0.1250
 5901W        W22375   8.906  10.189  16.320 -0.0474 -0.2202  0.1736
 5902W        W22376  15.634   1.000  13.089  0.1336 -0.2451 -0.0987
 5903W        W22377  17.245  11.373  16.328 -0.3416 -0.1636  0.1003
 5904W        W22378   8.442  10.425   0.166  0.0240 -0.0720 -0.2489
 5905W        W22379   7.339   8.499  14.099 -0.1480  0.0288  0.0002
 5906W        W22380  17.335   0.299   4.361 -0.0649  0.1342  0.0716
 5907W        W22381  16.483   0.693   6.348 -0.2378 -0.1878 -0.1629
 5908W        W22382  10.355   6.543   4.320  0.2526 -0.1018 -0.1349
 5909W        W22383  10.386   8.899  14.389  0.0160 -0.1166 -0.0966
 5910W        W22384   1.123  18.330  12.628  0.1264 -0.2026 -0.2593
 5911W        W22385   9.990   0.547   3.894 -0.1020 -0.1992  0.0180
 5912W        W22386  16.595   0.549  15.515 -0.1594  0.1714 -0.0745
 5913W        W22387   2.981  13.143   2.907  0.2168  0.0483 -0.2792
 5914W        W22388   2.578  13.821  14.161  0.4527 -0.0728  0.1257
 5915W        W22389   9.829  11.542   0.071 -0.1263 -0.0518 -0.1814
 5916W        W22390  13.325  10.291  11.819  0.1758 -0.1692  0.1023
 5917W        W22391   2.995  17.769   2.694 -0.1749  0.0008 -0.0207
 5918W        W22392   4.378   9.038  15.838  0.1283  0.2317 -0.0264
 5919W        W22393   2.216   8.711   0.611 -0.3741 -0.1104 -0.2194
 5920W        W22394   5.774   9.095   1.491  0.2144 -0.0868  0.2785
 5921W        W22395   2.616   0.327   1.587 -0.3342  0.0266 -0.2062
 5922W        W22396   9.291  10.632  15.423 -0.2277  0.2316 -0.2383
 5923W        W22397   9.931  14.239  16.318 -0.0113  0.1116 -0.3359
 5924W        W22398   5.168  17.404   5.018 -0.3326  0.0791  0.5959
 5925W        W22399   4.719  17.202  12.190  0.0309 -0.0977 -0.3522
 5926W        W22400   2.009   3.422   2.213 -0.0977 -0.0846  0.0491
 5927W        W22401  15.154  11.287  12.698  0.3876  0.0442 -0.4159
 5928W        W22402  14.372   7.997   2.251  0.0260 -0.1582  0.1253
 5929W        W22403  11.269   7.489  14.727  0.1598 -0.1486 -0.1413
 5930W        W22404  13.215  14.031  14.879  0.2205  0.0526 -0.0433
 5931W        W22405  10.223   7.142   2.740 -0.0515  0.0203  0.1881
 5932W        W22406   6.877   5.476  14.192 -0.0695  0.3961  0.0280
 5933W        W22407  13.337  12.484  12.586 -0.2166 -0.0241 -0.0327
 5934W        W22408   7.231   6.883   0.129  0.1297  0.3455 -0.6161
 5935W        W22409   7.474   4.807   2.295 -0.0271  0.0865  0.0659
 5936W        W22410  13.424   4.214   1.011  0.0416 -0.0929 -0.2245
 5937W        W22411   7.195  15.155   5.492  0.0037  0.0858  0.0589
 5938W        W22412  15.912  12.836   5.110  0.2386 -0.0979 -0.2898
 5939W        W22413  14.169  13.530  15.958 -0.0654  0.0829 -0.2336
 5940W        W22414   7.818   8.814  10.403  0.1003 -0.0459 -0.1333
 5941W        W22415   3.010   4.181   0.009 -0.0057 -0.0572  0.0747
 5942W        W22416  11.360   0.649  11.588  0.0668  0.1348  0.0472
 5943W        W22417  10.710  17.340  13.550 -0.3208 -0.2659 -0.0649
 5944W        W22418  17.055  16.376  12.159  0.2277 -0.0947  0.0682
 5945W        W22419   3.165  12.238  14.286  0.1353 -0.1593 -0.1130
 5946W        W22420   6.883  16.547   0.974  0.1796 -0.2439 -0.1338
 5947W        W22421  11.701   6.248  16.038 -0.2165 -0.0673  0.0852
 5948W        W22422   8.371   3.058   3.956 -0.1795 -0.2464 -0.2136
 5949W        W22423   9.657  14.172  11.682  0.0447 -0.0041  0.0410
 5950W        W22424  13.345  10.384  12.828 -0.2731 -0.2363 -0.2164
 5951W        W22425  11.135  14.993   2.024  0.1322 -0.2197  0.2545
 5952W        W22426   1.424  12.045   0.071 -0.1301 -0.0053 -0.0125
 5953W        W22427   7.614   0.208  13.690 -0.0440  0.0213 -0.1515
 5954W        W22428   2.168   6.426   4.499  0.2536  0.2820 -0.1849
 5955W        W22429  16.897   4.252   2.815  0.3606  0.0973  0.0473
 5956W        W22430  10.120   2.581   0.368  0.0034  0.2417 -0.1924
 5957W        W22431   9.126  16.095  14.009 -0.0857  0.0795 -0.2283
 5958W        W22432   9.864  12.592  12.527  0.1966  0.0523  0.1041
 5959W        W22433   8.543   4.450   5.520 -0.0664 -0.1987  0.2208
 5960W        W22434   5.922   9.096  13.520  0.0704 -0.0426  0.0553
 5961W        W22435   4.384   5.671   4.753 -0.1309 -0.2705  0.2992
 5962W        W22436   2.154   3.158  15.527 -0.0084 -0.3362  0.0720
 5963W        W22437   6.667   6.697  15.131  0.3953 -0.0814 -0.1695
 5964W        W22438  17.637   4.787   3.356  0.0678 -0.0563  0.0821
 5965W        W22439   0.088   9.026  13.239  0.0214  0.0147 -0.1740
 5966W        W22440   7.721   5.439  15.746  0.0163  0.1505 -0.2525
 5967W        W22441   2.305   6.207  13.316  0.2383 -0.0032  0.1262
 5968W        W22442   9.503   3.428  12.011  0.2635  0.2288 -0.0781
 5969W        W22443  15.047   0.652   1.688  0.0070 -0.0030  0.0034
 5970W        W22444   7.780  12.823   2.005  0.3700  0.0612  0.1534
 5971W        W22445   2.811  16.486   5.202  0.1594 -0.0413 -0.1355
 5972W        W22446   0.571  13.109  13.246  0.4338  0.0148 -0.3180
 5973W        W22447   8.340   1.285  11.582  0.2520  0.0029 -0.1680
 5974W        W22448  13.384   8.899  10.908 -0.2181  0.2353  0.5934
 5975W        W22449  14.158   7.135  11.735 -0.1660 -0.0341  0.0505
 5976W        W22450   0.080  15.317   5.789  0.0420 -0.2843  0.1221
 5977W        W22451   2.102  12.503  15.167 -0.0597  0.3371  0.1033
 5978W        W22452   5.690  15.002   4.276  0.0766  0.0413 -0.0271
 5979W        W22453   0.006  14.368   1.829 -0.1706  0.2762 -0.1556
 5980W        W22454   6.670  10.966   4.023  0.1483 -0.1886 -0.0092
 5981W        W22455  16.617  16.291   1.642 -0.0444 -0.0162  0.3736
 5982W        W22456   5.723  10.973   2.683  0.1413 -0.3343 -0.1384
 5983W        W22457  15.730  17.172  13.725 -0.3175  0.1225 -0.0549
 5984W        W22458   9.822  11.585  13.366  0.2634 -0.0573  0.0922
 5985W        W22459  11.883  11.500  14.399  0.1595 -0.3051 -0.0318
 5986W        W22460  17.803  13.949   5.192 -0.0991  0.2450 -0.0688
 5987W        W22461   4.775   6.215  12.724 -0.2764  0.2250  0.2561
 5988W        W22462   6.163   9.366   0.034 -0.0234  0.3349 -0.1373
 5989W        W22463   8.403   2.095  11.893  0.2713  0.0454 -0.1414
 5990W        W22464  12.711  15.367   5.755 -0.2367  0.3303  0.4188
 5991W        W22465   7.587  12.441   4.145  0.0476  0.0043  0.2439
 5992W        W22466  17.207   9.570  11.966  0.3908  0.0131  0.1020
 5993W        W22467  18.262  12.616   5.257  0.1525  0.0958  0.0482
 5994W        W22468   9.534   4.456   1.181  0.2261 -0.1897 -0.2315
 5995W        W22469   1.204   3.935   3.118  0.2587 -0.0107  0.0193
 5996W        W22470  12.277   7.940  12.684  0.2045  0.1114 -0.2029
 5997W        W22471   6.362   1.436   1.318  0.1370 -0.2513 -0.0554
 5998W        W22472   2.633  12.900   1.928 -0.1403 -0.4543 -0.2074
 5999W        W22473  18.245  14.668  14.484 -0.0358  0.5577  0.1312
 6000W        W22474  11.656  17.660  15.635 -0.2067 -0.0891 -0.2793
 6001W        W22475   3.624   1.766   5.894  0.0095 -0.0809  0.1296
 6002W        W22476  15.592   5.712  15.920  0.0462 -0.1534  0.2687
 6003W        W22477   0.062   3.890   5.304 -0.0590 -0.0033  0.1987
 6004W        W22478   3.614   7.648  15.855 -0.4691 -0.0406  0.0811
 6005W        W22479   7.942   9.923  13.658  0.1535  0.0581 -0.0790
 6006W        W22480  13.470   6.521   3.051  0.1607  0.0875 -0.2440
 6007W        W22481   4.440  17.281  15.758 -0.3799 -0.0154  0.1284
 6008W        W22482  15.881   1.971  14.709 -0.1760  0.0586 -0.2248
 6009W        W22483   2.212   1.208   1.473 -0.1074 -0.3658 -0.0826
 6010W        W22484  16.227  14.873  15.294  0.1685 -0.1431 -0.3839
 6011W        W22485   0.851   0.091   0.101 -0.0991  0.0691  0.1547
 6012W        W22486  17.707  18.368   1.136 -0.2975 -0.4351 -0.4892
 6013W        W22487  15.729  18.304   4.161 -0.0060  0.3793  0.2515
 6014W        W22488   8.754   6.209  11.526  0.0059 -0.0914  0.0667
 6015W        W22489   0.588   7.132  14.301  0.1957  0.3035 -0.0727
 6016W        W22490  11.662   8.812  10.192 -0.1204  0.0493  0.0404
 6017W        W22491   0.626  10.507   1.357  0.1512 -0.1170 -0.0033
 6018W        W22492   0.274  12.468   4.934 -0.1146  0.2623 -0.0885
 6019W        W22493   3.249   5.116   3.136  0.0259  0.0732 -0.0616
 6020W        W22494  16.641   6.071   1.155  0.2309  0.1257 -0.0379
 6021W        W22495  10.670   1.035  13.025  0.4400 -0.0259  0.0808
 6022W        W22496   9.381   7.274  15.569  0.3168  0.0250 -0.1472
 6023W        W22497  10.032  12.890  15.188 -0.0655 -0.0136 -0.0282
 6024W        W22498   5.885   2.342   0.441  0.1522 -0.0118  0.0755
 6025W        W22499  18.272   0.618   3.877  0.1233 -0.0175  0.1334
 6026W        W22500   0.131   1.601   3.588  0.1046  0.2725  0.1268
 6027W        W22501  12.631  12.563  11.892 -0.2357 -0.0538 -0.3093
 6028W        W22502   7.631   7.885   3.808 -0.0921  0.0758 -0.2615
 6029W        W22503   1.897   3.743   0.681 -0.0909 -0.0271 -0.0710
 6030W        W22504  16.307  13.149  11.036  0.1463 -0.0149 -0.2256
 6031W        W22505  16.008   4.153  11.168 -0.0378  0.1087  0.0225
 6032W        W22506  12.070  15.465   6.701  0.1021  0.1488  0.2847
 6033W        W22507   2.754  16.855  13.065 -0.0158 -0.0591 -0.0233
 6034W        W22508   3.923   4.693   0.206 -0.0602 -0.1911  0.2642
 6035W        W22509   9.746  13.884   3.986 -0.0086 -0.1058 -0.0081
 6036W        W22510   7.311  13.167  12.202  0.1110 -0.0139  0.0420
 6037W        W22511  17.848  11.189  11.176 -0.1335 -0.0681  0.2862
 6038W        W22512   8.116   8.762  16.323  0.3550 -0.0391  0.2146
 6039W        W22513  14.405  12.479   5.210  0.0895  0.0837  0.1832
 6040W        W22514   2.184   0.514   2.387  0.0839 -0.1012 -0.1096
 6041W        W22515  13.172   6.702   0.303 -0.1749  0.0278  0.0238
 6042W        W22516   9.936   1.880   0.922  0.0812  0.0169  0.0702
 6043W        W22517  12.415  15.909   2.072  0.0912 -0.0369  0.0638
 6044W        W22518   4.823  16.557   3.684 -0.3084 -0.3031 -0.0419
 6045W        W22519   2.260   8.330   0.892  0.1597 -0.0308 -0.5034
 6046W        W22520   5.570  11.275  15.884 -0.0130 -0.2656  0.0913
 6047W        W22521  10.278  11.347   1.382 -0.1906 -0.1512  0.0605
 6048W        W22522   6.040  16.047  15.542 -0.1538 -0.1341  0.0266
 6049W        W22523   1.628   7.744  16.047 -0.0096 -0.1269  0.0531
 6050W        W22524  13.217  10.394  16.015 -0.0246  0.0065  0.2646
 6051W        W22525   2.461  12.216  14.780 -0.0746  0.0251 -0.1395
 6052W        W22526   6.506  15.476  15.864  0.2382 -0.2295 -0.1403
 6053W        W22527  10.799  11.907   2.706  0.0415 -0.0767  0.0349
 6054W        W22528   1.010  10.645   4.681  0.2566  0.1852  0.1499
 6055W        W22529  10.203   9.828  15.831  0.0184  0.2662  0.3317
 6056W        W22530  15.507  10.934  13.975 -0.1370  0.4092  0.0567
 6057W        W22531  12.888   6.932   1.790 -0.0504 -0.2797  0.1427
 6058W        W22532  11.819  10.936  13.566  0.3424 -0.0328  0.0387
 6059W        W22533  14.937  17.930  14.200  0.1574 -0.3036  0.1363
 6060W        W22534  13.652  16.391   4.496 -0.2697  0.1646  0.1379
 6061W        W22535  12.006   0.606   3.357  0.2951 -0.0461 -0.3954
 6062W        W22536   9.829  11.022  13.814 -0.0458 -0.1646  0.1466
 6063W        W22537  11.485   6.408  15.497  0.1355  0.0741  0.2444
 6064W        W22538   5.276   7.828   6.215 -0.0894 -0.0616  0.2635
 6065W        W22539   7.316   3.245  12.535  0.2924 -0.1822 -0.1610
 6066W        W22540  10.014  12.974  14.639 -0.0533  0.0415 -0.3013
 6067W        W22541   7.273   8.430   0.127 -0.0247 -0.1586 -0.1295
 6068W        W22542  11.922   6.261  15.598  0.0161  0.0121  0.0770
 6069W        W22543  15.054  17.443  14.167 -0.2928 -0.0836 -0.1157
 6070W        W22544   6.159   9.780   4.810 -0.2980 -0.1539 -0.4581
 6071W        W22545  12.203   2.602  14.845 -0.0774 -0.0963  0.3901
 6072W        W22546   1.734   6.952   2.321  0.1610 -0.2110  0.1198
 6073W        W22547  13.105   5.802   2.639  0.0053  0.2429 -0.0060
 6074W        W22548   5.241  14.545  14.821 -0.1622 -0.0828 -0.0290
 6075W        W22549   3.673  14.872  11.797  0.3119 -0.0772 -0.2217
 6076W        W22550  13.801  14.336  15.606  0.1916 -0.3222 -0.0498
 6077W        W22551   7.726  16.114   5.065  0.0246 -0.1519 -0.1010
 6078W        W22552   8.359  10.873  11.883  0.0186  0.0526  0.2534
 6079W        W22553   0.805  17.511  15.657  0.0478  0.2098 -0.2723
 6080W        W22554   7.537   3.169   4.469  0.0366  0.1705  0.1509
 6081W        W22555   5.276   7.292   1.848 -0.3169  0.0078 -0.0063
 6082W        W22556  16.670   7.663  16.195  0.3540  0.1850 -0.2492
 6083W        W22557   3.880  12.496   4.336 -0.0801 -0.0617  0.2231
 6084W        W22558   1.665   0.623  12.270  0.0663  0.1855 -0.1100
 6085W        W22559   0.893  16.278  16.030  0.0617  0.0383  0.2397
 6086W        W22560  15.396   9.878  10.809  0.0093 -0.1091 -0.0343
 6087W        W22561   8.060  11.186   1.357 -0.0910  0.0746  0.3349
 6088W        W22562   3.362  17.911   5.410 -0.0315 -0.0996 -0.2890
 6089W        W22563  10.894   2.074   5.592 -0.4178 -0.2736  0.2498
 6090W        W22564  10.389  13.039   4.827 -0.2678  0.1811  0.0531
 6091W        W22565  10.650  13.984   5.071  0.0586  0.0589  0.1421
 6092W        W22566  16.585  14.013   2.887 -0.0304 -0.2747 -0.0409
 6093W        W22567   8.540  14.149  13.657 -0.1283 -0.1570  0.3155
 6094W        W22568  15.116   8.030   3.038  0.2646  0.3892  0.3852
 6095W        W22569  12.991  11.863   0.250 -0.2118 -0.2596  0.0212
 6096W        W22570  15.884  16.182   0.261  0.2574 -0.2671 -0.1025
 6097W        W22571   6.512   3.253   5.515  0.0018 -0.1519  0.0802
 6098W        W22572   4.389   9.866   2.374  0.1328  0.1503 -0.0965
 6099W        W22573   6.063  13.210  12.545  0.2687 -0.0294  0.1359
 6100W        W22574  16.756   4.134   5.287 -0.0373  0.1025  0.0053
 6101W        W22575   5.271   2.830  13.669  0.1028 -0.0527 -0.1652
 6102W        W22576   8.177  18.278  11.512 -0.3180 -0.0598  0.3741
 6103W        W22577  13.672  18.006  15.254  0.1209  0.0516  0.0021
 6104W        W22578   4.898   2.847   5.650  0.2476 -0.0690 -0.1454
 6105W        W22579   7.300   8.938  10.289  0.0038 -0.0426  0.2997
 6106W        W22580   0.129  16.291   0.853  0.1899 -0.0332  0.0341
 6107W        W22581  13.265   3.759   4.537  0.3405 -0.0162 -0.1831
 6108W        W22582  10.424  10.520   6.143  0.0874 -0.0947  0.1983
 6109W        W22583  18.297   0.390  12.841  0.1100 -0.0032  0.0766
 6110W        W22584  13.908   5.411   0.969 -0.0829 -0.2789  0.0279
 6111W        W22585  12.143   9.304  13.239  0.0960 -0.1521  0.1601
 6112W        W22586  12.608   6.878   2.284  0.0041  0.1765  0.2976
 6113W        W22587   4.134   7.058   5.137  0.1579  0.0887 -0.0935
 6114W        W22588   1.311   0.986  15.067  0.4459 -0.0610 -0.2418
 6115W        W22589   7.414   3.977   0.774  0.0554 -0.0517 -0.1620
 6116W        W22590  17.483  10.422   4.991 -0.2502 -0.2213 -0.1033
 6117W        W22591   5.508   2.276   4.631  0.1399 -0.0352 -0.0681
 6118W        W22592   7.431  18.152  14.545 -0.0439 -0.2500 -0.0627
 6119W        W22593   6.809  16.999   2.836 -0.1566 -0.4364  0.1968
 6120W        W22594   9.814  15.036  15.788 -0.1225  0.0663  0.0107
 6121W        W22595   3.580   6.513   1.260 -0.1449  0.2859 -0.0879
 6122W        W22596  17.928   4.291   3.483 -0.0215 -0.0237 -0.1702
 6123W        W22597   0.724   8.461   1.212 -0.1444 -0.0820  0.1861
 6124W        W22598  10.613  13.324  16.287  0.1685 -0.0728 -0.0143
 6125W        W22599  12.320   4.689   2.029  0.2276  0.3315  0.4059
 6126W        W22600   1.852   8.061   4.221  0.1726 -0.2089  0.0139
 6127W        W22601   1.974   9.172  15.157  0.0531  0.1713 -0.2594
 6128W        W22602  17.500   0.660   3.345 -0.0896 -0.1721  0.1443
 6129W        W22603   7.092  10.097  14.313  0.2146 -0.3053 -0.2132
 6130W        W22604   7.017  14.162  13.309 -0.2021 -0.0836  0.2311
 6131W        W22605  14.572  16.408  14.714  0.0208 -0.1483  0.1139
 6132W        W22606  16.610   0.753   4.535 -0.2967 -0.0068 -0.3201
 6133W        W22607   5.940   6.279   3.183 -0.2010  0.2796 -0.4827
 6134W        W22608  11.604   4.723  13.038  0.1487 -0.0505  0.5149
 6135W        W22609   1.910  16.908   4.894 -0.2335  0.1083 -0.2511
 6136W        W22610  16.803   0.246   2.836  0.0313 -0.3011  0.0282
 6137W        W22611   7.572  15.587  15.868  0.4796  0.0102  0.0861
 6138W        W22612   6.348   0.247   0.847  0.0144 -0.0589 -0.0450
 6139W        W22613   7.726   0.602  11.615 -0.1950 -0.0322  0.3689
 6140W        W22614  15.401  13.541   3.486  0.0191 -0.1005  0.0990
 6141W        W22615  15.197   8.995  14.943 -0.2544  0.1866 -0.2240
 6142W        W22616   9.433   1.305   1.537  0.1015 -0.1830 -0.1992
 6143W        W22617  12.939  13.901  11.906 -0.1268 -0.2366 -0.0401
 6144W        W22618   1.939   9.047  14.590 -0.1425 -0.0281 -0.1777
 6145W        W22619  12.754   9.348  15.034 -0.1785  0.0089 -0.1403
 6146W        W22620  11.714   0.904  11.311  0.1036 -0.0216 -0.1798
 6147W        W22621  15.881   8.843   2.292  0.2271 -0.1823  0.3774
 6148W        W22622   1.710   2.492  12.812  0.0705 -0.1673 -0.2028
 6149W        W22623  17.805  11.401   3.224 -0.2479 -0.0707 -0.0544
 6150W        W22624   1.180   3.884   2.070 -0.1993  0.1947  0.1029
 6151W        W22625  10.626  17.580   0.279 -0.0742  0.1832  0.2121
 6152W        W22626   3.490  11.629   4.725  0.1163 -0.0825  0.1514
 6153W        W22627   7.075   8.980  15.051  0.3312 -0.0253 -0.2083
 6154W        W22628  16.989   0.848  11.502  0.2059 -0.0247  0.0089
 6155W        W22629  11.474  16.522  15.871 -0.0462 -0.0241 -0.0535
 6156W        W22630  14.205   3.316   2.266  0.0324  0.2258 -0.0516
 6157W        W22631  13.939  10.273   3.549 -0.2070  0.0108  0.1264
 6158W        W22632  15.127   2.570  15.641  0.3547 -0.2367  0.0418
 6159W        W22633  18.174   7.454   5.373 -0.1139  0.0000  0.1230
 6160W        W22634   2.218   9.086  13.579  0.1922 -0.0120 -0.2217
 6161W        W22635   3.016   6.127   2.377  0.0736 -0.0431 -0.0772
 6162W        W22636  17.186  15.204   3.413 -0.0180  0.1498 -0.0468
 6163W        W22637   4.059   3.275  12.226  0.0910 -0.0433  0.1490
 6164W        W22638  16.741  16.064   3.383  0.0085 -0.0585  0.0211
 6165W        W22639   4.762   8.480  15.289 -0.1339  0.2459 -0.0022
 6166W        W22640   6.924   2.081   3.886 -0.0018 -0.0693 -0.0432
 6167W        W22641   8.754  14.103  13.199  0.1423 -0.3577  0.1788
 6168W        W22642   4.179  15.374   2.681 -0.5568  0.0358 -0.1022
 6169W        W22643   7.904  15.468  14.264 -0.0018  0.1997 -0.1805
 6170W        W22644  16.433  16.221  14.702  0.3872  0.2057  0.3008
 6171W        W22645  17.646   2.513   0.184  0.0010  0.2107  0.3321
 6172W        W22646  16.900  15.973   2.943 -0.2126 -0.1611 -0.0853
 6173W        W22647  14.363  18.207   4.863 -0.0593  0.0282  0.0406
 6174W        W22648  11.571   4.044   1.969  0.1599  0.1778  0.0473
 6175W        W22649   7.886  12.815  11.217 -0.1173 -0.3353 -0.1456
 6176W        W22650   0.973  13.716   5.297  0.0391  0.0560 -0.0311
 6177W        W22651  11.977  17.532   0.317 -0.3206  0.1299 -0.3303
 6178W        W22652   2.039  15.096  13.486 -0.1629 -0.1687 -0.2131
 6179W        W22653   1.458   8.188  14.239 -0.0520 -0.2712  0.4060
 6180W        W22654  12.980   5.905  13.328  0.2265  0.0815  0.0357
 6181W        W22655  12.482  10.681   1.825 -0.1390  0.1507  0.0654
 6182W        W22656  14.242  17.904  15.148 -0.0978 -0.2100 -0.3399
 6183W        W22657   9.364  18.384  14.077  0.2066  0.3457 -0.2107
 6184W        W22658  13.106   9.500  11.929 -0.1121 -0.0437  0.1074
 6185W        W22659   7.320   6.579   0.525 -0.1667  0.1941 -0.1303
 6186W        W22660   0.186  11.372   4.529  0.3059 -0.1911  0.0778
 6187W        W22661  14.321  10.755   3.855 -0.3993 -0.1695  0.4915
 6188W        W22662  14.458   4.844   4.673  0.0988 -0.0077 -0.1280
 6189W        W22663   0.010   8.400   2.890 -0.0793 -0.3882 -0.0848
 6190W        W22664   0.164   5.703  13.095  0.0847 -0.1934 -0.0487
 6191W        W22665   7.811  10.404  12.930 -0.0160 -0.3124 -0.0038
 6192W        W22666   2.616   8.769   3.009  0.3052 -0.0728  0.3090
 6193W        W22667  12.905   1.193  10.559  0.0036 -0.0529 -0.3567
 6194W        W22668  12.281  16.088  11.575  0.1006 -0.0229  0.0939
 6195W        W22669  10.862  15.926  13.250  0.2158 -0.0533 -0.1757
 6196W        W22670   9.099   0.100   0.869 -0.0362 -0.3221  0.0319
 6197W        W22671   9.851   4.097  11.661 -0.0377 -0.2532 -0.0668
 6198W        W22672  16.069  14.028   4.653  0.1712  0.0792 -0.0356
 6199W        W22673  10.280   8.465  14.596  0.1934 -0.3090 -0.0206
 6200W        W22674   7.592   1.143  13.045 -0.0249 -0.0952 -0.1392
 6201W        W22675  10.761  11.434   5.199 -0.0686  0.3931 -0.3754
 6202W        W22676  15.544  16.119  13.135 -0.1486 -0.3704  0.1394
 6203W        W22677   4.574   8.849   3.008  0.0425 -0.1098  0.1688
 6204W        W22678   5.071  12.949  15.878  0.0542 -0.0877  0.3128
 6205W        W22679   2.508   1.467   4.419  0.0575 -0.3584  0.0563
 6206W        W22680   5.343  13.414   3.888  0.2144  0.1626 -0.1103
 6207W        W22681  16.017   1.525   1.659  0.0726  0.2545  0.0562
 6208W        W22682  14.127  10.830   0.478  0.2065 -0.1556 -0.2425
 6209W        W22683  18.029   5.881   2.358  0.0345 -0.3271 -0.2667
 6210W        W22684   6.871   4.032   5.175  0.1429  0.1955 -0.2571
 6211W        W22685   8.255  10.934  12.655  0.1083  0.1750 -0.2173
 6212W        W22686  17.537   2.866   0.591 -0.0983  0.2168 -0.4065
 6213W        W22687   0.688  11.834  11.689 -0.0126  0.3318 -0.1721
 6214W        W22688   0.410   0.532  15.243  0.1091 -0.0415  0.1702
 6215W        W22689  17.349   4.130  15.254 -0.0390  0.1043 -0.1173
 6216W        W22690  12.363   0.846  11.983  0.2931  0.2744 -0.0229
 6217W        W22691   9.119   9.685   3.707  0.3433 -0.2628  0.1854
 6218W        W22692  10.002   6.443   5.574 -0.2211  0.2991  0.2513
 6219W        W22693   5.323   9.951   5.109 -0.0645 -0.1508 -0.1652
 6220W        W22694   0.882  11.751  13.136  0.2945 -0.0275 -0.1094
 6221W        W22695  11.767   9.491  12.844  0.0932  0.4521  0.1684
 6222W        W22696  11.984   3.008  10.851 -0.0557  0.0397 -0.0481
 6223W        W22697   2.300   9.189   2.170  0.0109  0.4685 -0.1914
 6224W        W22698  15.773   6.216  13.797 -0.2889 -0.2478 -0.2012
 6225W        W22699  15.304  17.873  14.542  0.0434  0.0985  0.1930
 6226W        W22700  10.697  12.139  11.354 -0.5054 -0.1572 -0.2737
 6227W        W22701  12.250   5.523  16.305  0.1470 -0.0499  0.1955
 6228W        W22702  12.869   8.794  11.134  0.2677  0.0282 -0.1160
 6229W        W22703   7.311   4.619  15.522  0.2415 -0.2779 -0.1101
 6230W        W22704   1.249  11.595   4.819  0.0408  0.0889  0.0619
 6231W        W22705   8.875   6.847   4.286 -0.0172 -0.0594  0.1747
 6232W        W22706   1.668  16.838  14.318  0.1786 -0.0958 -0.4534
 6233W        W22707   8.671  14.455   4.237 -0.0923 -0.3024  0.1747
 6234W        W22708   7.811  17.596  13.732 -0.0022 -0.0740  0.1834
 6235W        W22709  17.437   4.952  12.796 -0.5230 -0.1317 -0.2104
 6236W        W22710  18.011  10.585  12.486 -0.0086 -0.2890  0.1220
 6237W        W22711   2.885  10.633  16.113  0.1054 -0.1072  0.0918
 6238W        W22712   5.243   2.974   4.355  0.0822 -0.4307  0.1794
 6239W        W22713   4.871   4.519  13.376  0.1824  0.2536  0.1314
 6240W        W22714  17.649  16.256   1.312 -0.3236  0.0401  0.2574
 6241W        W22715  11.298   5.863  13.672 -0.1473  0.1240 -0.2653
 6242W        W22716   3.040  10.303  12.595  0.0835 -0.1182  0.1730
 6243W        W22717  13.555   9.095   0.199 -0.0239 -0.1664  0.1284
 6244W        W22718  12.380   5.409   4.071  0.0117  0.0137 -0.0948
 6245W        W22719   9.119  18.029  15.736  0.1725 -0.1199 -0.1705
 6246W        W22720   5.914   9.336  14.147 -0.4328  0.1370 -0.1943
 6247W        W22721   3.248  16.564   2.183  0.0510 -0.1291 -0.0190
 6248W        W22722  14.051  11.517  15.582 -0.2774 -0.1282 -0.1474
 6249W        W22723  13.028   8.996   0.200  0.1613 -0.1230  0.3177
 6250W        W22724  12.172   1.748   0.922  0.0872  0.0380 -0.1529
 6251W        W22725  16.805   2.351  13.821 -0.0224  0.2267  0.0820
 6252W        W22726   4.205   8.013  13.280 -0.2600  0.0721 -0.1739
 6253W        W22727   9.068   4.412  12.320 -0.1218 -0.1081  0.0668
 6254W        W22728   4.913   0.925  13.206  0.2260  0.0820 -0.0649
 6255W        W22729   6.809  14.419   2.439 -0.0428 -0.1548  0.3540
 6256W        W22730  10.452  13.202  13.926  0.1946  0.2911  0.0360
 6257W        W22731   7.031   9.519   0.670  0.0510 -0.2672  0.1207
 6258W        W22732   5.633   1.000   3.493  0.4284 -0.3145 -0.2686
 6259W        W22733   8.132  17.312   4.762  0.1684 -0.3038  0.0706
 6260W        W22734   2.060  16.619  11.699  0.2044 -0.0232 -0.0974
 6261W        W22735  15.100   4.292  11.616 -0.3420 -0.0485 -0.1646
 6262W        W22736   9.807   1.758   4.623  0.3953 -0.0060 -0.1245
 6263W        W22737   0.273   2.918   2.660 -0.0172  0.0850  0.5804
 6264W        W22738  11.462  15.674   6.397 -0.0059 -0.1752 -0.2950
 6265W        W22739  18.311  16.387  11.234  0.1258  0.0424  0.0219
 6266W        W22740   4.213  13.266  13.313 -0.0417 -0.0208 -0.0567
 6267W        W22741  15.851  10.437   2.265  0.3657  0.1411  0.1106
 6268W        W22742  10.286   6.672   2.537  0.0650 -0.0262 -0.0432
 6269W        W22743   6.938  15.428   6.469  0.1038  0.4419  0.0426
 6270W        W22744   3.641  10.314   0.217  0.1871  0.0215  0.1782
 6271W        W22745  17.345  11.897   1.124  0.1627 -0.5791 -0.0133
 6272W        W22746  13.360   9.721   2.547 -0.2128  0.0559  0.2902
 6273W        W22747   8.188  10.466   2.466 -0.1881  0.1608  0.0292
 6274W        W22748  11.792  13.970   0.105 -0.1190  0.2415 -0.0790
 6275W        W22749   8.646  16.904  13.121 -0.1306  0.3737 -0.0117
 6276W        W22750  14.950   7.245  11.863  0.0155 -0.3591 -0.0615
 6277W        W22751  11.182   9.165   0.312 -0.0268 -0.0445 -0.1529
 6278W        W22752   8.666   6.016   4.906  0.1402  0.0341  0.1952
 6279W        W22753  10.834   4.893   1.234 -0.0302  0.1437  0.2280
 6280W        W22754   9.630  17.415  12.230 -0.3172 -0.1203 -0.1109
 6281W        W22755  12.665   3.144  13.601 -0.1719 -0.0588  0.0141
 6282W        W22756   9.298  15.053   0.233  0.0543  0.0139  0.2631
 6283W        W22757   7.581   0.781  12.615 -0.1741  0.0936 -0.0836
 6284W        W22758  13.248  12.919   3.618  0.3065  0.2223 -0.1269
 6285W        W22759  14.250   9.175   3.469 -0.0078  0.2135 -0.1109
 6286W        W22760   6.902   7.044  14.455  0.3976  0.2568 -0.0185
 6287W        W22761   9.937   0.282   6.342  0.2388  0.2131 -0.0585
 6288W        W22762  14.717  10.223  16.003 -0.1629  0.0846  0.0565
 6289W        W22763  15.164   8.474  16.125 -0.1181  0.1179  0.1467
 6290W        W22764   3.980   3.632   3.460  0.0508  0.4225 -0.3387
 6291W        W22765  12.162  12.474   1.192  0.2334 -0.0529 -0.3300
 6292W        W22766   7.612   2.746   0.681  0.1748  0.1456  0.0647
 6293W        W22767  10.306  16.022  16.081  0.1127  0.2927 -0.0470
 6294W        W22768   4.827   5.080  13.497  0.0720 -0.1516 -0.0965
 6295W        W22769   4.719  13.990   5.222  0.1828  0.0702 -0.1343
 6296W        W22770   3.508   5.879  12.065  0.0202 -0.2177  0.2419
 6297W        W22771  11.381   0.820  14.706  0.0901  0.4529 -0.1958
 6298W        W22772  16.509  11.782  16.249 -0.2045 -0.1568  0.0625
 6299W        W22773  17.061  16.259   4.119  0.0725 -0.3144 -0.1975
 6300W        W22774  10.119   2.917   4.092  0.0558  0.1282 -0.0705
 6301W        W22775  15.468   2.789  10.983 -0.2362 -0.1333 -0.1284
 6302W        W22776   8.442   8.070  12.186 -0.6354  0.2006 -0.0666
 6303W        W22777   5.663   1.664   5.822  0.0834  0.2136 -0.1115
 6304W        W22778   3.990  18.130  14.613  0.3775 -0.0357  0.0400
 6305W        W22779  10.136  13.866   3.587 -0.1194 -0.0603  0.5086
 6306W        W22780   8.906   4.020  15.030  0.2100 -0.0836  0.4942
 6307W        W22781   9.483   9.198  14.704  0.0233 -0.6364 -0.0381
 6308W        W22782   6.764   8.294  16.336 -0.1535  0.1562 -0.0899
 6309W        W22783   2.075   4.203  10.680  0.0501 -0.1476 -0.1386
 6310W        W22784  15.713   1.311   2.070  0.1943 -0.1027  0.2189
 6311W        W22785  14.613  14.714  12.306 -0.0712  0.1133  0.1829
 6312W        W22786   7.256   7.466   4.648  0.0213 -0.2951  0.0221
 6313W        W22787  10.638  17.023   1.594  0.0374  0.1268 -0.0256
 6314W        W22788  14.665   3.482  14.236 -0.2060 -0.0247 -0.1324
 6315W        W22789  15.455   3.336  15.637  0.2095 -0.2370 -0.2538
 6316W        W22790  10.920  14.553   0.187 -0.0081  0.2328  0.0671
 6317W        W22791   6.442   4.693   1.438 -0.1428  0.3751 -0.2062
 6318W        W22792  11.594   4.110   1.485 -0.0060  0.1488  0.1403
 6319W        W22793   5.562   1.853   5.061  0.1752  0.0336 -0.1009
 6320W        W22794  14.679  14.160   4.601  0.1211 -0.2147 -0.3058
 6321W        W22795   9.760   5.357  12.039  0.0386  0.1604  0.2229
 6322W        W22796   5.367  11.092  12.075 -0.2315  0.1544 -0.4767
 6323W        W22797   1.218   3.184   2.710  0.0451  0.2438  0.0263
 6324W        W22798  13.973   8.764  12.785 -0.2420 -0.1869  0.2851
 6325W        W22799  17.212   6.553   0.648 -0.1980 -0.1551 -0.3014
 6326W        W22800   3.314   0.557   2.546  0.1304  0.6767 -0.0537
 6327W        W22801  16.382   8.854  14.909  0.0073 -0.1212 -0.1964
 6328W        W22802  15.784   9.267  15.643  0.0117  0.1381 -0.0970
 6329W        W22803   3.418   4.991   0.946  0.1056  0.0525 -0.1503
 6330W        W22804   8.239  12.691   4.761  0.3628 -0.1662  0.0322
 6331W        W22805   1.809   5.589   0.524  0.0659  0.5680 -0.1122
 6332W        W22806  16.965   0.682  12.190  0.2348  0.0065  0.1406
 6333W        W22807   9.171   3.073  13.730  0.0356  0.1472  0.1181
 6334W        W22808  14.064   7.730   0.246 -0.0360 -0.2924  0.0767
 6335W        W22809  10.993   9.674   1.724 -0.2272  0.0960 -0.0125
 6336W        W22810   5.614   0.684  12.052  0.0588 -0.2308 -0.1200
 6337W        W22811   5.401  11.133   4.677  0.4237 -0.0038 -0.1045
 6338W        W22812   3.379   0.403   1.660  0.0295  0.0577 -0.1214
 6339W        W22813  10.363  14.550   1.045 -0.2448 -0.2162  0.0794
 6340W        W22814  12.668  16.413   1.333  0.0452  0.2607  0.0027
 6341W        W22815   9.138  11.526  11.005  0.1725 -0.1617 -0.3726
 6342W        W22816   6.772   9.572   3.847  0.0061 -0.1651 -0.0296
 6343W        W22817   1.845  10.750   1.284  0.0030 -0.0812  0.1844
 6344W        W22818   2.434  15.582  13.786  0.0122 -0.2780  0.4885
 6345W        W22819  10.257   6.731  12.954 -0.1066  0.2227  0.3642
 6346W        W22820   5.644   7.115  13.078  0.3044 -0.0019 -0.0312
 6347W        W22821  13.728   9.261   0.642  0.0014  0.0694  0.2230
 6348W        W22822   8.758  11.685  12.188  0.2145  0.1401  0.1361
 6349W        W22823  10.384  14.284  13.721 -0.1664 -0.3084  0.2699
 6350W        W22824   5.391  15.894   3.225 -0.0554  0.3841 -0.1179
 6351W        W22825  18.108  11.140   3.613 -0.2532 -0.3702 -0.0420
 6352W        W22826  17.454  14.690   1.369  0.4150 -0.0232 -0.0645
 6353W        W22827   7.415  16.666  13.541  0.2667 -0.2091  0.0674
 6354W        W22828   0.136   7.177  13.413 -0.2410 -0.2077  0.0572
 6355W        W22829  14.667   9.723   0.727  0.0331  0.0133 -0.2093
 6356W        W22830   2.338   0.737   1.896  0.2285 -0.0629 -0.2515
 6357W        W22831  12.925   4.001   1.783  0.2579  0.1311  0.0513
 6358W        W22832  18.214  12.950   4.314 -0.1456 -0.3148 -0.3422
 6359W        W22833  10.281   0.864  15.370 -0.1103 -0.0885  0.0365
 6360W        W22834  11.828   0.523   2.500 -0.0394 -0.1985 -0.1438
 6361W        W22835   1.109   1.682  13.463  0.0118 -0.2652  0.1384
 6362W        W22836  18.182   2.553  14.199  0.2964  0.1165  0.2592
 6363W        W22837  12.224   0.250   1.144 -0.2190  0.2580 -0.1246
 6364W        W22838   2.748  18.178   2.828 -0.4120  0.0510  0.0197
 6365W        W22839   0.065   8.732  11.629  0.0985  0.1080  0.0177
 6366W        W22840   2.859  14.788  13.768 -0.0910 -0.0615 -0.3677
 6367W        W22841   1.377   8.289   0.277 -0.0500  0.2347  0.3914
 6368W        W22842   0.740   3.596   0.203 -0.1997  0.1100  0.1417
 6369W        W22843  16.385  14.274  15.415  0.2418 -0.0666 -0.2477
 6370W        W22844   6.938  17.202  15.759 -0.1233 -0.0684  0.1550
 6371W        W22845   0.800   5.853   2.397  0.0858  0.2689  0.0024
 6372W        W22846  14.371  17.171   1.032 -0.1628  0.0508 -0.0150
 6373W        W22847   6.363   4.271   3.070  0.0061 -0.1235 -0.1291
 6374W        W22848   2.727  14.872   4.711  0.0490  0.1401 -0.1748
 6375W        W22849  11.255  14.021  13.446 -0.2156 -0.2459  0.0929
 6376W        W22850   1.396   8.300   1.610 -0.1226 -0.1326 -0.0219
 6377W        W22851   5.341  13.114   5.695 -0.2535 -0.0218 -0.1335
 6378W        W22852  18.281  16.873  15.178  0.1033  0.1279 -0.1895
 6379W        W22853  18.037  13.497  13.414  0.1419  0.1936 -0.0162
 6380W        W22854   8.191  13.247   2.153 -0.3384 -0.2315 -0.3908
 6381W        W22855  12.302   9.440  11.464 -0.1568 -0.0242  0.3453
 6382W        W22856  13.505   4.652   3.486  0.0342  0.2842  0.0504
 6383W        W22857  16.134   1.270   4.050  0.1763 -0.0277  0.0016
 6384W        W22858  14.140  15.204  13.875  0.3131 -0.0536  0.0667
 6385W        W22859  16.046  17.736  11.509  0.0081  0.2755 -0.2074
 6386W        W22860   5.752   7.816  16.106 -0.2739 -0.0598  0.2855
 6387W        W22861   9.685  11.107  13.120  0.0969 -0.3235 -0.1787
 6388W        W22862  15.770  15.159  16.164  0.0427  0.0697 -0.1586
 6389W        W22863  12.944   1.800   1.522 -0.2411  0.0752 -0.1307
 6390W        W22864  15.755   1.348   3.440  0.0093  0.1459  0.0319
 6391W        W22865  16.321   8.500  12.020  0.1176  0.0053 -0.0913
 6392W        W22866   2.631  15.179   1.292  0.0608  0.0750 -0.0525
 6393W        W22867   8.043  17.449   2.847  0.1350 -0.1987 -0.2319
 6394W        W22868   4.625   0.998  14.158  0.2023 -0.1229 -0.0345
 6395W        W22869   2.404  11.570  13.105 -0.2620  0.0717  0.0385
 6396W        W22870   7.668  17.787  12.344 -0.0177 -0.0383 -0.0823
 6397W        W22871   4.261   8.798   2.583  0.1416  0.0054 -0.2969
 6398W        W22872  18.366   6.150   5.126 -0.2202  0.0204  0.0589
 6399W        W22873  15.068   2.778   3.384 -0.2648  0.1422 -0.0788
 6400W        W22874   3.337   0.349  13.138 -0.1263 -0.4417  0.1830
 6401W        W22875  11.440  11.637  15.374  0.1550  0.0543  0.0353
 6402W        W22876  16.026   1.735  14.136 -0.1761  0.0512  0.2215
 6403W        W22877   0.796   7.741   0.911 -0.0490  0.0198 -0.0797
 6404W        W22878  16.883  10.073  16.013  0.2554  0.1308  0.0588
 6405W        W22879  12.579  16.381   3.475 -0.0960 -0.0350 -0.5119
 6406W        W22880   8.216   8.212   3.256  0.2071  0.0795  0.0539
 6407W        W22881   8.517   3.728   2.125 -0.2591 -0.2166  0.2869
 6408W        W22882   6.773  12.178   5.307 -0.0089 -0.2551 -0.0257
 6409W        W22883  10.581  15.725  13.686  0.1861 -0.2363 -0.0208
 6410W        W22884  18.280  17.817  15.838  0.3020 -0.3747  0.0502
 6411W        W22885  12.165   3.732   3.519 -0.1216  0.0428  0.0148
 6412W        W22886   2.721  17.261  14.698 -0.2139  0.0203 -0.2094
 6413W        W22887  12.111   6.330   0.224  0.2180 -0.1303 -0.1278
 6414W        W22888   6.172  13.095  15.410  0.2004 -0.0684  0.1791
 6415W        W22889   6.339   6.865  12.414  0.1296  0.2847  0.1550
 6416W        W22890   6.213   8.506  13.164 -0.0302 -0.1948 -0.0592
 6417W        W22891  14.226  13.924   1.352 -0.0499  0.2816  0.4155
 6418W        W22892   3.642   8.290   1.533 -0.2779 -0.0657 -0.2214
 6419W        W22893   5.231   8.562  13.078  0.0975 -0.0984  0.2685
 6420W        W22894  17.978   3.536  12.930  0.1137 -0.1484 -0.0939
 6421W        W22895   7.689  15.763   3.859  0.1316  0.0813  0.4411
 6422W        W22896  14.614  10.475  11.774  0.0428 -0.2778  0.1133
 6423W        W22897   1.451   8.598  16.187  0.0223  0.1191  0.0493
 6424W        W22898  13.316   5.102  15.263 -0.0660 -0.2912 -0.0653
 6425W        W22899   4.051   2.866  15.387  0.1469  0.0193 -0.2087
 6426W        W22900   0.562  16.780  14.020  0.0819  0.0921  0.2235
 6427W        W22901  13.714   6.692   2.330  0.1011  0.2244 -0.3379
 6428W        W22902   1.849   0.268  14.207  0.3477 -0.1395  0.3340
 6429W        W22903   9.703   1.071   0.660  0.0856 -0.0786  0.3362
 6430W        W22904  17.864  16.339   0.012  0.2083 -0.0143  0.0613
 6431W        W22905  10.291   8.134   3.756  0.1437  0.2834 -0.1500
 6432W        W22906  15.187   7.320   4.359  0.1236  0.0642 -0.3546
 6433W        W22907  12.129   4.610   0.926 -0.3960 -0.0747  0.4318
 6434W        W22908   3.290  12.920  15.993  0.0106 -0.1552  0.0255
 6435W        W22909  17.117  12.314   2.178  0.1263 -0.1414 -0.3523
 6436W        W22910  12.396  10.045   3.141  0.0264  0.0874  0.0362
 6437W        W22911   2.527  12.496   2.431 -0.1437 -0.0421 -0.0452
 6438W        W22912  13.916  15.578   5.184  0.2210  0.0788  0.3070
 6439W        W22913  11.652  18.184   3.570  0.4000  0.0167  0.3010
 6440W        W22914  15.331  17.606  13.498 -0.0756 -0.3201  0.1312
 6441W        W22915   9.819  14.844   4.073  0.0748 -0.0348  0.0721
 6442W        W22916  10.536   5.240   4.720  0.2156 -0.1496 -0.0384
 6443W        W22917   7.657   6.069   4.931 -0.2278 -0.2225 -0.0351
 6444W        W22918  13.498   8.970  11.905  0.0232 -0.1459  0.1332
 6445W        W22919  10.995   7.016   3.294 -0.1183  0.0307  0.3358
 6446W        W22920   4.431  10.319   0.312 -0.1749  0.0125  0.4923
 6447W        W22921  15.053   0.843   2.129  0.0367  0.1824 -0.2674
 6448W        W22922  10.930  12.530  13.092  0.0912  0.0723  0.0549
 6449W        W22923  13.499  17.928   3.545  0.3907 -0.3782  0.1590
 6450W        W22924  16.083  16.735  14.399  0.1520 -0.4112  0.1437
 6451W        W22925   7.588  13.379  15.780 -0.0690  0.0820 -0.0512
 6452W        W22926   9.584   6.574  13.936 -0.1151 -0.1458 -0.0325
 6453W        W22927  13.625  18.037  14.248  0.0531 -0.0498  0.2200
 6454W        W22928  13.089  11.632  12.472 -0.1350 -0.0483 -0.1628
 6455W        W22929   7.451   2.362   0.352 -0.0953  0.1204 -0.0293
 6456W        W22930   9.428  10.709  13.552 -0.0258 -0.1058  0.0527
 6457W        W22931   2.294   3.340   3.496 -0.0487 -0.1325  0.0274
 6458W        W22932   7.142   1.165  11.878  0.5241 -0.0028  0.1272
 6459W        W22933   5.760   4.441  13.339  0.1315 -0.0661  0.1560
 6460W        W22934  13.554  17.974   4.037 -0.2651  0.2687  0.1019
 6461W        W22935   5.454  14.829   3.841 -0.2035  0.0488 -0.0623
 6462W        W22936   8.322   0.017   3.346 -0.1338  0.1178  0.0755
 6463W        W22937   3.226   9.547  11.914  0.0192  0.3551 -0.0404
 6464W        W22938  10.339   7.203  13.098  0.1279 -0.0587  0.0818
 6465W        W22939   5.382   0.641  14.496  0.1110 -0.0694 -0.1103
 6466W        W22940   1.560   8.381   1.115 -0.0215  0.2323  0.0221
 6467W        W22941  17.965  12.395   1.748  0.0936  0.1516  0.4392
 6468W        W22942  11.486  11.690  13.138 -0.2266 -0.2145  0.0905
 6469W        W22943  14.199  14.894  11.270  0.0441 -0.3550  0.1612
 6470W        W22944  15.923   0.358  11.591  0.0180 -0.1867  0.3050
 6471W        W22945   4.362   8.986   1.421 -0.0052  0.1292  0.1426
 6472W        W22946   4.008  12.033  13.932 -0.1323  0.0475  0.3155
 6473W        W22947   4.530   0.034   2.900  0.2093  0.3015 -0.1779
 6474W        W22948   3.449   0.486   1.187  0.1238  0.0743  0.1914
 6475W        W22949   4.143   2.540   4.340 -0.1500 -0.2677 -0.2020
 6476W        W22950  13.620  11.053   4.246 -0.3963 -0.0564  0.1156
 6477W        W22951   0.873  10.513  14.393  0.0546 -0.3083 -0.0300
 6478W        W22952   3.588  11.889   2.618  0.2570 -0.0676 -0.1707
 6479W        W22953   2.358   3.774   2.322  0.0060 -0.1196  0.2967
 6480W        W22954  10.185   2.387  15.323  0.0054 -0.1196  0.2637
 6481W        W22955  13.446  10.048   4.361  0.3326  0.2313 -0.4007
 6482W        W22956  10.141   6.296  14.238  0.2172  0.0724 -0.0443
 6483W        W22957   7.798  16.751  15.580 -0.1465 -0.2525 -0.1859
 6484W        W22958  17.704   0.461  11.945  0.0291 -0.1753  0.1389
 6485W        W22959   6.276   6.886  15.378 -0.1510 -0.0100 -0.1032
 6486W        W22960  11.302   6.533  15.029  0.3186  0.3574  0.0400
 6487W        W22961   0.731  13.322   5.556  0.1502  0.4361 -0.2543
 6488W        W22962   0.517   7.111   3.534 -0.0377 -0.0272  0.1887
 6489W        W22963  12.654   4.072  12.211 -0.0145  0.0929 -0.2249
 6490W        W22964   9.470  16.639   4.428  0.1478  0.2897 -0.0942
 6491W        W22965  10.384   3.765   2.225  0.0719  0.3032  0.0684
 6492W        W22966   7.330  17.486  13.638 -0.1174 -0.1617 -0.0915
 6493W        W22967   5.162   6.544   4.689  0.2806 -0.0495 -0.0339
 6494W        W22968   3.560   4.831  13.108 -0.2057 -0.0002  0.0467
 6495W        W22969  11.779   0.952   2.174  0.0289  0.2589 -0.3103
 6496W        W22970   1.631   7.204  12.766  0.3867 -0.0799 -0.0421
 6497W        W22971   3.231  17.009   4.961 -0.1118 -0.1117  0.2157
 6498W        W22972   4.101  10.514  16.290 -0.1427  0.1354  0.2508
 6499W        W22973   3.708  13.731   5.384  0.2447 -0.3837 -0.2144
 6500W        W22974   3.898   4.035   0.837  0.1705  0.0390  0.3151
 6501W        W22975  10.358  15.977   1.351 -0.0828 -0.2032 -0.2526
 6502W        W22976   0.142  11.174   5.011 -0.1274  0.3916  0.2243
 6503W        W22977   5.195   7.920   2.952 -0.1379  0.1024 -0.1683
 6504W        W22978   4.041  17.636  11.853  0.1522  0.0763  0.0118
 6505W        W22979   6.745   2.476   3.725  0.2115  0.1667  0.0487
 6506W        W22980  11.268   2.029   3.894  0.0203  0.0340  0.4500
 6507W        W22981  14.713   5.205   5.406 -0.1076  0.1284 -0.1660
 6508W        W22982  15.808  17.428  11.827  0.3446  0.2238 -0.1689
 6509W        W22983  14.314   8.590   3.644  0.1743 -0.1793 -0.1009
 6510W        W22984  11.145  11.347   4.788 -0.0703  0.2148  0.2006
 6511W        W22985   9.380   6.413  12.542 -0.0165 -0.0045  0.0681
 6512W        W22986   0.337   8.794   3.035  0.0613 -0.1240  0.0988
 6513W        W22987   0.255   3.036   5.093  0.0368 -0.0752  0.1856
 6514W        W22988   4.525  11.708   3.752 -0.2190 -0.2518  0.0580
 6515W        W22989  13.378   2.596   0.669 -0.0768 -0.2627  0.0962
 6516W        W22990   0.187  15.650  11.665 -0.2749  0.1435  0.0656
 6517W        W22991   9.523   1.612   2.532  0.3092  0.0651 -0.1310
 6518W        W22992  16.070  12.396  14.670 -0.0404 -0.2522  0.3250
 6519W        W22993  17.117  16.732  15.747 -0.2551 -0.2959 -0.1994
 6520W        W22994   4.385   2.736   5.705 -0.0085 -0.3809  0.1985
 6521W        W22995   6.588   0.390   3.177  0.4789 -0.1843  0.0490
 6522W        W22996  12.729   6.266  12.390  0.1149 -0.4261  0.1282
 6523W        W22997   5.169  16.447  11.691  0.0049  0.0116 -0.2019
 6524W        W22998  17.371   8.265  14.285  0.4165  0.0141 -0.1838
 6525W        W22999   5.939   1.402   4.293 -0.0749 -0.1456  0.2090
 6526W        W23000  11.274   6.895  12.832  0.3174  0.1372  0.0863
 6527W        W23001   8.311  11.219  15.095  0.0327  0.1134  0.0010
 6528W        W23002  16.837   9.928   1.934 -0.3443 -0.2838  0.2079
 6529W        W23003  18.323   5.623   0.805 -0.2639  0.0954  0.0387
 6530W        W23004  16.592   8.198  15.464 -0.0542 -0.1577  0.0052
 6531W        W23005   7.490  13.683  14.923  0.2758 -0.0195  0.1907
 6532W        W23006  11.073   7.843   3.608  0.1007  0.1646  0.1288
 6533W        W23007   5.448  11.592  11.113 -0.1709  0.4605 -0.0611
 6534W        W23008   0.336   3.048   3.661 -0.0170  0.2846  0.1236
 6535W        W23009  10.662   5.966   4.258 -0.0559 -0.0714 -0.1096
 6536W        W23010   3.788  14.326   5.165 -0.0063  0.2168  0.0979
 6537W        W23011   1.463   0.489   4.094 -0.3298  0.0676 -0.0481
 6538W        W23012   7.699   1.271  12.498  0.1834  0.2291 -0.0207
 6539W        W23013   4.057  16.390   5.163  0.1940  0.1408  0.2806
 6540W        W23014  13.063  12.854  16.244  0.3188  0.1566 -0.0056
 6541W        W23015  15.534  15.461   4.632 -0.0608 -0.1208 -0.1378
 6542W        W23016  10.950  13.497   3.633 -0.0811  0.0632  0.1170
 6543W        W23017  14.489   5.779   9.799  0.1367 -0.1077 -0.0337
 6544W        W23018   1.892  12.877  13.069  0.0206  0.0533  0.0405
 6545W        W23019   4.287   6.393  12.974 -0.5209 -0.0297  0.4333
 6546W        W23020  12.190  16.422   5.241 -0.0016  0.2075  0.0228
 6547W        W23021   6.661  15.663   4.244  0.0444 -0.0361  0.1231
 6548W        W23022   6.094   1.618  12.317 -0.0174 -0.1738  0.1829
 6549W        W23023  10.909  14.168   4.071  0.0240  0.0750  0.0612
 6550W        W23024  13.365   5.068   3.862  0.0280  0.0706 -0.1693
 6551W        W23025   5.834  16.005   0.738  0.0005 -0.0048  0.0808
 6552W        W23026   1.066  11.584   4.339 -0.2673  0.3534 -0.1687
 6553W        W23027   8.488  16.423  12.782  0.0311  0.1007 -0.0575
 6554W        W23028   5.758   5.608  11.823  0.1757 -0.0396 -0.0140
 6555W        W23029  16.340   1.816  12.556 -0.2237  0.1861  0.0378
 6556W        W23030   0.122  12.286  15.255  0.1524 -0.1848 -0.2767
 6557W        W23031  16.667  13.078  11.369  0.2788  0.0959 -0.2179
 6558W        W23032   8.836   7.048  14.202 -0.0156  0.0870 -0.4301
 6559W        W23033   0.288  10.464  14.686 -0.3855 -0.2247 -0.0622
 6560W        W23034   1.565   4.596   5.214 -0.2199  0.0300  0.2710
 6561W        W23035  13.090   6.103   0.111  0.2274  0.0560 -0.2055
 6562W        W23036  10.304   9.462  14.606  0.0804  0.1493  0.1554
 6563W        W23037  17.856   2.601   6.340  0.1953 -0.2146 -0.2042
 6564W        W23038  16.855   1.158   3.457 -0.0943  0.3051 -0.0309
 6565W        W23039  15.273   2.470   0.640  0.0361 -0.1742  0.1450
 6566W        W23040   2.471   9.916   5.858  0.4711 -0.3826  0.3693
 6567W        W23041  14.237  14.934  14.656 -0.0875 -0.2401  0.1769
 6568W        W23042   4.921  15.148   4.064 -0.0880  0.1797 -0.0611
 6569W        W23043  17.347  16.544  16.172  0.1331 -0.1696  0.2025
 6570W        W23044  11.545  18.370  15.647  0.0224 -0.0584 -0.1220
 6571W        W23045  14.583   8.115  12.297 -0.0180  0.1351  0.0090
 6572W        W23046  13.398   8.978   1.799 -0.1894  0.3350 -0.1578
 6573W        W23047  16.849   0.446   0.203 -0.3275 -0.0389 -0.0760
 6574W        W23048   4.065  13.149   1.911 -0.1046  0.1195 -0.2845
 6575W        W23049  18.388   5.707  12.381 -0.0080 -0.0251 -0.3426
 6576W        W23050  15.827  11.123  15.869  0.0322  0.2607 -0.0215
 6577W        W23051  13.103   4.580  14.867  0.0097 -0.1080  0.1920
 6578W        W23052   7.103  15.578   4.576  0.0826 -0.1973  0.1060
 6579W        W23053  12.333   3.425  11.636 -0.2306  0.4043  0.1099
 6580W        W23054  13.168   9.572   0.178 -0.0265 -0.0765 -0.1362
 6581W        W23055  13.677   1.368  12.068 -0.1078 -0.0943 -0.1077
 6582W        W23056  10.775   7.563  15.543  0.1578 -0.0312 -0.1157
 6583W        W23057   6.235  17.838   2.802 -0.0580  0.1329  0.0870
 6584W        W23058  10.537  18.070  13.067 -0.2885  0.0724 -0.0127
 6585W        W23059   6.743   5.961   4.817  0.1882  0.0025  0.1726
 6586W        W23060   4.792  17.577  13.790  0.0983 -0.0518 -0.3401
 6587W        W23061   9.943  17.126   0.477  0.1218 -0.1246 -0.0355
 6588W        W23062   4.651  16.280  12.100  0.0665 -0.3196  0.0351
 6589W        W23063   2.066  17.417   0.664  0.0836 -0.3971 -0.0045
 6590W        W23064  12.688  17.722   2.077 -0.2105  0.1049  0.0101
 6591W        W23065  13.123   0.757   4.979 -0.1238  0.0746 -0.0863
 6592W        W23066   7.237   2.439  12.154  0.2676 -0.3656 -0.0975
 6593W        W23067   6.044   7.740   1.048 -0.3096 -0.0494  0.0557
 6594W        W23068  14.654   7.835   1.914  0.2326 -0.0372  0.1662
 6595W        W23069   8.283  15.911  12.019 -0.0322  0.0919  0.1723
 6596W        W23070  16.055   5.721  15.679 -0.1094 -0.0937  0.7197
 6597W        W23071  15.144  14.918   3.954 -0.0974 -0.3090  0.3695
 6598W        W23072   7.932   3.755  13.678  0.0655  0.2586 -0.1024
 6599W        W23073  17.968   1.959  14.537  0.1266  0.2120 -0.1461
 6600W        W23074  13.000   1.596  15.125 -0.0591  0.2005  0.1665
 6601W        W23075  16.976  17.016   5.457  0.1517  0.1229  0.1000
 6602W        W23076  12.518   1.583  14.285  0.1459 -0.0492 -0.0615
 6603W        W23077  14.652   2.554   1.790 -0.0408 -0.2446 -0.1804
 6604W        W23078   1.319   3.829  14.982  0.1957 -0.1145 -0.4468
 6605W        W23079   5.780  13.676   2.619 -0.0729  0.1386 -0.1463
 6606W        W23080  16.063   1.652   3.050 -0.0074  0.0497 -0.1132
 6607W        W23081   4.333  10.638   2.631  0.1955 -0.0193 -0.0552
 6608W        W23082   4.629   2.807  12.019  0.2410 -0.2041 -0.0918
 6609W        W23083   3.602   7.393   1.282 -0.0893  0.0425 -0.1091
 6610W        W23084   2.655   6.322  16.027  0.0435  0.3518  0.0820
 6611W        W23085  13.775  14.339  14.693  0.2591  0.1883 -0.2098
 6612W        W23086   1.613   2.524   3.327 -0.1376  0.2374  0.0636
 6613W        W23087  15.479   5.182  15.829  0.3274  0.0842 -0.2092
 6614W        W23088  11.653  14.527  12.041 -0.0194  0.0237 -0.1386
 6615W        W23089  11.715   8.527  14.427 -0.1020 -0.0608  0.0731
 6616W        W23090  13.539  16.673   2.774  0.2511 -0.0546 -0.0687
 6617W        W23091   8.576  18.021   1.918 -0.3047  0.4475  0.0327
 6618W        W23092   6.790   1.018   4.081 -0.0165  0.1209  0.1008
 6619W        W23093  14.169   6.981  12.200  0.2325 -0.1763 -0.0843
 6620W        W23094  10.163   8.901  11.524  0.0916  0.1664  0.2219
 6621W        W23095  13.073   1.345  12.980  0.2194  0.2572 -0.3091
 6622W        W23096   1.586  16.649  15.100 -0.2856  0.0923  0.1228
 6623W        W23097   1.994  13.507   3.923 -0.0523 -0.0474  0.2457
 6624W        W23098   8.845  11.582   2.370  0.0600 -0.0422  0.2157
 6625W        W23099  12.086   9.080  15.078 -0.0870  0.1948  0.0757
 6626W        W23100   7.371  10.013   6.165 -0.0781 -0.0935 -0.2291
 6627W        W23101   2.350  10.479   5.980  0.1095  0.0315  0.3051
 6628W        W23102  17.603  12.150   3.975  0.0245  0.3572  0.0699
 6629W        W23103  17.201   8.212  11.968  0.0600 -0.0866  0.0486
 6630W        W23104  16.612  13.590  14.984  0.0639 -0.0559  0.0291
 6631W        W23105  10.583   9.864   0.319 -0.1971 -0.1496 -0.0646
 6632W        W23106   8.552   0.747  13.222 -0.0556  0.1452 -0.1199
 6633W        W23107  10.902  17.967   0.032  0.2149 -0.0375  0.1713
 6634W        W23108  10.637  11.909  14.796  0.3392  0.5749 -0.2775
 6635W        W23109  12.019   2.821   0.592 -0.2073  0.0056  0.2423
 6636W        W23110   6.000   9.950  12.386  0.2071  0.1555  0.2576
 6637W        W23111   7.575  16.694  14.661  0.1249  0.0618 -0.0587
 6638W        W23112   5.563   3.034   3.976  0.1609  0.0383  0.2180
 6639W        W23113  17.222   8.539  13.194 -0.2486  0.2512 -0.0766
 6640W        W23114   8.876   8.013  15.667 -0.0596 -0.1259 -0.0053
 6641W        W23115  10.874   9.823   2.682  0.0321  0.1327 -0.1198
 6642W        W23116  15.020  11.449  11.607  0.0360  0.1309  0.1751
 6643W        W23117  17.479   4.545   3.770 -0.4816  0.0582  0.0870
 6644W        W23118   0.894   4.093   2.699  0.1883  0.5810  0.1310
 6645W        W23119   5.089  16.486  12.752 -0.1637  0.0668 -0.4895
 6646W        W23120   7.536   3.308   2.022 -0.0526  0.0847  0.1809
 6647W        W23121   0.316   0.427   2.574  0.1748 -0.1975  0.0218
 6648W        W23122  15.687   4.876   3.591 -0.0657  0.0372 -0.2334
 6649W        W23123   9.644  10.873   4.032  0.0324  0.2759 -0.1917
 6650W        W23124   2.234  15.270   4.088  0.2971  0.0152 -0.2646
 6651W        W23125   3.067  13.176  13.579 -0.2551  0.4171 -0.1813
 6652W        W23126   8.154  13.514   3.307  0.3777  0.3315 -0.0746
 6653W        W23127  11.130   9.806   4.924  0.2967  0.0249 -0.0954
 6654W        W23128  15.438   4.027   4.967  0.0570  0.0915 -0.3630
 6655W        W23129  10.156   9.704   0.293  0.0403  0.1481 -0.0546
 6656W        W23130  10.683  17.207   4.876  0.0483 -0.1364 -0.0538
 6657W        W23131   8.712  15.583  14.368 -0.1771  0.1151 -0.3158
 6658W        W23132   9.925  11.755  15.379 -0.0714 -0.0603 -0.0910
 6659W        W23133  12.050  11.191  15.300  0.0465  0.1522 -0.0244
 6660W        W23134  10.255  15.158  15.977 -0.1709  0.1837 -0.0787
 6661W        W23135  15.658  11.671   3.336 -0.0070 -0.1143 -0.1656
 6662W        W23136   9.816  12.534  15.389  0.0019  0.3746 -0.0850
 6663W        W23137   5.300   2.845  12.811 -0.0734  0.1344  0.0011
 6664W        W23138  10.718  14.288   1.946  0.0171 -0.1787  0.0966
 6665W        W23139  16.751  17.322  12.253  0.0153  0.2123 -0.2463
 6666W        W23140   1.491  12.790   5.150  0.4448  0.0352 -0.0709
 6667W        W23141   9.492  17.287   1.448 -0.0145  0.1295 -0.0167
 6668W        W23142  12.909   7.777  12.741  0.3442 -0.1630  0.0685
 6669W        W23143  17.151   6.544  11.581  0.1095  0.0325 -0.2377
 6670W        W23144   5.990   0.740   1.782 -0.0860 -0.2658 -0.2537
 6671W        W23145   7.643   5.556   3.997  0.0635  0.1240  0.0783
 6672W        W23146   7.647   8.546  16.171 -0.2683  0.0829 -0.0758
 6673W        W23147  14.506  11.980   4.886  0.0473  0.2435 -0.0536
 6674W        W23148   9.670  13.044  13.630 -0.0034  0.1370  0.0415
 6675W        W23149   7.276   2.067  16.165  0.1517  0.2289 -0.1842
 6676W        W23150  13.416  10.979   3.777  0.0813 -0.0788 -0.2574
 6677W        W23151   1.145   6.255   2.457 -0.1574 -0.0052  0.3249
 6678W        W23152  13.387   7.950   2.813  0.1338 -0.1618 -0.0257
 6679W        W23153   6.932  12.270  12.849  0.0469  0.0865  0.0750
 6680W        W23154   5.454   3.123  14.729  0.0993 -0.1599 -0.1029
 6681W        W23155   4.961  16.494   5.222 -0.1276  0.0250  0.1949
 6682W        W23156   2.796  15.794   0.090  0.2394 -0.0551  0.1706
 6683W        W23157  11.403   4.952   2.104  0.0162  0.1845 -0.0409
 6684W        W23158   9.597   3.094   4.982 -0.2960 -0.3020 -0.2333
 6685W        W23159   3.536  10.246  12.375 -0.0067  0.1480  0.2902
 6686W        W23160  11.479  10.624  14.840 -0.2024  0.2853 -0.5824
 6687W        W23161  17.677   6.375   0.519  0.2756  0.1024  0.1476
 6688W        W23162   6.113  11.180  12.462 -0.1085 -0.1172  0.1419
 6689W        W23163   1.447  13.609   4.790  0.0479 -0.0755 -0.0121
 6690W        W23164   2.765   7.522  13.208  0.0593 -0.2678 -0.2288
 6691W        W23165  13.067  14.597   1.054  0.0168  0.0710  0.3898
 6692W        W23166   0.014  12.715  13.007  0.0020 -0.1614 -0.4345
 6693W        W23167  17.555  14.476   0.316  0.2869 -0.2824  0.0536
 6694W        W23168  10.758   7.938  13.339  0.0929 -0.1300  0.1892
 6695W        W23169  10.132   7.048   4.691  0.2537 -0.1283  0.1035
 6696W        W23170   5.009   4.742  13.840  0.0915 -0.0156 -0.1059
 6697W        W23171   6.161  10.127  14.329 -0.3296  0.1513 -0.1102
 6698W        W23172  18.141   8.733  15.151  0.0447  0.3109  0.3804
 6699W        W23173   2.903  17.035   5.440 -0.1198  0.1346  0.0499
 6700W        W23174   9.288   5.201  14.506 -0.2005 -0.0838  0.0193
 6701W        W23175  18.301  13.424  16.285 -0.0708 -0.0379 -0.3451
 6702W        W23176   7.777   5.924  14.619 -0.0931  0.1464 -0.1625
 6703W        W23177   6.589  16.713  13.588  0.0466 -0.3411 -0.0865
 6704W        W23178  14.639  11.578   0.387 -0.1112  0.1972 -0.0410
 6705W        W23179   4.505   2.248  12.704  0.3186 -0.2053  0.0977
 6706W        W23180   4.244  14.495   4.325 -0.1296 -0.0060 -0.0820
 6707W        W23181  14.292   5.347   4.541 -0.1364  0.1542  0.0937
 6708W        W23182  15.034   9.189  11.628  0.3184  0.1313 -0.0099
 6709W        W23183   2.904   7.275  15.183 -0.0848  0.1111  0.2494
 6710W        W23184  15.081  15.682  15.778 -0.1608  0.4082 -0.1702
 6711W        W23185  16.940  18.171  15.805 -0.0248  0.1597  0.2230
 6712W        W23186   9.738  13.453  12.416 -0.0722 -0.3455  0.0576
 6713W        W23187  17.164  17.468   3.966  0.0852  0.0581  0.3714
 6714W        W23188  17.784  16.354   3.507  0.2922 -0.0360 -0.0425
 6715W        W23189  15.054   3.822  13.117  0.1455 -0.1702  0.4359
 6716W        W23190  17.717  17.599   2.523  0.2371  0.1297  0.1249
 6717W        W23191   9.824   1.996   6.179  0.3405  0.2250  0.0827
 6718W        W23192  10.135  16.984  15.696  0.0794  0.1351 -0.0093
 6719W        W23193  18.045   5.392  14.477 -0.1128  0.2943  0.2394
 6720W        W23194   8.106   1.159   1.867 -0.0998 -0.0240  0.0255
 6721W        W23195  12.457   8.770  12.608  0.0362  0.2376 -0.0640
 6722W        W23196  14.109   4.702   1.667  0.2778  0.0836  0.1252
 6723W        W23197  12.222  12.994   1.230  0.1168 -0.0063 -0.0409
 6724W        W23198  12.967  16.519  13.041 -0.1092 -0.2448 -0.0738
 6725W        W23199   7.338   8.272   3.726  0.3999  0.1458  0.0022
 6726W        W23200   4.869  17.054  15.503 -0.0256  0.0774  0.1612
 6727W        W23201  16.556   9.840  15.719  0.1095  0.0581  0.3709
 6728W        W23202   2.968  11.098  11.174 -0.2057 -0.2829  0.0474
 6729W        W23203  10.287   4.354   0.159  0.0183 -0.1267 -0.0760
 6730W        W23204   5.117   3.329  11.906 -0.1791 -0.0556  0.0200
 6731W        W23205   4.134   9.160  15.293  0.1064 -0.1760  0.0463
 6732W        W23206  10.303   1.031   3.730 -0.3197  0.0227 -0.0267
 6733W        W23207  11.346   0.400  15.853  0.0408  0.0286  0.1982
 6734W        W23208   7.497  11.560   2.369 -0.0518  0.0982 -0.0198
 6735W        W23209  15.272   1.443  12.869 -0.3992 -0.0851 -0.2321
 6736W        W23210  10.181  13.193   5.262 -0.1967  0.0787 -0.0103
 6737W        W23211  11.191   3.771  11.515 -0.0430 -0.0904 -0.0394
 6738W        W23212  13.793   2.887  12.004  0.0778 -0.2735 -0.3773
 6739W        W23213  10.112   6.816  14.670  0.1336 -0.2253 -0.0469
 6740W        W23214  11.799  11.239  10.977 -0.1677 -0.0300  0.1508
 6741W        W23215   5.188   6.986   0.392  0.0153 -0.4417 -0.0085
 6742W        W23216  15.515  17.580  13.984 -0.1929  0.1080  0.4341
 6743W        W23217   2.864  14.777  12.646 -0.3036 -0.3229 -0.1444
 6744W        W23218   6.672  16.059   4.001 -0.1728 -0.3088  0.3791
 6745W        W23219   9.741   5.896  15.028 -0.2269 -0.0835 -0.1078
 6746W        W23220  11.962   6.258  11.816  0.3491 -0.1566  0.0702
 6747W        W23221  12.700   6.534  13.181 -0.3023  0.0649 -0.1348
 6748W        W23222   7.305   5.556  16.002 -0.3573 -0.0008  0.2048
 6749W        W23223   9.001  17.383  14.195  0.5164 -0.3279  0.0049
 6750W        W23224  12.355   7.283  14.736  0.2449 -0.0197 -0.1769
 6751W        W23225  13.130  10.812  11.780  0.1654  0.1529  0.1594
 6752W        W23226   5.815   8.051   3.766 -0.0485 -0.0935  0.1453
 6753W        W23227   3.310  16.606   1.648  0.0634  0.2952 -0.2314
 6754W        W23228   9.646  14.118   0.377  0.0087 -0.0917  0.1693
 6755W        W23229  13.801  16.324   3.038 -0.1467 -0.0876  0.1145
 6756W        W23230  13.636   9.038  14.393 -0.3197 -0.0052 -0.2213
 6757W        W23231   1.006   5.982  14.632  0.3098  0.4108  0.4359
 6758W        W23232   4.917   5.245   1.311 -0.0536  0.0993  0.2817
 6759W        W23233   6.068  13.258  15.875  0.1985 -0.0702  0.0626
 6760W        W23234   7.650   8.882  11.752 -0.0794 -0.2504  0.0523
 6761W        W23235  17.159   3.831   1.053 -0.1823 -0.1358  0.2274
 6762W        W23236   1.944   1.783   6.588 -0.2803  0.3668 -0.4611
 6763W        W23237  17.790   1.031   1.920  0.4277  0.1101  0.0527
 6764W        W23238   1.839   8.269  13.281 -0.0739 -0.1020  0.1509
 6765W        W23239   0.300  18.184  13.812  0.0903 -0.1846 -0.0049
 6766W        W23240   6.674   7.626   0.618  0.0987 -0.0950  0.0096
 6767W        W23241   6.405   9.249  13.395  0.2158 -0.1528 -0.2784
 6768W        W23242   3.640  14.426   0.604  0.2762  0.1477 -0.0286
 6769W        W23243  13.176  12.025  14.834  0.2504 -0.0272 -0.2913
 6770W        W23244   5.820  17.660  14.739 -0.2081 -0.1721 -0.0459
 6771W        W23245  11.253   4.367  12.177  0.1550  0.2986 -0.1231
 6772W        W23246   6.389  12.307  14.658 -0.0452 -0.0150 -0.1234
 6773W        W23247  17.906  13.674  11.565  0.1124 -0.0880 -0.0000
 6774W        W23248  11.837  10.591   0.835 -0.2524  0.0111  0.1833
 6775W        W23249   1.704   6.561  12.464  0.3312 -0.1889 -0.1119
 6776W        W23250   3.570   6.594   2.953  0.1016  0.1163 -0.0092
 6777W        W23251  13.708   4.594   0.063  0.0935 -0.0162  0.3401
 6778W        W23252  12.581   0.671   1.146  0.2393  0.4104 -0.2794
 6779W        W23253  10.261  18.273  15.048 -0.1497 -0.1161  0.1543
 6780W        W23254  16.658  13.882  15.829 -0.1986  0.1508 -0.0162
 6781W        W23255   2.202  16.777   5.964 -0.1477 -0.0503 -0.1513
 6782W        W23256   1.935  15.269  16.210 -0.2927  0.1917  0.1423
 6783W        W23257   8.495  14.304   2.356  0.2260 -0.3317 -0.1249
 6784W        W23258   3.760   3.925  13.379 -0.0519  0.0042  0.2962
 6785W        W23259  16.443   6.708  12.239  0.3439  0.1045  0.0450
 6786W        W23260   9.470   1.100  13.457  0.3644  0.0306  0.0864
 6787W        W23261   7.136   4.227  15.887  0.0277  0.2457  0.0044
 6788W        W23262  17.608   2.764   5.037  0.0709 -0.0712 -0.1947
 6789W        W23263   5.055  15.265   4.549 -0.3529 -0.0086 -0.2293
 6790W        W23264   7.071   2.780   0.226 -0.2607 -0.0676 -0.0897
 6791W        W23265   2.062   1.031  16.284  0.1030  0.4108  0.0205
 6792W        W23266   2.202  14.491   0.501  0.2385  0.1969  0.3062
 6793W        W23267  16.593  16.340   3.823 -0.0462  0.3729  0.0303
 6794W        W23268  11.585   2.630   0.635  0.0783 -0.1128  0.2602
 6795W        W23269   0.712   3.709   3.364  0.0635 -0.3534  0.3447
 6796W        W23270   7.173  12.087  14.393 -0.0210  0.0535 -0.1128
 6797W        W23271   8.590   3.089  15.685 -0.1213  0.0973  0.0731
 6798W        W23272   1.001  11.443   5.230 -0.2552  0.3112 -0.0328
 6799W        W23273  17.114   6.375  12.976 -0.2492  0.2005  0.3706
 6800W        W23274   6.879  15.597   0.914  0.0540  0.0964 -0.2336
 6801W        W23275   7.748   8.683   3.722  0.4543  0.0026 -0.0207
 6802W        W23276   6.785   2.245  12.147  0.1676 -0.0939  0.2530
 6803W        W23277   7.593  11.565   4.186  0.3399 -0.0451 -0.1123
 6804W        W23278  17.141  10.792  16.189 -0.3113  0.0593 -0.0957
 6805W        W23279  10.793   8.165   1.661 -0.3309 -0.0703 -0.0887
 6806W        W23280   9.437   3.226  12.552 -0.0642 -0.0274 -0.3099
 6807W        W23281  14.327  11.755   4.196 -0.0213 -0.0138 -0.0493
 6808W        W23282   3.560   7.072   2.473 -0.1599  0.3614  0.0351
 6809W        W23283   1.737  12.183  14.243  0.0108 -0.2895  0.0221
 6810W        W23284   5.407  15.639  11.509  0.1072 -0.1436  0.0333
 6811W        W23285   1.018  10.018  11.116  0.0250 -0.0451 -0.1150
 6812W        W23286  14.903   6.127   3.765  0.1659 -0.1247  0.0117
 6813W        W23287  16.137  15.162  13.150 -0.4040 -0.1084  0.1942
 6814W        W23288   8.263   9.347  12.922  0.1428 -0.0451  0.0406
 6815W        W23289   7.033   8.751  13.181  0.1235 -0.1633  0.0931
 6816W        W23290  14.809  15.350   0.473  0.0481  0.1952 -0.2392
 6817W        W23291  15.441   2.319   5.033 -0.0510  0.0674 -0.0079
 6818W        W23292   9.883  12.352   2.195 -0.3932 -0.0702 -0.6913
 6819W        W23293  15.062  12.174  12.761 -0.1595  0.0517  0.1762
 6820W        W23294   8.651  14.795  12.057  0.3506  0.1169 -0.4411
 6821W        W23295   1.418   2.765   2.863 -0.2148 -0.0244 -0.6998
 6822W        W23296  12.601   4.073   2.860  0.1890  0.4249  0.0690
 6823W        W23297  12.669   2.318  12.866  0.2646  0.0922 -0.0204
 6824W        W23298  10.000  11.422  11.115 -0.0549  0.3220  0.1325
 6825W        W23299  13.017   8.500  13.814 -0.1015  0.1022 -0.0409
 6826W        W23300  15.919  13.532   2.651 -0.0720 -0.0502  0.0380
 6827W        W23301  10.882  12.539   3.792  0.3661  0.0536  0.0948
 6828W        W23302  11.989   6.724  15.276 -0.3043  0.4547  0.0548
 6829W        W23303  11.537  12.772   1.992 -0.2010 -0.0317 -0.1689
 6830W        W23304   1.537   7.412   2.439  0.1156 -0.0150  0.0775
 6831W        W23305  14.619  13.272   0.554  0.1690 -0.2842 -0.1104
 6832W        W23306  16.331   9.333  11.715  0.1306  0.1860 -0.0909
 6833W        W23307   9.068   1.258   6.103 -0.0761 -0.0385 -0.1940
 6834W        W23308  14.099   6.070   0.271 -0.1440  0.0694  0.1728
 6835W        W23309  12.624   6.167   1.030  0.1583  0.2570  0.0496
 6836W        W23310   2.051   3.939  15.423 -0.1225 -0.0172  0.0241
 6837W        W23311   6.761  17.111  12.787 -0.2365  0.1248 -0.0132
 6838W        W23312   9.490   2.656   4.722  0.0669 -0.0178  0.2775
 6839W        W23313   1.293   1.449   3.760 -0.3141 -0.0377  0.1253
 6840W        W23314   5.529   0.558   0.951 -0.2249  0.0905  0.2041
 6841W        W23315   2.534   6.313  12.289 -0.2902  0.2400  0.0519
 6842W        W23316  13.061  12.558  15.827 -0.3971  0.1662 -0.3258
 6843W        W23317  10.329   1.423  11.528  0.3209  0.1352 -0.1051
 6844W        W23318   4.238   4.649   3.611 -0.2368 -0.1220 -0.0886
 6845W        W23319   4.642  10.071   3.415 -0.0515  0.0356  0.1453
 6846W        W23320   2.357  16.964  12.087 -0.0437  0.0934 -0.0417
 6847W        W23321   5.504   0.113  14.691 -0.0100  0.2519 -0.0302
 6848W        W23322   5.171  12.974   4.057 -0.0631  0.2643 -0.0771
 6849W        W23323   6.032   1.753   4.959 -0.2410 -0.1002 -0.1057
 6850W        W23324   8.745   8.441   3.288  0.2130 -0.1372  0.2837
 6851W        W23325  14.622   6.913  14.107  0.0057  0.0134  0.0474
 6852W        W23326  16.767   3.068   0.783  0.0950  0.1207  0.1567
 6853W        W23327   7.942   3.063  15.590 -0.0639  0.0841 -0.2038
 6854W        W23328  11.739  15.198  13.050  0.1915  0.0031  0.0546
 6855W        W23329   8.127   2.926  12.725  0.1681  0.2316 -0.0473
 6856W        W23330   0.480  13.402   2.835 -0.1659  0.1588 -0.1197
 6857W        W23331  15.344  14.816   2.530 -0.1574 -0.1420  0.1451
 6858W        W23332   6.185   2.902   0.119 -0.2376 -0.2087 -0.1439
 6859W        W23333   0.300   1.880   0.966 -0.2273  0.0603  0.0076
 6860W        W23334   5.455   0.252  15.371  0.1085 -0.0308 -0.1320
 6861W        W23335  13.640  11.170   1.548  0.0628 -0.2884 -0.0833
 6862W        W23336   9.049   6.833  10.813 -0.0728 -0.0866  0.5591
 6863W        W23337   0.967   3.461   2.978  0.2918 -0.0697 -0.0443
 6864W        W23338   2.773  13.091  11.814  0.1267 -0.1059  0.1980
 6865W        W23339   3.310   5.576  12.682  0.0057 -0.1257  0.1077
 6866W        W23340   0.179   5.170   1.147 -0.2237 -0.2968 -0.0835
 6867W        W23341   2.166   9.032   2.713  0.0994 -0.0617 -0.2060
 6868W        W23342  17.745   5.546   0.090  0.1849  0.1336  0.3419
 6869W        W23343   6.425  11.536  12.586  0.0145  0.0226  0.3500
 6870W        W23344  18.140   2.677  13.257  0.2227 -0.1648  0.1604
 6871W        W23345  17.167  15.512   5.816  0.2060 -0.1489  0.0765
 6872W        W23346   2.351   5.423   4.541 -0.2466  0.1738 -0.0302
 6873W        W23347  13.111  11.588   1.254 -0.2838  0.1858  0.2207
 6874W        W23348  12.529   2.724   2.164 -0.1319 -0.0696  0.0532
 6875W        W23349  12.074   4.343  16.063 -0.1489  0.1638  0.1466
 6876W        W23350  11.708   1.247   2.983 -0.3305 -0.0049  0.2511
 6877W        W23351  16.228   5.881  11.394  0.0026  0.0451  0.2788
 6878W        W23352  13.188   5.225   4.899 -0.0893 -0.1017  0.0365
 6879W        W23353   3.481  10.300   0.813  0.3301 -0.0651  0.0221
 6880W        W23354   3.010  15.739   1.132 -0.2237  0.2410 -0.1153
 6881W        W23355   4.555   4.831   4.569 -0.2949  0.0977 -0.0103
 6882W        W23356   1.507   6.071  15.332 -0.1070  0.2006  0.0788
 6883W        W23357  13.981  17.971  12.241  0.0561  0.0194 -0.0637
 6884W        W23358  12.196   3.770   0.742 -0.0989  0.2246  0.2777
 6885W        W23359  17.813   5.788  14.265 -0.1673 -0.1756 -0.2395
 6886W        W23360   0.796   7.403  11.748 -0.3278  0.0240  0.1724
 6887W        W23361   8.059  17.177  13.839  0.0853  0.1733 -0.1074
 6888W        W23362   6.118  13.161   2.559 -0.2753 -0.1027 -0.0036
 6889W        W23363   2.456   4.021  13.659  0.0727 -0.1284 -0.1419
 6890W        W23364  11.220   2.586   4.002 -0.0063  0.2955 -0.0035
 6891W        W23365   0.716   1.756  13.000  0.3598 -0.1716 -0.0402
 6892W        W23366   3.352   9.687   2.012  0.3879 -0.0480  0.0448
 6893W        W23367   3.362   1.792  12.733  0.0290 -0.2737 -0.2374
 6894W        W23368   9.851   3.978  14.577 -0.0533  0.0754  0.0798
 6895W        W23369  17.667  17.139  12.228 -0.1853  0.0581 -0.2063
 6896W        W23370  14.123   8.224  11.417  0.0517  0.1244  0.1413
 6897W        W23371   1.899   1.501  14.763  0.1816  0.1524 -0.0309
 6898W        W23372  11.048  16.439  16.168 -0.0147  0.3553  0.4608
 6899W        W23373  11.159  11.914   3.064  0.0739 -0.0097 -0.0423
 6900W        W23374   0.466  17.877   3.609 -0.0925  0.0318  0.0282
 6901W        W23375  13.465   8.306  14.801  0.0486 -0.4673 -0.0640
 6902W        W23376   3.351   3.831   0.035 -0.2459  0.1513 -0.1188
 6903W        W23377   9.847  10.511  14.772 -0.0358 -0.1389 -0.1453
 6904W        W23378   0.238  15.638   2.290 -0.0593  0.2307  0.0218
 6905W        W23379   7.231  17.108   5.589  0.1975 -0.0367  0.0972
 6906W        W23380  18.267   3.949   4.100 -0.0232 -0.1160 -0.2148
 6907W        W23381   9.441   3.910   1.190 -0.3009 -0.2920 -0.3328
 6908W        W23382   1.672   5.128  15.385 -0.0369 -0.0228 -0.1928
 6909W        W23383   9.197   9.364  13.752  0.0730 -0.2926  0.2438
 6910W        W23384  17.415  13.329  15.478  0.1083  0.1146  0.3778
 6911W        W23385  15.456   2.983   1.817  0.1797  0.0606 -0.1525
 6912W        W23386   7.510  16.915   3.415  0.4224 -0.0650  0.2725
 6913W        W23387   1.087   6.896   5.062 -0.1201 -0.0016 -0.2530
 6914W        W23388  15.501  12.310  15.789 -0.3643 -0.0442 -0.2212
 6915W        W23389  14.544   7.374   3.835  0.2656  0.1622 -0.3479
 6916W        W23390   5.060  11.724   2.777  0.0718 -0.0517  0.1638
 6917W        W23391  11.597   0.917  15.950  0.1065 -0.2029 -0.3695
 6918W        W23392   5.880  14.368   6.033 -0.2465 -0.2155  0.1586
 6919W        W23393  13.860  12.427   5.440  0.1366  0.0054  0.2273
 6920W        W23394   0.086  17.752  14.593 -0.0023 -0.4948 -0.0429
 6921W        W23395  16.259   6.574   4.171  0.4350 -0.1693  0.0189
 6922W        W23396  17.712  11.901   0.720  0.1974 -0.2241  0.2568
 6923W        W23397   6.527  17.432  12.251 -0.2141 -0.0134 -0.0672
 6924W        W23398   7.857  10.118   0.985 -0.1214  0.0680  0.2603
 6925W        W23399  13.444   8.214   0.173 -0.1347 -0.1859  0.2438
 6926W        W23400   4.292   3.182  12.686  0.1735 -0.1743 -0.1630
 6927W        W23401  17.586   1.982  11.743  0.3636 -0.1592  0.0130
 6928W        W23402  12.111   4.188  11.826 -0.1244 -0.2436  0.2330
 6929W        W23403  14.478  16.678   1.153 -0.1471  0.2765 -0.0390
 6930W        W23404   1.571  17.566   0.480 -0.0771  0.0138  0.1608
 6931W        W23405  14.326   3.842   2.951  0.2845 -0.3298  0.1580
 6932W        W23406   2.048  18.039  15.894 -0.0736  0.0045  0.1538
 6933W        W23407  10.821  12.509  14.154  0.0274 -0.1649 -0.2398
 6934W        W23408  15.072   1.804  12.585 -0.2577  0.1299 -0.1891
 6935W        W23409  10.628  11.396   1.755  0.0051  0.2678  0.0574
 6936W        W23410  11.134   5.974   3.908  0.1679 -0.0675  0.3977
 6937W        W23411   2.382   9.357  13.953  0.0212 -0.0328 -0.2152
 6938W        W23412   2.330   9.350  12.033  0.0091 -0.0868  0.0318
 6939W        W23413   3.981   6.654   3.842 -0.3480 -0.0007  0.0796
 6940W        W23414   1.629  10.991  15.690  0.2086  0.1481  0.0995
 6941W        W23415   0.570   5.042   2.802 -0.1525 -0.1989  0.0686
 6942W        W23416   4.938  18.138  15.276 -0.2380 -0.2515 -0.1102
 6943W        W23417  12.896   0.710   2.525 -0.1167  0.3910  0.2988
 6944W        W23418  12.991   7.487  13.122  0.0698 -0.3738  0.0395
 6945W        W23419  10.433   1.376  15.242 -0.0031 -0.1360  0.2640
 6946W        W23420  10.789   8.412  16.027 -0.0672  0.3949  0.0536
 6947W        W23421  11.105   2.479  12.127  0.0705  0.3906 -0.2019
 6948W        W23422   7.464   4.226  13.777 -0.2578 -0.0439  0.1454
 6949W        W23423  17.047  18.229   3.531  0.1353 -0.2219  0.0881
 6950W        W23424  14.467   9.396  10.891  0.0041  0.0378  0.0835
 6951W        W23425   3.992   5.762  14.271 -0.0031  0.2512  0.5200
 6952W        W23426   6.682  10.804   1.002 -0.1807  0.1734  0.0901
 6953W        W23427   0.920  13.662  12.573 -0.0609 -0.1181  0.0889
 6954W        W23428  11.977   3.163   1.439  0.0734 -0.0773  0.1307
 6955W        W23429  10.892  12.822  16.073 -0.2478  0.1566  0.2157
 6956W        W23430   4.344   5.131   3.663 -0.0945  0.0831 -0.0852
 6957W        W23431   2.826  14.004   3.643  0.1674 -0.0387  0.2585
 6958W        W23432   9.987  11.609   1.027  0.2965 -0.2372 -0.0157
 6959W        W23433   7.785  13.516   3.781  0.4461  0.0375  0.0189
 6960W        W23434   1.646   1.551   4.667  0.0574 -0.1448  0.0606
 6961W        W23435   5.027   3.864  14.211 -0.1653  0.0642  0.1074
 6962W        W23436   4.292   0.112   4.053  0.1198 -0.1626 -0.1926
 6963W        W23437  12.872   1.752  16.211  0.0934 -0.3038 -0.1946
 6964W        W23438   6.968   4.323  14.455  0.1286 -0.3311 -0.1861
 6965W        W23439  17.853  14.353   2.614  0.1995 -0.1783  0.2312
 6966W        W23440   1.125   3.150  12.842  0.2839  0.0328 -0.0422
 6967W        W23441   1.718   0.157   0.494 -0.0856 -0.1667 -0.0257
 6968W        W23442   9.051   1.128  12.575 -0.0121 -0.0379 -0.2501
 6969W        W23443  16.781   4.361  13.807  0.3582 -0.1642 -0.0045
 6970W        W23444  13.061   8.811   4.674 -0.2314 -0.3120 -0.2173
 6971W        W23445  15.214  16.872   4.384 -0.0628  0.1142 -0.2650
 6972W        W23446  14.442  12.568  15.094  0.0307  0.5023  0.1105
 6973W        W23447  17.434   8.920  11.187  0.0674  0.2381 -0.0117
 6974W        W23448  15.927   9.066   5.635 -0.0504 -0.1200  0.1176
 6975W        W23449   5.712  14.072  14.462  0.3722  0.0654 -0.0180
 6976W        W23450   8.849   4.459   0.397 -0.3116  0.1685 -0.0931
 6977W        W23451   3.991  13.052  13.921  0.1268  0.2012 -0.5141
 6978W        W23452   3.094   8.890  15.557 -0.2662  0.0245  0.1278
 6979W        W23453   3.811  16.681   0.198 -0.0480  0.1383  0.3074
 6980W        W23454   5.231   1.502   2.660  0.0494  0.1101  0.1342
 6981W        W23455   6.759   5.997   3.026  0.0625 -0.1877  0.2509
 6982W        W23456   5.946  15.826   3.277 -0.0048  0.2080 -0.2140
 6983W        W23457   7.982  15.528  12.169  0.2175  0.0573 -0.0820
 6984W        W23458   7.094  14.626   4.929  0.5043  0.0365 -0.1564
 6985W        W23459   6.545   7.896   3.471 -0.1899 -0.1056  0.0229
 6986W        W23460  13.600   7.201  13.979 -0.2599 -0.1603  0.0762
 6987W        W23461   0.792   3.527  13.386  0.0619  0.3626  0.1550
 6988W        W23462   5.681   4.074  11.808  0.1821  0.0747 -0.1614
 6989W        W23463   0.268  13.836   3.084  0.2012  0.1897  0.1851
 6990W        W23464   4.262   7.368   4.806  0.3165  0.2026 -0.1707
 6991W        W23465   6.696  17.223   1.867 -0.0470  0.0572 -0.1271
 6992W        W23466  12.118  15.788   5.109  0.0532 -0.1405 -0.2514
 6993W        W23467   8.385   0.923  15.608 -0.0142  0.1035 -0.1888
 6994W        W23468  13.696   7.284  15.649 -0.0858  0.2120  0.0798
 6995W        W23469  10.819  11.255  11.727 -0.1163 -0.2045  0.1066
 6996W        W23470   8.527  11.722  15.134  0.1617  0.0597 -0.2811
 6997W        W23471  13.921  10.981  15.878 -0.3243 -0.0909 -0.1757
 6998W        W23472   7.397   1.308  15.856 -0.2962 -0.1371  0.0502
 6999W        W23473   5.230  17.488  13.539 -0.2820  0.1480  0.0008
 7000W        W23474  14.749   6.556   2.638  0.1724 -0.2098 -0.0840
 7001W        W23475   6.345   5.229  11.217  0.0936  0.0317  0.2491
 7002W        W23476   4.519  16.105   2.217  0.0043 -0.5206 -0.2845
 7003W        W23477   8.532   2.628   1.846 -0.1444 -0.2133 -0.0615
 7004W        W23478   3.339  14.656   1.805 -0.2591 -0.0682  0.0485
 7005W        W23479   9.056   5.376  11.710 -0.0222  0.2110 -0.1221
 7006W        W23480   8.925   3.627   2.392  0.0675  0.1128 -0.3783
 7007W        W23481   4.378   4.364   0.222  0.0981  0.0836 -0.1513
 7008W        W23482   4.759   3.457  13.149 -0.4163 -0.0680 -0.1345
 7009W        W23483   9.858  10.533   0.226  0.1360 -0.1433  0.4041
 7010W        W23484   3.580  10.457  11.156 -0.5926  0.1465  0.3007
 7011W        W23485   3.234   4.509   2.463  0.1752 -0.4357  0.4344
 7012W        W23486   6.413   4.622   3.479  0.1486 -0.0851 -0.0138
 7013W        W23487  15.714   1.876   4.691 -0.1068 -0.0327  0.3101
 7014W        W23488   0.168  11.447   6.221 -0.2252 -0.0271 -0.1348
 7015W        W23489   8.814  14.887   0.108 -0.1917 -0.2364  0.2713
 7016W        W23490   9.641   5.098  12.809 -0.1281 -0.1373  0.2787
 7017W        W23491  16.735  13.071   1.768  0.0945 -0.1353  0.4430
 7018W        W23492   1.247  14.087  12.598 -0.1591  0.0956 -0.0054
 7019W        W23493  18.023   7.675  14.252  0.0178 -0.1180 -0.0265
 7020W        W23494  17.948   8.424   2.692  0.0628 -0.0234 -0.2524
 7021W        W23495  10.012  15.237  12.324  0.0121  0.2426 -0.1109
 7022W        W23496   2.671  13.632  12.100  0.0713 -0.1069 -0.0912
 7023W        W23497   6.037  16.273   0.327  0.3697  0.1198  0.0926
 7024W        W23498  15.690   8.525   3.071  0.2975 -0.2505  0.0273
 7025W        W23499   4.204  17.210  12.063 -0.0923  0.3057 -0.0062
 7026W        W23500   9.184   3.688   0.308  0.2647  0.0818  0.1809
 7027W        W23501  14.346   6.480  10.634 -0.4867  0.1153 -0.3209
 7028W        W23502   2.867  17.810   5.250  0.2147 -0.0487  0.1643
 7029W        W23503   5.231  11.463  15.112 -0.1793  0.1187 -0.1375
 7030W        W23504   3.391  18.153   3.519 -0.2050 -0.3227 -0.0488
 7031W        W23505  15.453   4.113   3.744 -0.1512 -0.2891 -0.2758
 7032W        W23506  15.220   0.256  15.537  0.1096 -0.1399 -0.1472
 7033W        W23507  12.562   7.830   3.438  0.0475  0.0881 -0.1163
 7034W        W23508   8.841  13.583   0.822 -0.0707 -0.0532  0.0848
 7035W        W23509   6.681   5.107   0.300  0.0227 -0.1932  0.2276
 7036W        W23510  15.450  11.433  13.098  0.3397  0.0383  0.0686
 7037W        W23511  16.683  14.420  12.758 -0.3425 -0.0448 -0.0891
 7038W        W23512   3.465   7.753   0.960  0.0214  0.1068  0.0199
 7039W        W23513  15.568   3.853   3.332 -0.1196 -0.5282  0.1653
 7040W        W23514  10.441  17.090   0.230 -0.3684  0.0743  0.0860
 7041W        W23515  18.314  13.537   2.887  0.0719 -0.1574  0.0128
 7042W        W23516   0.858   7.528  14.506 -0.0533  0.0053  0.0087
 7043W        W23517   5.210   4.070  15.186  0.1191 -0.4602 -0.0486
 7044W        W23518  12.362  12.213   1.587  0.1643  0.2754 -0.0423
 7045W        W23519  17.886   8.706   0.924  0.0723  0.2387 -0.0663
 7046W        W23520  12.920  11.659   2.663 -0.0560  0.1537 -0.4696
 7047W        W23521   9.094  18.101   4.793 -0.1000  0.2205 -0.1300
 7048W        W23522  10.225   9.044  10.968  0.1321 -0.0819 -0.3144
 7049W        W23523   8.757   2.159   5.004  0.0010 -0.1069  0.0383
 7050W        W23524   4.035  15.433   3.761 -0.4858 -0.3084  0.1264
 7051W        W23525  12.296   1.187  14.485  0.0205 -0.2845  0.0462
 7052W        W23526  14.908   1.111   1.545  0.1012  0.0699 -0.4052
 7053W        W23527  14.274  10.732  11.337  0.0412 -0.1167 -0.2399
 7054W        W23528  16.354  16.056  16.300  0.2122 -0.2550  0.0969
 7055W        W23529   4.887  12.290  15.674  0.1795  0.0773 -0.1798
 7056W        W23530  14.200   8.453   3.149 -0.1352  0.0279 -0.2171
 7057W        W23531  14.896   2.667  13.891 -0.0510  0.2266 -0.0575
 7058W        W23532  16.904   8.876   0.873  0.1615  0.0081 -0.1906
 7059W        W23533  16.258  11.105  12.090  0.2295  0.0509 -0.0138
 7060W        W23534   5.447   3.822  13.811  0.1225 -0.0306  0.0396
 7061W        W23535  11.329  14.182  14.886  0.1754 -0.1026  0.0334
 7062W        W23536   0.193   3.393  12.643  0.0793  0.2448 -0.0214
 7063W        W23537   1.809  17.117  14.909 -0.0930 -0.1827  0.2144
 7064W        W23538   3.316   2.695  12.465  0.0601 -0.1491 -0.2176
 7065W        W23539  13.915   1.411   0.645  0.1626  0.0742 -0.2428
 7066W        W23540  10.114  10.194   3.505  0.1051 -0.1244 -0.1098
 7067W        W23541   8.013   5.654   5.703  0.0006 -0.0615 -0.0287
 7068W        W23542  17.473   1.737   2.123  0.0251  0.0384  0.0013
 7069W        W23543   9.574  13.158  11.200  0.0299  0.0986  0.2152
 7070W        W23544  17.655   8.868  15.122  0.0083 -0.0386  0.0013
 7071W        W23545   7.090   5.073  13.895 -0.1692  0.0676  0.0806
 7072W        W23546  13.320  17.925   3.068 -0.1980  0.2016  0.2048
 7073W        W23547   5.305   2.315  15.283 -0.0063  0.0543  0.1243
 7074W        W23548   6.985  10.792  15.329  0.0339  0.0878  0.3065
 7075W        W23549  15.877   7.636  12.317 -0.0690  0.1760 -0.0721
 7076W        W23550   9.833  13.726   1.444  0.1576 -0.1031  0.1978
 7077W        W23551   0.145  10.685   0.405  0.1282 -0.0161 -0.1111
 7078W        W23552   7.334  12.878   3.153 -0.1078 -0.0354 -0.0353
 7079W        W23553  10.948  16.433   3.699  0.3396 -0.2346  0.2151
 7080W        W23554   5.576   5.319   2.132  0.1644 -0.1071 -0.0658
 7081W        W23555   8.838   7.058  15.912  0.0772  0.0848 -0.1647
 7082W        W23556  16.681  17.828   3.354  0.1885 -0.0901 -0.1826
 7083W        W23557  11.091   8.133   0.051 -0.1188 -0.1589 -0.0370
 7084W        W23558  14.148  16.272   1.923  0.0850  0.2463 -0.0501
 7085W        W23559   6.633  13.365   0.367  0.0072 -0.0267  0.1184
 7086W        W23560   2.368   6.171   4.000 -0.1445  0.1118 -0.5152
 7087W        W23561   6.824  11.029  13.722 -0.1160  0.2794 -0.0031
 7088W        W23562  13.883   1.821  16.167  0.0192 -0.0893 -0.0270
 7089W        W23563  13.305   4.365  10.550  0.0661  0.2940 -0.0785
 7090W        W23564   4.830  11.088  16.016 -0.1649  0.0021 -0.2839
 7091W        W23565   3.699  11.561  16.342  0.0730  0.1949 -0.0681
 7092W        W23566   9.879   9.292  11.273  0.3060 -0.3190  0.1864
 7093W        W23567   1.228   8.222  11.572  0.1216  0.0641 -0.2861
 7094W        W23568  17.049  13.655   0.419 -0.1212 -0.0531 -0.1547
 7095W        W23569   3.561   5.889   4.470 -0.1932 -0.1509 -0.0207
 7096W        W23570  11.151  10.751   4.026 -0.3401 -0.0873 -0.3628
 7097W        W23571   9.704  16.970  11.998 -0.1461 -0.3062 -0.1662
 7098W        W23572   0.717  18.229  12.987 -0.0198 -0.0559  0.1267
 7099W        W23573   8.130   8.000   0.202  0.2423 -0.1530 -0.1572
 7100W        W23574   6.212  10.747   2.048 -0.1595 -0.1159  0.0585
 7101W        W23575  12.572   6.466   1.915  0.0030  0.2352  0.1401
 7102W        W23576   9.667  13.765  13.451 -0.1274  0.0399 -0.1250
 7103W        W23577   7.280  15.733  13.359  0.3737  0.1714  0.0143
 7104W        W23578   2.593   8.937   2.466 -0.0692 -0.1286 -0.3376
 7105W        W23579   7.923  13.501  12.959  0.0988 -0.2614  0.1048
 7106W        W23580   2.829  11.342   3.650 -0.4559 -0.0002  0.2145
 7107W        W23581   5.204   2.686   3.974  0.0769  0.2471 -0.0371
 7108W        W23582   1.758   1.921  13.078 -0.1712 -0.2612  0.1510
 7109W        W23583   3.446  10.169   2.233 -0.0253 -0.2786  0.0716
 7110W        W23584  17.981  12.430   1.226  0.1206 -0.0870  0.1978
 7111W        W23585   1.989   1.752  13.953 -0.0063 -0.1257  0.0324
 7112W        W23586   7.097   5.761   2.785 -0.1977  0.4765 -0.2786
 7113W        W23587   6.955   7.926   4.587  0.0564  0.0639 -0.3870
 7114W        W23588   1.006  15.626   2.965  0.4046  0.0541  0.2549
 7115W        W23589  12.563   0.833  15.211 -0.1457  0.0112 -0.2574
 7116W        W23590  15.401  10.190   2.561 -0.1581  0.0178 -0.1847
 7117W        W23591   6.756   9.981  12.100  0.3279 -0.4329 -0.1948
 7118W        W23592  10.396  12.475  11.344  0.0386 -0.0138 -0.1085
 7119W        W23593  16.253   6.742  13.828  0.0890  0.1386  0.3600
 7120W        W23594  11.695   3.858   3.452  0.1219 -0.1137  0.1073
 7121W        W23595   8.834   9.719   5.063  0.2031  0.4483  0.2272
 7122W        W23596   6.632  14.284   3.299  0.2278 -0.1380 -0.3733
 7123W        W23597   5.575  13.827   3.057  0.2691 -0.2167  0.1827
 7124W        W23598   8.843  15.845   2.421 -0.0938 -0.0304 -0.0179
 7125W        W23599   3.774   2.173   1.884  0.4431 -0.0602 -0.1342
 7126W        W23600   0.505  11.412   2.993 -0.0191 -0.0634  0.1471
 7127W        W23601   5.236  15.210  14.215  0.0406  0.0471 -0.3326
 7128W        W23602   7.191  13.671  12.375  0.2077  0.0465  0.2288
 7129W        W23603   2.415   3.511   0.246  0.2357  0.1493 -0.2474
 7130W        W23604  14.717   3.543   3.161  0.3958  0.1461 -0.0107
 7131W        W23605  17.536   2.638  14.410 -0.2512 -0.2128 -0.0620
 7132W        W23606  13.436  10.795  16.312 -0.0726 -0.0046 -0.2284
 7133W        W23607   9.286   0.573  14.243  0.0594  0.1479  0.3158
 7134W        W23608  10.839   6.734  11.033  0.2303  0.1245 -0.3603
 7135W        W23609   5.121  13.932   4.486  0.2439 -0.3731 -0.3235
 7136W        W23610   8.863   5.161  12.782 -0.1964 -0.1208 -0.0015
 7137W        W23611   1.432  16.790  13.056  0.0868 -0.1155 -0.2705
 7138W        W23612  12.498   7.438  13.315 -0.0648  0.1505 -0.1067
 7139W        W23613  15.111   4.312   4.092 -0.1435  0.2368  0.1321
 7140W        W23614  15.773  17.159   5.045 -0.1529  0.0233 -0.0716
 7141W        W23615  10.417   9.713  15.134  0.0438  0.1093 -0.0107
 7142W        W23616  12.434  13.409   4.110  0.1242 -0.1399 -0.1892
 7143W        W23617   2.987   9.419   3.192  0.0704 -0.0084 -0.0086
 7144W        W23618  10.813  15.368  12.421  0.0625 -0.1076  0.0517
 7145W        W23619  12.348   9.147   5.341 -0.0457 -0.1559  0.0310
 7146W        W23620   0.400   4.850  11.509 -0.2946 -0.2179  0.0691
 7147W        W23621   8.293  11.882  14.266 -0.0954  0.2072 -0.1540
 7148W        W23622   2.706   7.004   3.663 -0.1077  0.1474  0.1512
 7149W        W23623   2.935  13.497  14.375  0.0872 -0.0082  0.2751
 7150W        W23624   2.242  17.035  12.908 -0.0188  0.0783 -0.0634
 7151W        W23625   5.536  10.069  14.879  0.1858 -0.1313 -0.2138
 7152W        W23626   3.951   6.821   4.717  0.3768 -0.2913  0.0105
 7153W        W23627   3.941  11.210   4.612  0.0190  0.1776 -0.1140
 7154W        W23628  16.034  17.321   0.098  0.1856 -0.1702 -0.2131
 7155W        W23629   0.262   2.475   4.272  0.0088  0.0504 -0.0539
 7156W        W23630  10.539   1.409   2.431  0.0806  0.0845 -0.2095
 7157W        W23631   0.593   1.948   1.426  0.0700  0.2155  0.0910
 7158W        W23632   3.380  17.864   4.228 -0.0360  0.2199 -0.0239
 7159W        W23633   4.203  14.478   1.437 -0.0137  0.2105  0.0333
 7160W        W23634   1.152  18.102   5.113  0.0016 -0.3086  0.2082
 7161W        W23635   2.885  18.153   5.797  0.0294 -0.1860 -0.0398
 7162W        W23636  10.442  12.743   5.240 -0.1757 -0.1647  0.2814
 7163W        W23637  17.453  11.782  12.279 -0.2373  0.2219  0.4374
 7164W        W23638   4.832  12.018   2.236 -0.2109  0.4093  0.1289
 7165W        W23639   1.490  16.172  12.894 -0.2430  0.1306 -0.3265
 7166W        W23640  17.480  16.927  13.404 -0.0678  0.0974 -0.1583
 7167W        W23641  12.090  12.001  14.502 -0.0999 -0.0164 -0.2008
 7168W        W23642   5.530  17.900   0.169 -0.1391  0.0212 -0.3218
 7169W        W23643  10.199  16.623   0.471 -0.1658 -0.0285  0.0022
 7170W        W23644   5.273   6.181   1.567 -0.2164 -0.1262  0.2409
 7171W        W23645  12.674   7.357   1.719 -0.1755 -0.2457 -0.2184
 7172W        W23646   0.210  13.808   4.384 -0.0539 -0.0739 -0.0369
 7173W        W23647   2.873   2.507   3.506 -0.0344  0.0727 -0.1392
 7174W        W23648  10.272   9.032   1.831  0.2670  0.1435  0.0014
 7175W        W23649  12.636  11.719  16.158  0.3373  0.0809 -0.0698
 7176W        W23650  15.327   7.184   3.677  0.1200  0.0201  0.3204
 7177W        W23651   8.587   2.649  13.766  0.0494  0.2742 -0.2563
 7178W        W23652  13.525  17.605  12.206  0.0203 -0.2726  0.2140
 7179W        W23653  15.293  15.754   2.379 -0.2592  0.1938 -0.0130
 7180W        W23654  11.065   2.082  12.488  0.1575 -0.2325  0.0838
 7181W        W23655  13.570  10.473   2.105 -0.2121 -0.1254  0.2026
 7182W        W23656   3.211   0.667  15.995  0.0626 -0.2875  0.1604
 7183W        W23657   4.961  18.347  15.809  0.0694 -0.1351 -0.0973
 7184W        W23658  14.288   9.848   3.348 -0.2158 -0.1784 -0.0218
 7185W        W23659  11.994  12.730   0.358  0.2392 -0.2285 -0.1598
 7186W        W23660  11.805   3.298   3.570 -0.1249  0.0169  0.0622
 7187W        W23661   8.668  15.951  14.683 -0.1885 -0.2222 -0.0051
 7188W        W23662   2.428  13.029   6.233  0.0409 -0.0280 -0.0783
 7189W        W23663   0.457   8.523  12.221  0.1904  0.1668 -0.0027
 7190W        W23664   5.128   5.523  12.854  0.1370 -0.1149  0.0684
 7191W        W23665   6.073  17.086  16.303  0.1564 -0.0188 -0.3087
 7192W        W23666   7.986   9.601  14.081  0.0258  0.1373  0.3317
 7193W        W23667  12.736   2.427  13.364 -0.0237  0.1649  0.0356
 7194W        W23668  11.056   5.529  10.306  0.2793  0.2991 -0.1519
 7195W        W23669  13.628   4.683  13.646 -0.1960  0.0803  0.0183
 7196W        W23670   2.730   6.225  11.812  0.0120 -0.2416  0.0242
 7197W        W23671   2.327   6.184  14.280 -0.0237  0.4777  0.1036
 7198W        W23672  14.674  17.713  11.799  0.2299 -0.2054 -0.1971
 7199W        W23673  13.286  18.014  12.424  0.1765  0.0457 -0.0501
 7200W        W23674   6.075   7.072   4.369 -0.0319 -0.3787 -0.0572
 7201W        W23675   6.464  11.890  15.595  0.0752  0.1261 -0.0905
 7202W        W23676   0.808  14.322  12.678 -0.0347  0.1720 -0.0845
 7203W        W23677  14.042  14.667   0.131  0.3667  0.0841 -0.0076
 7204W        W23678  12.081   7.174  11.722  0.0268 -0.0151 -0.2230
 7205W        W23679  11.625  11.042  11.965 -0.1746  0.1619  0.2111
 7206W        W23680  14.078  12.456   2.881  0.2822  0.1624  0.0018
 7207W        W23681   2.901   8.026   0.318 -0.2589  0.0416  0.0573
 7208W        W23682   7.093  16.355  12.856  0.0891  0.2091  0.1178
 7209W        W23683   8.804   4.608   2.308  0.0162  0.1325  0.0677
 7210W        W23684   5.312  11.135  14.652  0.2519  0.1098 -0.0059
 7211W        W23685   6.988   2.217   1.096  0.1674  0.1196  0.1435
 7212W        W23686   4.627  10.556   0.761 -0.0272  0.1907 -0.1180
 7213W        W23687  14.668   1.034  11.639  0.1186  0.1058  0.4628
 7214W        W23688   8.679   9.789   2.887 -0.0265 -0.0695  0.1367
 7215W        W23689  12.734   6.454  11.593 -0.0834 -0.1992 -0.1393
 7216W        W23690   9.441   5.902   3.140 -0.2211 -0.0449 -0.2273
 7217W        W23691  12.106   8.818  12.279  0.0776  0.0077  0.0694
 7218W        W23692   8.152  16.216   1.608  0.1611  0.2949 -0.2128
 7219W        W23693   2.198  13.910   3.545  0.3123 -0.0545 -0.3535
 7220W        W23694   2.096   5.830  13.617  0.4818 -0.0580 -0.1046
 7221W        W23695   3.283  18.248  13.583 -0.1862  0.1499  0.1287
 7222W        W23696  13.783   1.842  12.231 -0.1152  0.2888 -0.3685
 7223W        W23697   9.669   7.099   4.467  0.0704 -0.1594  0.0450
 7224W        W23698  14.036  16.471  13.116 -0.2113  0.1656 -0.2010
 7225W        W23699   8.647   8.157  14.885 -0.5251  0.0156  0.0670
 7226W        W23700  11.599  17.898  12.770 -0.0585 -0.1238  0.2868
 7227W        W23701  10.041   5.502   2.520 -0.0336  0.1949 -0.0427
 7228W        W23702   2.431   8.948  14.907 -0.2547  0.3207 -0.1466
 7229W        W23703   7.992  15.445   6.086  0.0257  0.1596  0.2882
 7230W        W23704   6.881   4.642   4.591 -0.1405  0.0239 -0.2209
 7231W        W23705   6.944  15.059   0.856  0.1719  0.0789 -0.0862
 7232W        W23706  10.519  10.668   4.429 -0.1727  0.0571 -0.2817
 7233W        W23707   5.844  10.066   1.723 -0.0351 -0.1180 -0.1911
 7234W        W23708  12.280   5.315  12.949 -0.0973 -0.0415 -0.0181
 7235W        W23709  14.590   7.567   3.155 -0.0566  0.2336 -0.2283
 7236W        W23710   6.194  17.991  12.695  0.3663 -0.0048 -0.1055
 7237W        W23711  16.251  16.605   5.613 -0.1342 -0.0302  0.2600
 7238W        W23712  17.353  12.238  14.664  0.0673  0.0700 -0.2900
 7239W        W23713   6.984   9.781  15.728 -0.1135 -0.0253 -0.0824
 7240W        W23714  17.497  15.896  13.312 -0.1461  0.2113  0.0051
 7241W        W23715  14.966   8.771   4.433  0.1093 -0.2150 -0.1089
 7242W        W23716  15.817   0.129  13.372  0.3466 -0.1547  0.0678
 7243W        W23717  16.637  15.968   5.161  0.1108 -0.1135  0.2740
 7244W        W23718   9.425  17.794  13.898 -0.0982 -0.1632  0.1730
 7245W        W23719   3.970   2.359   1.321 -0.1368  0.2450  0.1500
 7246W        W23720  15.276  11.396   3.179  0.1741 -0.0780 -0.2074
 7247W        W23721   5.231  12.019  12.235  0.1610 -0.1105  0.2921
 7248W        W23722  13.492   8.213  13.076  0.0815  0.1571  0.0857
 7249W        W23723   4.471  12.859   3.689 -0.1800  0.2110 -0.0287
 7250W        W23724   6.195  17.025   2.181 -0.2237 -0.2378  0.0235
 7251W        W23725  17.890   9.844   4.973  0.0129 -0.1374 -0.0173
 7252W        W23726   7.405   9.754   3.349 -0.1368  0.0223  0.2245
 7253W        W23727   4.811   4.415  15.730 -0.2225  0.0562  0.0207
 7254W        W23728  16.505   4.160  14.146  0.3381 -0.1191  0.1206
 7255W        W23729  18.229   6.876  14.989  0.1459 -0.0463  0.0144
 7256W        W23730  17.792   8.052   3.990 -0.1998  0.2782  0.0654
 7257W        W23731   8.982   0.960  13.925 -0.2145 -0.1930  0.0650
 7258W        W23732  15.594   4.419  11.480  0.0723 -0.2783  0.1949
 7259W        W23733   6.557  10.507   4.277  0.0661 -0.1658 -0.1479
 7260W        W23734  10.877   8.672   2.529 -0.0117  0.2834 -0.1046
 7261W        W23735   0.714  10.410   5.108 -0.3626  0.1846  0.0848
 7262W        W23736   6.081  10.603   4.519  0.0908 -0.1993  0.2139
 7263W        W23737  13.917   8.962   4.542 -0.1691 -0.0316  0.2911
 7264W        W23738   6.734  14.948  14.437 -0.3568 -0.0543  0.1403
 7265W        W23739   6.228  13.616  13.097 -0.0793 -0.2278  0.2596
 7266W        W23740  11.392   3.534  15.481  0.1299  0.2234 -0.0726
 7267W        W23741  16.592  12.668   0.291 -0.1124  0.0360 -0.3976
 7268W        W23742   8.380   0.066   1.948  0.2028  0.2149  0.1178
 7269W        W23743   6.881   3.952  15.150 -0.0333  0.0240 -0.1270
 7270W        W23744   6.025   1.242   3.262 -0.0786  0.3050  0.2267
 7271W        W23745  16.058  16.768   3.902 -0.1068  0.3572  0.1998
 7272W        W23746   5.500   1.801  15.354 -0.1604  0.1600 -0.2452
 7273W        W23747   6.365  14.771   0.516 -0.0035 -0.0302  0.1141
 7274W        W23748  14.976   4.798   5.392  0.0518 -0.1698  0.0229
 7275W        W23749  16.080   7.590  14.959 -0.0013 -0.4608 -0.1615
 7276W        W23750   7.236  17.196  12.595 -0.1653  0.1565  0.3431
 7277W        W23751  16.676   7.296   1.523  0.0285  0.2686  0.1494
 7278W        W23752   4.170   4.793  11.985 -0.1853 -0.1401 -0.0845
 7279W        W23753  12.059   5.841  15.775  0.1419  0.1212 -0.0396
 7280W        W23754  14.837   7.143   3.509  0.1497 -0.1911 -0.1210
 7281W        W23755   0.034   3.119   0.142 -0.3605 -0.1587 -0.0235
 7282W        W23756  16.278  12.658  15.084  0.3881  0.0223  0.3200
 7283W        W23757  12.856   6.699  12.686  0.1519 -0.0429 -0.2179
 7284W        W23758  11.081  11.370   3.082  0.2624  0.0575 -0.1069
 7285W        W23759   0.672   9.206   2.677  0.3388 -0.0501 -0.0379
 7286W        W23760   7.554  14.020  16.237  0.1458 -0.1777  0.2023
 7287W        W23761   4.701  11.716  15.681  0.0013 -0.4940  0.4355
 7288W        W23762   5.804  11.387  12.038 -0.1357  0.0023  0.2769
 7289W        W23763  13.953   5.972   4.701  0.0554  0.0069 -0.2920
 7290W        W23764   4.121   4.277   2.762 -0.0404 -0.1040 -0.1527
 7291W        W23765   8.901   9.197  10.949 -0.2875 -0.2477 -0.1097
 7292W        W23766   5.858   9.836  13.963 -0.2399  0.3162  0.0142
 7293W        W23767  11.702   6.592   3.496  0.0726  0.3181 -0.0820
 7294W        W23768  11.790   5.144  10.941  0.0354  0.1111 -0.3388
 7295W        W23769  15.720   5.539  14.183  0.2517  0.1628  0.0324
 7296W        W23770  14.140   9.573   1.921  0.1608  0.2758  0.0745
 7297W        W23771  15.612  16.513  12.139 -0.1580  0.2718  0.0539
 7298W        W23772   7.647  11.631  16.120 -0.0399 -0.0366  0.3622
 7299W        W23773   4.547   2.609   2.174  0.2499 -0.0769  0.0864
 7300W        W23774   6.120   8.304  13.723  0.0261 -0.3209 -0.1627
 7301W        W23775   4.784   3.736   4.312  0.0263  0.1373 -0.0644
 7302W        W23776  13.980  12.833  13.825  0.0588 -0.4855 -0.0876
 7303W        W23777  17.252   5.529  15.993  0.3135 -0.1129  0.0796
 7304W        W23778  16.564   5.878  13.887 -0.3850 -0.3495  0.0056
 7305W        W23779  12.073   1.195  11.729 -0.3712  0.0834  0.3229
 7306W        W23780  16.865  18.080   1.021  0.1573 -0.2191 -0.4800
 7307W        W23781   4.428   6.761  15.161  0.0739 -0.2015  0.1817
 7308W        W23782   6.848  12.953   0.120 -0.3298  0.1702  0.2764
 7309W        W23783  17.141   0.196  14.175  0.0522  0.3030 -0.0608
 7310W        W23784   1.591   5.666   5.194 -0.2535 -0.1071  0.0692
 7311W        W23785   1.408  13.346   3.342  0.2590 -0.0586  0.0823
 7312W        W23786  12.008   9.401   0.055  0.1163 -0.1217  0.1411
 7313W        W23787  16.288  13.852   2.496  0.0357 -0.1799 -0.0736
 7314W        W23788   1.909  12.883  11.372 -0.0160 -0.0903  0.1747
 7315W        W23789  16.656  16.541   3.270 -0.2462 -0.0797 -0.1333
 7316W        W23790   9.970   1.019  15.021  0.0033 -0.0747 -0.2142
 7317W        W23791   4.739   2.004  16.138 -0.1242 -0.0082  0.1958
 7318W        W23792   2.605   3.247   3.984 -0.1849 -0.0290  0.1105
 7319W        W23793  17.580  15.139  15.549  0.2418 -0.2067 -0.1089
 7320W        W23794  11.773   2.601  16.086  0.0210 -0.0257 -0.1063
 7321W        W23795  15.018  11.807  10.868  0.0974  0.1896  0.1234
 7322W        W23796   3.417   4.649  13.915 -0.1131  0.0001 -0.1927
 7323W        W23797  17.100   0.911  14.281  0.0563 -0.2728  0.1138
 7324W        W23798   7.411   5.565   0.202  0.1072 -0.0246  0.3865
 7325W        W23799  12.508   7.121   0.891  0.1158  0.0872  0.3020
 7326W        W23800   9.986  17.798  15.948 -0.0054  0.2752 -0.0313
 7327W        W23801   1.711   5.558  12.062 -0.1566 -0.0317 -0.0160
 7328W        W23802   8.264   0.713   5.454 -0.0232 -0.1916  0.2772
 7329W        W23803   1.779   6.311   0.143 -0.0202  0.2892  0.1096
 7330W        W23804   5.867  10.357  16.226  0.0749  0.0261  0.3447
 7331W        W23805  11.542  17.831   3.993 -0.1184 -0.0186  0.0814
 7332W        W23806  18.094   4.886   1.552 -0.1986 -0.2276 -0.3060
 7333W        W23807  10.114  17.697  12.250 -0.3866  0.3158  0.1693
 7334W        W23808  16.298  13.177   5.475 -0.0437  0.0082 -0.2810
 7335W        W23809   6.085   2.074  14.853  0.1881 -0.0796 -0.1075
 7336W        W23810  15.576  12.841   2.541  0.1302  0.0277 -0.1358
 7337W        W23811   6.956  11.117   0.662  0.2483 -0.1427 -0.1717
 7338W        W23812  14.767   4.673   3.953  0.3794  0.2837 -0.3407
 7339W        W23813  10.904   7.716  13.842  0.2586  0.0910  0.1578
 7340W        W23814   4.444   7.626   0.039  0.0262  0.0073 -0.3643
 7341W        W23815  13.928  13.713  12.856 -0.0834 -0.2737 -0.1479
 7342W        W23816  11.101   7.535   3.984 -0.2437  0.2109  0.0467
 7343W        W23817   1.736   6.488   2.889 -0.4651 -0.2963  0.0378
 7344W        W23818  17.298   4.121  12.157 -0.0800  0.2095  0.2827
 7345W        W23819   2.145   2.304   4.133 -0.1385 -0.2578 -0.1058
 7346W        W23820   9.754  11.716  14.277 -0.0368 -0.0326 -0.0941
 7347W        W23821   1.557   9.774  15.550 -0.1337  0.1637  0.0766
 7348W        W23822   7.695   3.508   1.065 -0.2234  0.0473 -0.0753
 7349W        W23823   0.855   9.814  12.928 -0.0064 -0.0822 -0.2027
 7350W        W23824   5.791  15.600  12.079  0.1531 -0.1533 -0.0063
 7351W        W23825  13.488   0.011  16.094 -0.0289 -0.0639  0.1216
 7352W        W23826   9.970   0.413   2.318  0.0567 -0.1203 -0.2838
 7353W        W23827   7.684  12.575  14.818  0.3634 -0.1442 -0.1363
 7354W        W23828   5.667   4.666  15.605  0.1162 -0.0433 -0.1896
 7355W        W23829   9.279   3.609  15.135 -0.0898  0.2462  0.0533
 7356W        W23830   8.717  17.536   4.070 -0.1737  0.0937  0.0190
 7357W        W23831   7.748   5.649   2.318  0.2151 -0.0215 -0.2476
 7358W        W23832  18.153   2.048  15.029 -0.2451 -0.2336  0.3588
 7359W        W23833   3.299   3.282  13.618  0.0294 -0.1459 -0.0196
 7360W        W23834  12.437  15.281   2.091 -0.3235 -0.2948  0.0013
 7361W        W23835   3.221  10.039  13.404  0.0987 -0.1476  0.1013
 7362W        W23836   4.321   3.112  11.783 -0.1198 -0.0130 -0.2791
 7363W        W23837   1.997  16.238  15.145  0.1684  0.0732  0.3696
 7364W        W23838  10.982  14.003   1.233 -0.1681  0.0215  0.1332
 7365W        W23839   4.943  12.970  14.105 -0.0890  0.0357  0.2194
 7366W        W23840   7.347   0.110   0.685 -0.0591  0.4289  0.4267
 7367W        W23841  14.360  14.710  13.016 -0.0308 -0.0096 -0.6708
 7368W        W23842   6.519   3.137  14.076  0.2848  0.2386  0.0046
 7369W        W23843  12.468   7.984   2.829  0.3023  0.0103 -0.1232
 7370W        W23844  14.916  17.567   1.447  0.1284  0.0658 -0.0398
 7371W        W23845   5.472   7.128   5.495  0.4428 -0.1089 -0.2952
 7372W        W23846   2.968   2.064  15.779 -0.1213 -0.0512  0.1012
 7373W        W23847  12.128  15.324  12.186 -0.1524  0.1100  0.2549
 7374W        W23848  17.959   6.824   0.730  0.0572 -0.1575 -0.0756
 7375W        W23849  16.225  14.708  11.667 -0.1733  0.0591 -0.3754
 7376W        W23850  14.155  13.271  15.514 -0.0619  0.2805  0.2469
 7377W        W23851  10.974   0.180  15.619 -0.2054  0.0062 -0.3888
 7378W        W23852  15.927   0.645  13.408 -0.2392  0.0603  0.2242
 7379W        W23853  13.796  11.650   0.616  0.1302 -0.0377 -0.0512
 7380W        W23854  16.471  12.848  12.828  0.0021 -0.0404 -0.0582
 7381W        W23855   5.589  16.940  15.663 -0.1070 -0.2534  0.2312
 7382W        W23856   9.802  17.353   3.738 -0.3243  0.1703  0.1919
 7383W        W23857   1.628   3.683  12.902 -0.2315  0.1664 -0.0489
 7384W        W23858   0.682   1.534   2.801 -0.3775 -0.0328  0.2635
 7385W        W23859  13.797  12.034  13.496  0.2800  0.0687  0.0337
 7386W        W23860  16.674   1.544   2.245 -0.2846  0.2809  0.2133
 7387W        W23861   3.042  17.259  13.891 -0.0921  0.0190  0.1234
 7388W        W23862   4.938   1.978  15.328  0.4236 -0.2531 -0.1033
 7389W        W23863   4.937  10.586  16.100  0.0836 -0.3235 -0.2672
 7390W        W23864   0.075   3.413   4.052 -0.1320 -0.2139 -0.2168
 7391W        W23865  12.455   7.559   0.625  0.1755  0.2350 -0.0465
 7392W        W23866   2.059   8.073  11.042  0.0485 -0.2271  0.1179
 7393W        W23867  13.857  18.315   0.990  0.2923  0.1100 -0.0568
 7394W        W23868   6.645   0.729  14.479 -0.1673 -0.1049  0.2275
 7395W        W23869  13.604   5.259  10.777  0.1709 -0.1308  0.0335
 7396W        W23870   2.538   2.571   4.088 -0.0034  0.1198  0.1647
 7397W        W23871  10.070   1.730  16.074 -0.3103  0.2577  0.0606
 7398W        W23872   4.017   9.187  12.952 -0.1286  0.2753 -0.3409
 7399W        W23873  14.815  15.290   2.004 -0.1246  0.1601  0.2186
 7400W        W23874  15.399   0.025   1.407 -0.0601  0.1226  0.1683
 7401W        W23875  11.156  15.057   4.449 -0.1942  0.0823  0.0800
 7402W        W23876   8.360   0.362   2.949  0.0363 -0.1207  0.0860
 7403W        W23877  13.907   2.871  12.476 -0.0950 -0.1113  0.1146
 7404W        W23878   7.994   9.458   4.717  0.1015  0.3767 -0.0676
 7405W        W23879  10.811  11.277  12.723  0.0519  0.0212  0.0488
 7406W        W23880   8.952  15.149  15.588  0.0786 -0.5489 -0.0568
 7407W        W23881   0.867  18.191  14.038 -0.1327 -0.0991 -0.1027
 7408W        W23882   4.527  12.337  12.879 -0.1980  0.1432  0.0434
 7409W        W23883  12.699   9.755  16.334  0.1434  0.1861  0.1191
 7410W        W23884  10.186  11.918  14.433 -0.1086  0.0273  0.3120
 7411W        W23885   6.055   7.274   3.336 -0.1803 -0.1744 -0.1967
 7412W        W23886   2.800   6.067  13.283  0.2311 -0.0403 -0.1822
 7413W        W23887  14.083   8.870   4.030  0.1439  0.4225  0.2772
 7414W        W23888  16.888   7.248  10.583 -0.0174  0.0444 -0.1227
 7415W        W23889  16.562   5.232   0.270  0.0140 -0.1409  0.1930
 7416W        W23890   7.465   6.019  15.001  0.0207 -0.1235 -0.0888
 7417W        W23891  10.685  17.435  12.150 -0.3127 -0.0084 -0.1495
 7418W        W23892   8.553   4.386  11.770  0.1992  0.2072  0.1126
 7419W        W23893  14.425  12.855   1.416 -0.0417 -0.2201 -0.0644
 7420W        W23894   2.232  17.609  12.717  0.0509 -0.0363  0.3857
 7421W        W23895   2.623   4.980   0.455  0.0184  0.1623  0.0411
 7422W        W23896   6.531  12.789   1.456 -0.0810 -0.1210  0.3068
 7423W        W23897  10.332   4.377   3.125 -0.2251  0.3055 -0.1214
 7424W        W23898  10.489   2.809   0.094  0.0835  0.1463  0.0064
 7425W        W23899  12.466  11.747   2.967  0.0009  0.2692 -0.0162
 7426W        W23900  11.265   8.176   1.838 -0.1960 -0.1577  0.3259
 7427W        W23901  15.431   5.915   2.543 -0.1505 -0.0032 -0.2179
 7428W        W23902  10.218   8.547  11.163 -0.0535 -0.0154 -0.2245
 7429W        W23903  15.713  15.621  11.826  0.1752 -0.1831 -0.1887
 7430W        W23904  17.156  11.167   3.927 -0.0413  0.1054 -0.0799
 7431W        W23905   1.441  10.360   4.533  0.1030  0.3644 -0.2131
 7432W        W23906  11.728   1.946   2.976 -0.0780 -0.1465 -0.0436
 7433W        W23907   5.592   3.722   6.551  0.1182  0.0896 -0.3711
 7434W        W23908  17.241   2.659   4.648 -0.4674  0.2254  0.0175
 7435W        W23909   8.898  13.584   5.342 -0.1937  0.1535 -0.1469
 7436W        W23910  11.755   3.742  12.179  0.2575  0.0365 -0.0324
 7437W        W23911   0.603   0.049   5.644  0.0671 -0.1097 -0.0046
 7438W        W23912  11.354   3.532   3.330  0.0873  0.2965  0.1893
 7439W        W23913  14.746  13.774   4.315 -0.2259  0.1491 -0.1133
 7440W        W23914   9.806   4.837  10.912  0.0062  0.1221 -0.0072
 7441W        W23915   9.260   5.790  15.170  0.0408 -0.0751 -0.2148
 7442W        W23916   8.363  17.295  13.085  0.2053  0.1650 -0.3090
 7443W        W23917  11.037  15.458  15.686 -0.2729 -0.2066  0.2002
 7444W        W23918  16.576  17.943  15.455 -0.0861 -0.1573 -0.1797
 7445W        W23919  13.721  10.974  13.469  0.0830 -0.2528  0.0203
 7446W        W23920   0.464  16.125   3.807 -0.0568  0.1808  0.0801
 7447W        W23921   0.542  11.054   0.458  0.0427  0.0282 -0.0030
 7448W        W23922   5.340   9.142  16.045  0.0304 -0.2400  0.0534
 7449W        W23923   6.929   6.429   4.680  0.0815 -0.1353  0.1551
 7450W        W23924   7.485   4.247  11.364  0.0406 -0.0741 -0.0572
 7451W        W23925  18.124  10.227  10.623 -0.2303  0.1022  0.1057
 7452W        W23926   9.699   6.931   3.968  0.2477 -0.0303 -0.0806
 7453W        W23927  15.441   1.112   2.704 -0.0843  0.3349  0.1471
 7454W        W23928  18.081   9.265   3.018  0.1631 -0.2799  0.1742
 7455W        W23929  15.273  14.830   1.879  0.2564 -0.0434  0.0607
 7456W        W23930   4.279   6.997  11.368  0.1445 -0.2693 -0.1963
 7457W        W23931  17.582   3.478  15.320 -0.1455 -0.0422  0.1063
 7458W        W23932   5.751   1.236   1.707  0.0800 -0.2511 -0.1244
 7459W        W23933   2.898  13.051  14.811 -0.0515 -0.3912  0.1720
 7460W        W23934   9.100   0.824   3.853 -0.1782  0.0472 -0.0694
 7461W        W23935   0.134   2.273  13.562 -0.0801  0.1697 -0.1476
 7462W        W23936   6.266   1.284   5.180 -0.0197 -0.1338 -0.4727
 7463W        W23937   5.207  17.761   2.969  0.0586 -0.0512 -0.1837
 7464W        W23938  11.765  16.319   1.763  0.0716  0.0597  0.1998
 7465W        W23939  10.869   6.195   2.379 -0.1977  0.4010 -0.1219
 7466W        W23940   8.962  17.290   2.118  0.1757  0.0340 -0.1533
 7467W        W23941   4.247   2.021   1.057 -0.2980  0.1042  0.2170
 7468W        W23942  12.598   8.602   0.163 -0.0458 -0.1355 -0.2424
 7469W        W23943  14.628  11.201  15.391  0.2914 -0.2298  0.1544
 7470W        W23944   0.974   1.372  15.028 -0.2820  0.0008  0.4985
 7471W        W23945   9.889   9.210  14.385  0.1718 -0.1325 -0.2063
 7472W        W23946   3.842  14.327   1.066 -0.0053  0.3209 -0.1479
 7473W        W23947  17.894  15.498  14.608 -0.1750  0.2271 -0.1650
 7474W        W23948  13.566   9.961  15.877 -0.1200  0.0023  0.0300
 7475W        W23949   3.080  10.845   3.082 -0.4952  0.2123  0.0748
 7476W        W23950   3.242   5.381  14.822  0.2306 -0.0530  0.0464
 7477W        W23951  10.462   5.503   2.180 -0.1094  0.1487 -0.0540
 7478W        W23952   0.082   2.975  14.283 -0.1457 -0.0084 -0.1659
 7479W        W23953  14.920   6.362   3.082  0.0410 -0.1909  0.0112
 7480W        W23954  16.728  13.617   4.717 -0.1058  0.0593 -0.2527
 7481W        W23955  17.881  14.931   5.176  0.0713  0.2872 -0.0442
 7482W        W23956  13.088  13.694  14.559  0.0335 -0.1139  0.1946
 7483W        W23957  18.344   5.620   2.180 -0.1786  0.1071  0.0954
 7484W        W23958   5.204  13.231   2.011  0.0669 -0.0795 -0.0865
 7485W        W23959   2.474   9.835  15.065  0.1947  0.5220 -0.2240
 7486W        W23960   2.692   7.704   2.643 -0.2378  0.2478 -0.0724
 7487W        W23961  14.406   3.413  10.786 -0.3798  0.0457  0.1372
 7488W        W23962   1.545   7.726   4.811  0.1540  0.2577  0.1544
 7489W        W23963   6.708   4.592  13.167 -0.4892 -0.4224 -0.2039
 7490W        W23964   6.195   8.977   3.550 -0.0067  0.1099 -0.0171
 7491W        W23965   5.018  11.979  14.908 -0.1657  0.1131  0.0297
 7492W        W23966  13.380   9.515  15.692  0.2321 -0.0338 -0.0169
 7493W        W23967  12.358  18.208  15.138 -0.0505 -0.0753 -0.0120
 7494W        W23968   5.744   4.292   3.233 -0.2308  0.0508 -0.0837
 7495W        W23969  17.049  16.815   4.978 -0.0713  0.1580 -0.1043
 7496W        W23970  15.461   9.455  13.082  0.0337 -0.1772  0.1383
 7497W        W23971   5.216  14.837   4.367  0.1734 -0.1191 -0.1149
 7498W        W23972  11.586  16.207  15.560  0.3028  0.1246 -0.0543
 7499W        W23973   4.877   0.147  13.950  0.2197 -0.0250  0.3936
 7500W        W23974   9.157  10.501   4.153  0.1929  0.1739  0.1008
 7501W        W23975   9.093   9.076  11.429  0.3784  0.1424 -0.1827
 7502W        W23976   0.088  14.787  12.375 -0.0045  0.0689 -0.0434
 7503W        W23977   5.887   0.710   5.999 -0.3263  0.0183 -0.1062
 7504W        W23978   0.371  12.205   3.651  0.0689  0.6800 -0.0054
 7505W        W23979  10.264  16.833   2.779 -0.1916 -0.1039  0.0722
 7506W        W23980  11.923  11.335   5.270  0.0546  0.0057 -0.0762
 7507W        W23981  18.328   2.429  14.631 -0.1657  0.0321 -0.0621
 7508W        W23982   9.141  15.744  13.628 -0.0698 -0.2333 -0.1374
 7509W        W23983   8.517   6.335  15.169 -0.2688 -0.1892 -0.1407
 7510W        W23984   5.200  16.849  14.219  0.0274 -0.1497 -0.1411
 7511W        W23985   0.114  10.950   3.316 -0.0075 -0.1853  0.1530
 7512W        W23986   2.084   4.210   2.768  0.0983  0.2020  0.0931
 7513W        W23987  11.681   1.075   3.428 -0.0144  0.0610 -0.2026
 7514W        W23988  15.575  14.825  12.405 -0.0068 -0.2838 -0.0294
 7515W        W23989  14.231  11.147   4.780  0.0823  0.1736  0.2247
 7516W        W23990  13.369   2.099  11.641 -0.1324 -0.2217 -0.2704
 7517W        W23991   7.830  13.364   5.406  0.1185  0.1606  0.3252
 7518W        W23992  16.233  17.738   2.409 -0.2358 -0.0382 -0.0834
 7519W        W23993  14.625   3.081   4.258 -0.2206 -0.0276 -0.2445
 7520W        W23994  15.358  16.164  11.867 -0.0194  0.0325  0.1264
 7521W        W23995  15.931   2.445  14.626 -0.3910 -0.0235 -0.0056
 7522W        W23996  15.417   0.506  16.252 -0.3165 -0.0674  0.1044
 7523W        W23997   0.098   0.614   4.861  0.1144 -0.2088  0.0929
 7524W        W23998  11.583   1.347  16.175  0.3880  0.0784  0.0516
 7525W        W23999   3.904  15.514  12.437 -0.1531  0.1817  0.0613
 7526W        W24000   3.969  17.697  13.952 -0.0474 -0.0010  0.1624
 7527W        W24001  16.457  16.185  15.234 -0.0488 -0.1139  0.2330
 7528W        W24002   9.650   8.091  11.338 -0.1784 -0.2518  0.0938
 7529W        W24003  15.272   7.394  13.510  0.0848  0.1220  0.2088
 7530W        W24004   9.154  10.683  12.959 -0.0472 -0.0744  0.2528
 7531W        W24005  14.804  14.695   4.677  0.2797  0.3407 -0.1156
 7532W        W24006  17.825   6.605  13.263 -0.1430 -0.3107  0.0095
 7533W        W24007  14.425  16.310  16.044  0.0021 -0.1627 -0.0509
 7534W        W24008   9.386  15.038  12.935 -0.0697 -0.1386 -0.1577
 7535W        W24009  12.083   9.522  14.210 -0.0274  0.0189 -0.3341
 7536W        W24010   9.064  11.980   4.282  0.0975 -0.0694 -0.2594
 7537W        W24011   3.019   6.535   4.625 -0.5155 -0.2492 -0.2950
 7538W        W24012  13.923   5.103   4.298 -0.1132  0.1863  0.2253
 7539W        W24013   3.662   8.935   0.916 -0.4694 -0.1586  0.1061
 7540W        W24014  17.309   8.411  13.745 -0.5848  0.0354 -0.0456
 7541W        W24015  14.399   0.112   1.004 -0.2196  0.0971 -0.0553
 7542W        W24016   2.758  12.365   0.269 -0.0021  0.0508  0.0570
 7543W        W24017   5.345   7.791  14.976 -0.0561 -0.1455 -0.1877
 7544W        W24018   5.184   4.964   4.424  0.4570  0.2719  0.1306
 7545W        W24019  11.308   1.729   0.086 -0.2509  0.0712 -0.2232
 7546W        W24020  11.061   6.280  11.234  0.2932  0.4138  0.1708
 7547W        W24021  15.714   6.095  14.306  0.1804  0.2892  0.1459
 7548W        W24022   9.207   0.548  12.951 -0.1155 -0.2136 -0.0848
 7549W        W24023  10.662   3.541  16.257  0.2116 -0.0796  0.0369
 7550W        W24024   8.903  15.699  15.473  0.1371 -0.4009 -0.2020
 7551W        W24025  16.368  14.775  14.132  0.0958 -0.3351  0.0800
 7552W        W24026   7.675   0.847   4.299  0.1989  0.1196  0.0116
 7553W        W24027   3.462  11.897  13.218  0.1319  0.0191 -0.2735
 7554W        W24028  12.665  14.169   4.295 -0.4950 -0.2040 -0.1849
 7555W        W24029  12.500   3.945   1.381 -0.3993 -0.0323 -0.0940
 7556W        W24030   3.296   7.502   2.032  0.0175 -0.0109 -0.0651
 7557W        W24031  11.047   8.099   9.903 -0.1844 -0.2261 -0.1206
 7558W        W24032  18.165  17.370   2.720 -0.2531 -0.1715 -0.0010
 7559W        W24033   1.244   1.081  14.317  0.0680 -0.0118 -0.0001
 7560W        W24034   7.461  17.615  12.795 -0.2917  0.0783 -0.1373
 7561W        W24035   9.313   2.175  15.005 -0.2134 -0.0756 -0.1536
 7562W        W24036   9.840   2.261   3.297  0.0233  0.0087  0.1453
 7563W        W24037   4.977  15.577   0.763 -0.1066 -0.1518 -0.1857
 7564W        W24038   2.462   3.059  13.107  0.1122 -0.0691  0.1529
 7565W        W24039  15.495   7.974  11.074 -0.1616  0.0442 -0.2236
 7566W        W24040  10.621   2.922  12.887  0.1793 -0.1536  0.0434
 7567W        W24041  12.161  17.326  14.548  0.0591 -0.0881  0.1555
 7568W        W24042  18.098  11.265  14.240 -0.1116  0.2415 -0.1766
 7569W        W24043   6.274   5.387  11.702 -0.3091 -0.3179 -0.0343
 7570W        W24044   7.826   7.785   3.335 -0.2302  0.0241 -0.1508
 7571W        W24045  15.260  16.618  15.442 -0.1334  0.3135  0.2444
 7572W        W24046   1.815   1.357  12.966 -0.1844 -0.2003 -0.2352
 7573W        W24047   8.046  11.932  11.595  0.0130  0.0398 -0.0540
 7574W        W24048   0.450  14.178   1.874 -0.2004 -0.1386  0.1579
 7575W        W24049  13.772  11.444   2.093  0.0177 -0.1781  0.1618
 7576W        W24050   4.857   2.518   0.153 -0.0058  0.0413  0.1780
 7577W        W24051  12.646   4.458   2.305 -0.2796 -0.3335 -0.3385
 7578W        W24052   0.830  15.662   0.886  0.4020 -0.1383 -0.0431
 7579W        W24053   4.707  17.065   1.311 -0.1342  0.2463 -0.0153
 7580W        W24054   1.461   3.781  15.817  0.3413  0.3308  0.0976
 7581W        W24055  13.465  16.832   1.431  0.0418 -0.0328 -0.2019
 7582W        W24056   3.615   9.074   5.145  0.0156  0.0840  0.0418
 7583W        W24057   1.440   8.459  13.462 -0.0161  0.0743 -0.2947
 7584W        W24058  18.321  16.035  12.509  0.1353  0.0084  0.1445
 7585W        W24059   0.793   9.036  11.281 -0.3104  0.2864 -0.2551
 7586W        W24060  16.087   3.736  10.659  0.3356 -0.0097  0.0459
 7587W        W24061  14.859   9.179   3.243  0.2190 -0.2965 -0.1424
 7588W        W24062   0.899  17.485  14.280 -0.2436  0.1216 -0.0672
 7589W        W24063   9.915  16.239  12.624  0.2183  0.2193 -0.3080
 7590W        W24064  14.806  11.215   3.109 -0.2621  0.1806 -0.0199
 7591W        W24065   6.865   9.106   2.257 -0.0170  0.3037 -0.0213
 7592W        W24066  13.344  17.933   0.461  0.0891  0.2052  0.1586
 7593W        W24067  15.667   9.347  13.515 -0.2839 -0.1242 -0.0621
 7594W        W24068   7.050   2.543  12.904  0.1148  0.1537  0.0601
 7595W        W24069  13.066   9.823  15.953 -0.2881  0.4982 -0.4444
 7596W        W24070   6.406  15.341   3.939 -0.0943 -0.0696  0.1820
 7597W        W24071   8.824   4.528  14.914  0.2751  0.2550 -0.0101
 7598W        W24072   5.824  17.583  15.297 -0.1414 -0.0561  0.3671
 7599W        W24073  18.200   7.473   0.309 -0.3687 -0.0358 -0.1870
 7600W        W24074  11.060   3.453  10.982 -0.0758  0.2934 -0.2838
 7601W        W24075  14.886  11.935  14.570  0.1874  0.0731  0.3709
 7602W        W24076  11.858  10.056   4.231 -0.1113  0.0161 -0.0735
 7603W        W24077  16.843  10.327  15.139 -0.0859 -0.2378  0.4902
 7604W        W24078   2.215   6.321   1.072  0.0539  0.2266 -0.2330
 7605W        W24079  13.599  14.789  14.724 -0.1245  0.1265  0.1986
 7606W        W24080  11.671   2.108  11.425 -0.1981  0.2283 -0.0750
 7607W        W24081  17.605  17.742   5.899  0.0869  0.0410  0.0642
 7608W        W24082  17.024  16.558   5.779 -0.0497 -0.3455  0.2712
 7609W        W24083  15.321  11.530  11.188  0.0577 -0.3656 -0.0541
 7610W        W24084   8.079   8.947   4.685 -0.0758  0.0106  0.1779
 7611W        W24085  15.898   1.977   2.629 -0.1034 -0.0360 -0.1422
 7612W        W24086   0.040  12.126   0.080 -0.1030  0.4955  0.3818
 7613W        W24087  12.459  13.815   3.909 -0.0874 -0.3710 -0.2251
 7614W        W24088   5.394  15.696   3.671 -0.0834 -0.1589 -0.0346
 7615W        W24089  12.497   4.657  14.696 -0.1853 -0.2215  0.0474
 7616W        W24090   5.611  11.485  15.451  0.0178 -0.2989 -0.2488
 7617W        W24091  16.116  17.434   2.027 -0.0281  0.2172 -0.0700
 7618W        W24092  10.976  14.643  12.082  0.1252 -0.2508  0.0773
 7619W        W24093   6.650   9.506   1.882  0.0173 -0.0782 -0.0540
 7620W        W24094   0.611  17.772  13.772  0.0772  0.2683 -0.0471
 7621W        W24095   5.621   1.509  12.266 -0.0059 -0.3580 -0.2184
 7622W        W24096  17.546  15.980  16.123 -0.0468 -0.0248 -0.2017
 7623W        W24097   8.983  12.482   0.664  0.1688  0.3224 -0.2458
 7624W        W24098   6.263  16.018   5.610  0.1791  0.0467 -0.1867
 7625W        W24099   5.133   6.942   1.140 -0.2226 -0.0861  0.1234
 7626W        W24100   8.194  12.010   5.945 -0.0249  0.0106  0.2303
 7627W        W24101   0.848  14.150  14.090  0.1676  0.1589  0.0572
 7628W        W24102   6.256   5.499   4.277 -0.1092  0.3833  0.1364
 7629W        W24103  11.611   3.155   0.385 -0.1491  0.0804  0.4191
 7630W        W24104  14.758  10.691   3.073 -0.0621  0.0348  0.3330
 7631W        W24105  16.081  10.379   0.869  0.1031 -0.1911 -0.2305
 7632W        W24106   8.073   8.419   1.302  0.2097  0.1837 -0.1321
 7633W        W24107  17.399  11.181   2.402  0.0283  0.1810 -0.1112
 7634W        W24108  16.236   0.344   5.397 -0.1112  0.0897 -0.2342
 7635W        W24109   9.014   6.910  15.368 -0.2225  0.0611 -0.2116
 7636W        W24110  13.976   5.044  14.514  0.0867  0.0341 -0.0494
 7637W        W24111   9.580  14.913  12.456  0.1444  0.0047  0.2286
 7638W        W24112  14.822   2.946  11.929 -0.0693  0.1438  0.1527
 7639W        W24113  12.934  10.707   0.087 -0.0413  0.1307  0.2404
 7640W        W24114   5.108  16.876  15.949  0.1153 -0.2614 -0.1047
 7641W        W24115   9.208   2.324  15.896  0.0350  0.1546  0.1818
 7642W        W24116  16.651  16.608  12.792  0.2009 -0.1273 -0.1904
 7643W        W24117   8.473   6.228  15.693  0.0256 -0.0877 -0.1037
 7644W        W24118   1.708  15.624   2.458  0.1411 -0.1652  0.0808
 7645W        W24119  12.627  16.374   4.438 -0.2484 -0.1145  0.1344
 7646W        W24120   9.455   8.122  10.010  0.0613 -0.1834 -0.0090
 7647W        W24121   1.200   7.902   1.737 -0.4199 -0.3220  0.1316
 7648W        W24122  10.469  12.646  13.178 -0.0273  0.2732  0.2137
 7649W        W24123   2.253  17.344   3.415  0.2901  0.1272 -0.2749
 7650W        W24124   6.905   2.145   4.899 -0.1039 -0.1083 -0.0570
 7651W        W24125   3.859  11.396  15.810  0.2676 -0.1340 -0.4562
 7652W        W24126  15.146  17.501   5.743  0.3850 -0.1811 -0.2914
 7653W        W24127  11.674  12.746  11.129 -0.0163  0.1376 -0.2575
 7654W        W24128  12.406  13.732  11.791  0.0599  0.2630 -0.1424
 7655W        W24129  12.469   7.198  16.031 -0.1549 -0.1657  0.1341
 7656W        W24130   3.855   5.624  11.094  0.1368 -0.3063 -0.3954
 7657W        W24131  11.207  14.892  14.275  0.2458  0.1214  0.0985
 7658W        W24132   8.382   6.873  11.928 -0.0167  0.1307 -0.1073
 7659W        W24133  14.977  17.268  16.187 -0.5410 -0.4266 -0.3261
 7660W        W24134   9.819  15.979  16.134 -0.0507  0.0885 -0.0031
 7661W        W24135   6.841   5.956  14.429  0.2534 -0.3124  0.1130
 7662W        W24136  11.971  14.100  15.513  0.4040 -0.1773 -0.3864
 7663W        W24137  16.711   7.996   4.120 -0.1436  0.1979  0.1860
 7664W        W24138   9.377   9.528   1.778 -0.0674  0.2959  0.2511
 7665W        W24139  17.840   6.555   4.937  0.0652 -0.2164  0.0776
 7666W        W24140   4.982  10.926   0.738  0.2141 -0.3605 -0.1830
 7667W        W24141  18.321  17.189  12.344 -0.3908  0.1048 -0.1267
 7668W        W24142  11.258   3.131   4.341 -0.0946  0.0354 -0.0647
 7669W        W24143   9.227  13.473  13.628  0.1484  0.0465  0.0893
 7670W        W24144   5.434   3.735  16.171 -0.1049 -0.0277  0.1169
 7671W        W24145   7.926   5.319   4.796  0.1941 -0.4616  0.2141
 7672W        W24146   4.813  10.856   2.706  0.2117  0.1612 -0.1051
 7673W        W24147  13.542   4.237   2.435 -0.1709 -0.3282  0.2430
 7674W        W24148   2.141   0.524   5.395  0.1160  0.0119  0.0012
 7675W        W24149   1.553   3.948   0.936  0.1797  0.0478 -0.0077
 7676W        W24150   2.775   6.977   5.621  0.1652  0.0218  0.1690
 7677W        W24151   0.311   4.112   4.913 -0.2805  0.1685 -0.1620
 7678W        W24152  10.758  16.083  12.009  0.1425 -0.0744 -0.0386
 7679W        W24153   4.800   8.144   1.825 -0.0134  0.0665 -0.0116
 7680W        W24154  17.589  16.966   2.465  0.0666  0.2271 -0.1330
 7681W        W24155   4.272   8.235  11.945 -0.0490  0.1178 -0.1622
 7682W        W24156   4.005  16.672   4.204  0.0656 -0.1003 -0.1194
 7683W        W24157   5.487  10.408   5.102  0.3344 -0.0905 -0.1598
 7684W        W24158   8.656   0.284  16.264  0.0901 -0.1695  0.0067
 7685W        W24159   9.438  10.731   1.561 -0.2412 -0.2186 -0.2291
 7686W        W24160   8.480   9.405   4.873  0.0897 -0.1405  0.1287
 7687W        W24161  15.736  11.610  11.545  0.2929  0.0910 -0.1619
 7688W        W24162  14.470   6.179   2.573 -0.1095  0.4139 -0.0345
 7689W        W24163  13.630  16.746   5.898  0.0564 -0.0270 -0.1124
 7690W        W24164  10.348  12.431   2.091 -0.4203 -0.1012 -0.0735
 7691W        W24165  18.388   8.835   2.628  0.0358  0.1215  0.0391
 7692W        W24166   3.537   8.320  12.715  0.0364 -0.2047 -0.1944
 7693W        W24167  15.288  16.719  12.471 -0.1236  0.1690  0.0597
 7694W        W24168  16.412   0.109   2.496 -0.0529 -0.0823  0.0579
 7695W        W24169   7.669  11.214   4.859  0.0836  0.0821  0.2211
 7696W        W24170   8.272   1.193   5.485  0.0339 -0.0607 -0.0299
 7697W        W24171   4.761   6.412  13.160 -0.1777 -0.0796  0.1098
 7698W        W24172  11.554  17.705  13.738 -0.1017 -0.2851  0.1301
 7699W        W24173   7.682   2.832   2.228  0.1135  0.0854  0.2547
 7700W        W24174   3.016  14.866   1.120  0.1272  0.2045 -0.1723
 7701W        W24175  17.233   1.065  12.298 -0.1389  0.1693 -0.1647
 7702W        W24176   8.090   6.285   0.504  0.0518 -0.3924 -0.0063
 7703W        W24177  13.873  14.200   1.652 -0.0036  0.0983 -0.0580
 7704W        W24178   8.385  15.121   5.256  0.1392  0.0907 -0.3604
 7705W        W24179   7.866   3.745  12.599 -0.2475  0.1015 -0.2803
 7706W        W24180   3.781   0.038   5.416 -0.2378  0.2609 -0.1354
 7707W        W24181   6.703   9.913  11.110  0.0403  0.3490  0.0426
 7708W        W24182  10.269  11.453  12.456 -0.1085  0.2273 -0.1062
 7709W        W24183  12.808   1.941   3.203  0.0405  0.0478 -0.0319
 7710W        W24184   0.753   0.321  12.944 -0.0672 -0.0955 -0.0936
 7711W        W24185   0.820   0.128  15.340  0.1816  0.1248 -0.0795
 7712W        W24186  12.238  16.176   4.800 -0.1821 -0.0653  0.0442
 7713W        W24187  11.841   5.750   3.005  0.1495  0.0389  0.0437
 7714W        W24188  18.132   2.651   3.070  0.0968  0.0707 -0.1186
 7715W        W24189  12.955  18.198  13.196 -0.0476  0.0199  0.2040
 7716W        W24190   8.994  17.556   4.583  0.0547 -0.4015  0.2133
 7717W        W24191  17.771   7.050  14.769 -0.3589 -0.4165 -0.4290
 7718W        W24192   8.287  11.978   1.196 -0.0155  0.4916 -0.0434
 7719W        W24193  15.282  18.161   2.333  0.1122 -0.0958  0.0429
 7720W        W24194   7.513  14.073  12.257 -0.0790  0.2984  0.0474
 7721W        W24195  11.871   6.820  16.264 -0.0595 -0.1464  0.0586
 7722W        W24196  13.232   4.150  14.011  0.0249  0.1756  0.0734
 7723W        W24197   4.219   7.318   3.435  0.0468  0.0499  0.0027
 7724W        W24198  10.584  15.368  14.886  0.0164  0.2407  0.3144
 7725W        W24199  16.997   0.009   0.484 -0.0712  0.1694  0.0075
 7726W        W24200  14.525  10.601  13.128  0.3315 -0.3586  0.0440
 7727W        W24201   9.240  18.379   2.860  0.3697  0.0732  0.0354
 7728W        W24202   8.441   6.959  14.544  0.3895 -0.0593 -0.1129
 7729W        W24203   7.103   8.599  11.049 -0.0292 -0.2727 -0.2231
 7730W        W24204  16.492   5.250   2.715 -0.0408 -0.0504 -0.0041
 7731W        W24205   8.543   6.674   4.827 -0.1471  0.0904 -0.1527
 7732W        W24206   9.397   4.978   3.881 -0.2676  0.1474  0.1555
 7733W        W24207  15.348   3.981   5.700  0.1164  0.0436  0.0324
 7734W        W24208   6.749  12.824  13.645 -0.0216  0.1211 -0.1888
 7735W        W24209  13.322  15.644  13.831 -0.1380 -0.2197  0.4242
 7736W        W24210   6.382   4.935  12.192 -0.2340 -0.2555  0.1533
 7737W        W24211   9.025   1.036  13.109 -0.2219 -0.1667 -0.0044
 7738W        W24212   3.484   2.279  12.658 -0.0159 -0.2514 -0.3030
 7739W        W24213   2.932   6.705  15.045 -0.0010  0.0117  0.1665
 7740W        W24214   0.565   7.942   3.301 -0.1227 -0.1089  0.0647
 7741W        W24215   7.446   2.257   4.046 -0.2181  0.2242 -0.1409
 7742W        W24216  11.477   4.742   1.431 -0.3197  0.2745 -0.0393
 7743W        W24217   9.990   6.451   2.184  0.2878 -0.0346 -0.0791
 7744W        W24218   2.224  15.351  12.535  0.3217  0.1993  0.1162
 7745W        W24219  12.646   2.374   1.130  0.2014  0.3748  0.1510
 7746W        W24220   7.045   9.767   5.774  0.1066 -0.1705 -0.0497
 7747W        W24221  16.907   9.110   4.485 -0.1203 -0.0750 -0.1827
 7748W        W24222  13.484   4.231   3.819  0.0842 -0.1023  0.0582
 7749W        W24223  18.103   4.057  16.264 -0.1999  0.1629  0.0056
 7750W        W24224   8.422   4.763  15.231 -0.2095 -0.2222  0.1304
 7751W        W24225   7.494  15.134  14.483  0.1421 -0.0052  0.0757
 7752W        W24226  12.280   1.378   2.593  0.2492  0.1991  0.4527
 7753W        W24227  11.156   1.697   4.686  0.2370 -0.2238 -0.1186
 7754W        W24228  15.878  11.781   4.146 -0.4069 -0.0840  0.0189
 7755W        W24229   1.447   8.061   2.850  0.0016 -0.0409 -0.0217
 7756W        W24230   7.242   1.440   4.871 -0.2171  0.0800 -0.0065
 7757W        W24231   8.948   4.932   1.877 -0.2392 -0.1636  0.3847
 7758W        W24232   5.394   5.178  14.309  0.0174 -0.2501  0.1784
 7759W        W24233  13.310   1.859  13.033 -0.2927 -0.2903  0.1756
 7760W        W24234   6.614   2.525   2.459 -0.2362 -0.0944  0.0881
 7761W        W24235   0.895  12.536  12.310  0.3591 -0.0747 -0.0595
 7762W        W24236   9.540   8.410  12.713  0.2934  0.2555 -0.1051
 7763W        W24237   4.283  16.528  16.245  0.1730 -0.1875 -0.1272
 7764W        W24238  18.102  15.004   0.520 -0.3195  0.0925  0.0516
 7765W        W24239   6.132  14.017   2.326 -0.2132 -0.0911  0.1145
 7766W        W24240   7.007   8.521  15.454 -0.1082  0.0425  0.1472
 7767W        W24241  16.719   6.450  13.977  0.0004 -0.2369 -0.0447
 7768W        W24242   3.925  11.206   0.389 -0.0065 -0.2601  0.1360
 7769W        W24243   1.957   0.336   4.483 -0.0254 -0.1674 -0.0039
 7770W        W24244   3.103   6.321   5.096  0.1304  0.0460 -0.0689
 7771W        W24245   7.626   8.104   1.267 -0.0554 -0.2359  0.2257
 7772W        W24246  16.876   8.050   3.565 -0.0492 -0.0084  0.1404
 7773W        W24247   3.482  11.342   1.899 -0.0432 -0.0677  0.0237
 7774W        W24248  11.140  14.998  10.500 -0.1980  0.4059 -0.0808
 7775W        W24249  13.485  11.099  13.885 -0.0898  0.3524 -0.0343
 7776W        W24250   2.702   5.340  12.520 -0.1935 -0.0494 -0.1204
 7777W        W24251   5.420   0.379  16.168 -0.2265  0.1063  0.0853
 7778W        W24252   3.212   3.357   4.743 -0.1766 -0.0090 -0.3533
 7779W        W24253   9.308  11.137  15.487  0.1077 -0.3370  0.3115
 7780W        W24254  14.885  13.248   4.134  0.1319  0.0224 -0.1094
 7781W        W24255   6.098   9.318  15.004 -0.1567 -0.0275  0.2183
 7782W        W24256  16.211  14.230   6.325  0.4044  0.0050 -0.0288
 7783W        W24257   1.469   2.160  13.454  0.0271 -0.2255 -0.0505
 7784W        W24258  10.669   5.754  13.591  0.0541 -0.2427 -0.2462
 7785W        W24259  12.037  16.462   5.799  0.0366 -0.2714  0.0091
 7786W        W24260   7.837   1.231   3.525 -0.1108 -0.1779 -0.1145
 7787W        W24261   5.701  14.410   1.339 -0.0924 -0.4583  0.3343
 7788W        W24262  16.962   3.818   2.401  0.0174 -0.0684 -0.2407
 7789W        W24263  15.473   0.402   4.253 -0.0213  0.0702 -0.0305
 7790W        W24264   4.436   7.624   3.798  0.3451 -0.1102 -0.2241
 7791W        W24265  13.609   1.770   3.622 -0.5594  0.3441  0.1397
 7792W        W24266  10.114   3.986  12.692 -0.0859 -0.1549 -0.2949
 7793W        W24267  13.920   4.991  13.123  0.1584  0.1779 -0.3142
 7794W        W24268   8.960  13.574   1.791 -0.0284  0.0057  0.0261
 7795W        W24269  16.464   9.665  16.156 -0.0353 -0.1998 -0.4111
 7796W        W24270  16.135  17.864   5.332  0.1489 -0.0148 -0.2739
 7797W        W24271   1.922  13.647   2.059 -0.1044 -0.1926 -0.1610
 7798W        W24272  14.341   5.596   0.693 -0.4560 -0.2212 -0.2857
 7799W        W24273  17.534   6.771  11.829  0.2709 -0.0078  0.0413
 7800W        W24274  17.302   9.835  12.578  0.0682 -0.0100  0.1126
 7801W        W24275  16.740   5.291  12.623  0.1215  0.0430  0.1793
 7802W        W24276   3.400   9.634  13.225  0.3190 -0.0456  0.3050
 7803W        W24277   0.959   2.948   2.163 -0.4003 -0.2390 -0.0433
 7804W        W24278  16.015   0.042   5.937  0.1264  0.1271  0.0383
 7805W        W24279  16.232   5.062   3.585  0.0684 -0.0280  0.1505
 7806W        W24280   0.132  14.572  14.028  0.0914  0.3522 -0.1989
 7807W        W24281   6.680  15.535   2.684  0.3114 -0.1477 -0.1019
 7808W        W24282  16.899  16.569   0.301  0.0513  0.0709 -0.1268
 7809W        W24283   7.180   2.510  13.865  0.2129  0.2103  0.2140
 7810W        W24284   4.758   9.971   5.959 -0.2142  0.2633 -0.1265
 7811W        W24285   9.543   7.293  11.441 -0.1207 -0.2464 -0.2189
 7812W        W24286  14.656   1.696   0.335 -0.2874  0.0526 -0.1286
 7813W        W24287   7.706   4.536   0.944 -0.4563 -0.0564 -0.2238
 7814W        W24288   6.852   4.958   1.233  0.1350 -0.3436  0.1982
 7815W        W24289  16.162  10.090  14.706  0.0114 -0.2636 -0.1321
 7816W        W24290  16.202  13.033   0.592 -0.2482  0.1691  0.1183
 7817W        W24291   9.810   0.907   3.596 -0.1792 -0.3007 -0.3767
 7818W        W24292   3.119   1.210  14.405 -0.3452 -0.1524  0.0699
 7819W        W24293  16.526  13.848   1.253 -0.1363 -0.0652  0.1160
 7820W        W24294   4.614   9.235  14.182  0.1860 -0.1434 -0.0868
 7821W        W24295  14.796   9.552   2.491  0.0510 -0.1739 -0.0524
 7822W        W24296   9.341  13.766  14.211 -0.1728  0.0614  0.2525
 7823W        W24297   3.700   2.843  14.442  0.0138 -0.0638 -0.1172
 7824W        W24298   3.538   4.951  14.347 -0.5633  0.1063 -0.5205
 7825W        W24299  17.110   6.991  15.817 -0.3814 -0.1254 -0.1314
 7826W        W24300   4.414   0.191  12.465  0.0255  0.0768 -0.0868
 7827W        W24301  15.044   2.808  12.800  0.2769  0.3362  0.1476
 7828W        W24302   3.437   9.958  12.834 -0.2213  0.1752 -0.2462
 7829W        W24303  13.941  11.534  14.390 -0.1392 -0.1055 -0.0718
 7830W        W24304   9.698   2.177   4.382  0.0120 -0.0588  0.0605
 7831W        W24305  15.505   2.702   4.416 -0.1754  0.0826 -0.2109
 7832W        W24306  16.479  10.086  11.156  0.1631  0.0203 -0.3733
 7833W        W24307   2.522  15.241   4.457  0.0937  0.1536 -0.3369
 7834W        W24308  10.879   4.228   4.889 -0.1386  0.0097 -0.2422
 7835W        W24309   7.664  11.841  12.024 -0.0492 -0.4406  0.0821
 7836W        W24310  15.426   7.266  12.706  0.0628  0.1312  0.2809
 7837W        W24311   2.093  10.221  12.335 -0.1306  0.1976 -0.0747
 7838W        W24312   2.874   9.922  15.740  0.1462 -0.1986  0.0596
 7839W        W24313  15.842   0.715  12.745 -0.0177 -0.1601 -0.0628
 7840W        W24314  17.250  12.880  14.999 -0.1868  0.2254 -0.0235
 7841W        W24315  16.616  17.542  14.536 -0.1264  0.1909  0.1324
 7842W        W24316   6.638   6.419  15.983 -0.2883 -0.1013  0.0782
 7843W        W24317  10.149  15.728   1.950 -0.1278  0.1748  0.0362
 7844W        W24318   5.710  12.817   6.036 -0.0414 -0.1025 -0.0341
 7845W        W24319   6.458   8.012   0.881 -0.0794 -0.0036 -0.0177
 7846W        W24320  17.919   7.843  11.366  0.0339 -0.3490  0.0087
 7847W        W24321  15.900   3.071  15.936 -0.1105 -0.0126  0.2832
 7848W        W24322  16.723   2.370   3.110  0.0398  0.0369 -0.0099
 7849W        W24323  17.888  13.722  16.254 -0.1169  0.1802  0.0311
 7850W        W24324   4.283   4.093   1.124  0.2618  0.0219 -0.0117
 7851W        W24325  13.928  10.054  12.481 -0.0920 -0.1892  0.3162
 7852W        W24326  11.004   2.929  11.132 -0.1594  0.1245  0.2140
 7853W        W24327  18.030   6.226  15.215 -0.1624  0.2589  0.3089
 7854W        W24328   4.003  12.017  12.328  0.0890 -0.0225 -0.0920
 7855W        W24329   3.357  13.533  12.505 -0.1607  0.1238  0.0234
 7856W        W24330   3.960   7.755   5.551  0.1501 -0.0727 -0.1966
 7857W        W24331  15.854  16.518   2.287  0.0354  0.1864 -0.1339
 7858W        W24332   8.409   7.541   0.156  0.0048 -0.1575  0.3676
 7859W        W24333   8.564   4.317  14.167 -0.3183  0.2289  0.0104
 7860W        W24334   2.868   6.746  12.582  0.0476 -0.2493  0.0135
 7861W        W24335   7.288  18.332   3.428 -0.2409 -0.5369 -0.0763
 7862W        W24336  13.162   3.873  10.646  0.0992 -0.2236 -0.1745
 7863W        W24337   7.237   6.647  11.040 -0.0288  0.1251  0.0519
 7864W        W24338   4.035  12.355   2.790 -0.2616  0.0106 -0.0399
 7865W        W24339  18.293   4.418   4.583 -0.0291 -0.2377 -0.2897
 7866W        W24340  11.522  17.773  12.207 -0.1539  0.0579 -0.0110
 7867W        W24341   4.540  16.237   5.041  0.1157 -0.0084  0.1252
 7868W        W24342  13.622   2.438  12.627  0.0386  0.0002  0.4505
 7869W        W24343   2.159   3.737   6.086 -0.3539 -0.1090  0.2065
 7870W        W24344   7.100  15.115  14.031 -0.0601  0.0020  0.2178
 7871W        W24345  17.018   7.514   1.883  0.0500  0.1962 -0.0864
 7872W        W24346  15.768   9.416  15.164  0.0283 -0.1411  0.2432
 7873W        W24347  12.363   6.746  16.332 -0.0521 -0.1601 -0.3443
 7874W        W24348   1.858  11.688   2.543 -0.1435  0.0201  0.2291
 7875W        W24349  17.772   6.836   2.506  0.1086 -0.1009 -0.0642
 7876W        W24350   1.294   9.559   1.768 -0.1433 -0.0618 -0.0537
 7877W        W24351  12.829   1.720  15.680  0.2380  0.0941 -0.1840
 7878W        W24352   0.513  13.857  14.254  0.0664  0.2113 -0.1468
 7879W        W24353   3.106   3.408  16.023 -0.1505 -0.2524 -0.0312
 7880W        W24354  18.335   8.820   1.584  0.2941 -0.0019  0.0975
 7881W        W24355  11.742   1.867  13.959 -0.2175 -0.0711  0.1322
 7882W        W24356   6.130   1.144  16.228 -0.1100  0.0451 -0.0579
 7883W        W24357   7.572   7.228  15.739  0.0547 -0.0638  0.0220
 7884W        W24358   2.006   7.430   3.448 -0.1583 -0.2208  0.0543
 7885W        W24359  17.092   2.229  15.744  0.0639  0.0431 -0.1123
 7886W        W24360  11.645   5.467  13.545 -0.1807  0.1569  0.1670
 7887W        W24361  10.024  17.447  15.621 -0.1323  0.3863  0.3270
 7888W        W24362  10.551  11.705   5.719 -0.1254  0.0735  0.1409
 7889W        W24363  13.951  17.345   1.877 -0.0619 -0.0949  0.0035
 7890W        W24364   4.222   3.185   5.038  0.0116 -0.1422  0.1650
 7891W        W24365  11.066  14.424  13.685  0.0186 -0.0418 -0.1080
 7892W        W24366   2.226   6.756  12.379 -0.0177 -0.1080 -0.1487
 7893W        W24367   4.174  16.812  11.616  0.0019 -0.0517 -0.0154
 7894W        W24368   9.199   8.545  13.085  0.2789 -0.0571 -0.1645
 7895W        W24369   9.921  12.571  16.106 -0.3591  0.1625 -0.1281
 7896W        W24370   7.547  13.256   2.865  0.5190 -0.1226 -0.2325
 7897W        W24371   6.141   9.395  15.488  0.0142 -0.1415 -0.0647
 7898W        W24372  18.144   9.013  14.304  0.2801 -0.2679 -0.0123
 7899W        W24373   1.288   3.011  16.045  0.0412 -0.1402 -0.1496
 7900W        W24374  11.201   1.192   3.659 -0.0202  0.3112  0.1382
 7901W        W24375  11.197   8.054   3.132 -0.0144 -0.3598 -0.0917
 7902W        W24376   9.363   8.395  15.965  0.0927 -0.0479 -0.0526
 7903W        W24377   7.138  17.245   3.258  0.1532  0.0443 -0.1101
 7904W        W24378   5.771  12.400   3.983  0.2081 -0.0937  0.3881
 7905W        W24379   2.979   4.766  13.673 -0.4887 -0.2438  0.1102
 7906W        W24380   8.761  12.179   3.817 -0.1061 -0.2965  0.1221
 7907W        W24381  16.221   3.892  14.515  0.1816 -0.0431 -0.1834
 7908W        W24382   8.457  17.932  13.706  0.1460 -0.1828 -0.0791
 7909W        W24383   6.705  15.199   0.473  0.0962  0.3951 -0.1197
 7910W        W24384   2.116  13.156  13.853  0.0700  0.0541 -0.1881
 7911W        W24385   0.585  17.696   1.540  0.1741  0.0102  0.0054
 7912W        W24386  14.850   4.713   4.907  0.1634 -0.1302 -0.0081
 7913W        W24387   3.611   1.486  12.137 -0.2122  0.0041  0.1100
 7914W        W24388  18.160  17.181   0.559 -0.0044  0.3670 -0.2358
 7915W        W24389  15.077   8.484   1.974  0.0030  0.1705 -0.1574
 7916W        W24390  10.606  13.622  12.118 -0.2306 -0.0510 -0.2522
 7917W        W24391  15.647   6.128   1.866 -0.3748  0.0317  0.3147
 7918W        W24392  16.304  11.564   1.662  0.4419  0.0337  0.0711
 7919W        W24393  14.033   2.024   6.305 -0.0867  0.0754  0.3553
 7920W        W24394   0.058  12.262  12.844  0.1599 -0.1913  0.1318
 7921W        W24395   1.611  16.330  11.572 -0.2047  0.0453 -0.1335
 7922W        W24396   8.992   4.444  11.465 -0.0593 -0.2836 -0.1482
 7923W        W24397   0.133  14.551   1.365 -0.1950  0.0721  0.1205
 7924W        W24398  15.815   5.201  15.003  0.0609  0.0454 -0.3172
 7925W        W24399   6.886  12.983   0.616  0.0958 -0.2273  0.3021
 7926W        W24400   5.975   4.404  11.549 -0.0013 -0.1955  0.1779
 7927W        W24401   6.548  10.299   0.806 -0.0880 -0.4337 -0.1220
 7928W        W24402  12.419   5.076   0.200 -0.2156 -0.0806 -0.1720
 7929W        W24403   8.478   5.918   2.996  0.2390  0.3311  0.4468
 7930W        W24404   9.420   1.479  14.174  0.1148 -0.0852  0.0623
 7931W        W24405   6.319   4.755   5.111 -0.1236 -0.0729  0.0190
 7932W        W24406   8.923   1.384  12.111  0.1949 -0.0739 -0.1708
 7933W        W24407  16.019  11.735  12.786  0.0749  0.6400 -0.0168
 7934W        W24408  15.315  12.958  11.306 -0.0204 -0.0403 -0.2366
 7935W        W24409  13.228  16.644   4.940  0.1100 -0.0815 -0.0252
 7936W        W24410   7.920   4.023   0.846 -0.0202 -0.0158 -0.0977
 7937W        W24411   0.378  12.966   0.591  0.0436  0.1254  0.4455
 7938W        W24412   7.656   7.358   1.243  0.3184 -0.0659  0.0726
 7939W        W24413   6.917   8.014  14.553 -0.1586  0.1982 -0.0531
 7940W        W24414   7.632   2.465  14.748  0.1170 -0.2349  0.1656
 7941W        W24415   1.285   0.054   2.691 -0.1133  0.1818 -0.0960
 7942W        W24416   8.555   6.483  14.671  0.0200  0.1408 -0.2145
 7943W        W24417   4.774  13.183  14.509 -0.1927 -0.0336 -0.1129
 7944W        W24418   4.436  17.231  14.576  0.0442 -0.2972 -0.0755
 7945W        W24419   3.984  15.885   3.556 -0.0478 -0.2322 -0.0703
 7946W        W24420   8.220   6.751  12.721 -0.0602 -0.2586 -0.1959
 7947W        W24421  11.329   4.588  15.101 -0.1829  0.0257  0.1247
 7948W        W24422   7.103   5.797  12.468  0.3465  0.0505  0.2938
 7949W        W24423   2.229  13.869  14.506 -0.0478  0.1786  0.0287
 7950W        W24424   1.890  15.628  14.644  0.0465 -0.0706  0.0099
 7951W        W24425  15.823   2.473  14.104  0.0449  0.0709  0.3806
 7952W        W24426   0.049  16.833   6.276 -0.0928  0.1528 -0.3749
 7953W        W24427  18.060   0.641  15.947  0.3373 -0.0869 -0.0921
 7954W        W24428   9.675   2.789   0.511 -0.0503  0.2076  0.2657
 7955W        W24429   8.409   0.419   1.309  0.3096  0.1644  0.0938
 7956W        W24430   5.867   0.546   4.192 -0.1242  0.1251  0.0334
 7957W        W24431  17.540  17.737  15.748 -0.1090  0.1343 -0.2398
 7958W        W24432   4.293  16.471  14.165 -0.0267 -0.0824  0.2533
 7959W        W24433   4.553  11.360  11.849  0.3271 -0.3792  0.0323
 7960W        W24434   4.809   4.076  11.859  0.0570 -0.2210 -0.2132
 7961W        W24435  16.570   9.445   2.032 -0.1100  0.1581  0.1583
 7962W        W24436  16.614   6.420   2.871  0.3412  0.1009  0.2509
 7963W        W24437  10.385   6.380  14.680 -0.2106  0.1281 -0.1693
 7964W        W24438   4.178  17.039  15.441 -0.0428  0.2015  0.1020
 7965W        W24439  14.969   4.772  13.904  0.4525 -0.2126  0.3567
 7966W        W24440  16.372   0.689  13.830 -0.1358 -0.2364 -0.1567
 7967W        W24441   8.171  13.038  13.937  0.0151 -0.0821  0.1968
 7968W        W24442  10.679  18.226  14.798 -0.4220  0.3984 -0.4915
 7969W        W24443  12.104   2.307  13.870  0.1076 -0.2007  0.0408
 7970W        W24444  12.022   2.295   0.745 -0.1575 -0.1494 -0.0783
 7971W        W24445   6.270  14.770   3.386  0.1787  0.2564  0.0359
 7972W        W24446   2.037   0.862  12.056  0.0166  0.1181  0.1780
 7973W        W24447  16.981  14.721  16.052  0.0140 -0.1165  0.0011
 7974W        W24448  17.737   6.708  15.135  0.0587  0.4783 -0.2185
 7975W        W24449  11.815   3.281   4.387  0.1491  0.3639 -0.1024
 7976W        W24450  12.248  15.653   0.699  0.1245  0.3270 -0.2546
 7977W        W24451  15.118   4.953  15.544  0.0151 -0.2298  0.0366
 7978W        W24452  15.773  10.867   3.675  0.1917 -0.0681  0.0180
 7979W        W24453   8.385   8.173  13.382 -0.1362 -0.0646  0.4693
 7980W        W24454  10.138  11.606   4.541 -0.0862  0.1634  0.1146
 7981W        W24455   8.658   5.277  11.420  0.1386 -0.3025  0.2117
 7982W        W24456   3.214  18.174   2.437 -0.0386 -0.1276 -0.2721
 7983W        W24457   2.989  13.116  14.089 -0.1546  0.1513 -0.0299
 7984W        W24458   8.933   1.007   2.442  0.2786  0.1224 -0.1008
 7985W        W24459   3.213  11.851  11.774  0.2724  0.0598  0.0530
 7986W        W24460   6.317   0.371  15.360 -0.0368 -0.1308  0.0096
 7987W        W24461  16.967  12.970   0.154 -0.1342 -0.0529 -0.2680
 7988W        W24462   5.064   8.323  14.902  0.0952 -0.0015  0.2480
 7989W        W24463   7.607  10.221  16.224 -0.0625 -0.2571 -0.0605
 7990W        W24464   9.184  11.304   2.638 -0.0865  0.1400 -0.0437
 7991W        W24465  12.540  17.602  13.586 -0.1590 -0.2624 -0.1680
 7992W        W24466  15.647   0.929   0.392 -0.0357  0.1303  0.1084
 7993W        W24467  14.588   1.004  14.646  0.2289 -0.2677 -0.1626
 7994W        W24468   0.197  13.537   1.529  0.0897  0.2474 -0.0606
 7995W        W24469  11.540  12.238   3.028  0.0472  0.3095 -0.0511
 7996W        W24470   3.774  10.730  13.284  0.0654 -0.0693 -0.0018
 7997W        W24471  17.465   5.543   4.133  0.2018 -0.0214 -0.0304
 7998W        W24472   6.157   5.908   0.330  0.0305  0.1724  0.1447
 7999W        W24473  12.102   6.559  12.215 -0.0176  0.2073 -0.1272
 8000W        W24474   7.509  11.016   0.537  0.1523 -0.3116 -0.1288
 8001W        W24475   3.310  12.860  14.991  0.0500 -0.0247 -0.2021
 8002W        W24476   1.448  16.966   0.033 -0.0495 -0.0719  0.0467
 8003W        W24477  16.680   1.989   4.351  0.3916 -0.3179 -0.2591
 8004W        W24478   2.403  12.886   4.249  0.2598 -0.0598  0.0443
 8005W        W24479   5.498   3.385   4.439  0.0666  0.2544  0.4711
 8006W        W24480  16.567   5.836  13.377  0.1850  0.0881  0.4852
 8007W        W24481  14.235  11.119   2.944 -0.4100  0.3865  0.0715
 8008W        W24482   4.576  14.013  12.295 -0.3336  0.0952 -0.0892
 8009W        W24483  12.751  10.674  12.101 -0.1863  0.1476  0.2898
 8010W        W24484   5.446   8.668   4.930  0.4317  0.0883 -0.0060
 8011W        W24485   7.801  12.956  13.492  0.0163 -0.3510  0.2076
 8012W        W24486   7.457   3.420  13.412  0.2064  0.2367  0.2430
 8013W        W24487  11.363   7.443  15.267 -0.0808  0.0249  0.0630
 8014W        W24488  15.325  14.879  11.875 -0.3444  0.0943  0.0989
 8015W        W24489   4.638  12.709  12.553  0.4925  0.1963 -0.1612
 8016W        W24490  11.072  10.561   4.476  0.0751  0.2693 -0.0832
 8017W        W24491   9.743  12.877  10.184  0.0174  0.1765  0.0869
 8018W        W24492  16.286   0.284   0.909  0.2006 -0.1716 -0.2332
 8019W        W24493   4.425   0.109   6.424  0.0666  0.3416 -0.0658
 8020W        W24494   0.572   7.601   3.706 -0.0511 -0.0689  0.1907
 8021W        W24495  14.781   7.821   5.280 -0.2433 -0.0024  0.0096
 8022W        W24496  12.368  11.549   5.579  0.2078 -0.2234  0.0922
 8023W        W24497  18.241  16.392  14.993 -0.0080 -0.0157  0.2045
 8024W        W24498   1.781  11.457  11.766  0.2400 -0.0437  0.0576
 8025W        W24499  10.783   4.963  14.039 -0.6229  0.0344  0.0921
 8026W        W24500  15.580   2.576  11.439  0.0695  0.0288 -0.0538
 8027W        W24501   6.305   2.976  12.908 -0.1061  0.1675  0.1299
 8028W        W24502   1.275  14.441  15.408  0.0517 -0.0250  0.2295
 8029W        W24503   9.210   1.035  15.754  0.0661 -0.1476 -0.0828
 8030W        W24504  14.520  11.103   0.300 -0.3121  0.0985  0.1280
 8031W        W24505   9.847   3.659  14.217 -0.1472  0.0859  0.2776
 8032W        W24506   9.509   3.897   4.942 -0.2211  0.5133  0.1569
 8033W        W24507   9.589   3.239   1.882  0.0817  0.0031  0.0836
 8034W        W24508   6.846  17.764   4.749  0.1346  0.0962 -0.1275
 8035W        W24509  16.781   2.584   5.625 -0.1756 -0.2359  0.4085
 8036W        W24510   8.228  10.884  14.657  0.1693  0.0376 -0.1630
 8037W        W24511  14.716   3.227  13.821 -0.0857 -0.0017 -0.0851
 8038W        W24512  14.779   7.238  13.295  0.2152 -0.0509 -0.0980
 8039W        W24513  13.621   6.935   3.904 -0.2839 -0.1322  0.0330
 8040W        W24514  12.566   7.934  13.130 -0.0445  0.1950 -0.0074
 8041W        W24515  15.477   9.089   3.716 -0.0275 -0.1171  0.2423
 8042W        W24516  11.887  12.124   2.679 -0.3836 -0.0740 -0.3585
 8043W        W24517  15.834  16.131   3.036  0.3108  0.2959  0.1107
 8044W        W24518  10.944   0.561   1.432  0.0598  0.0212 -0.0203
 8045W        W24519   7.465   3.635  12.835  0.3993 -0.0713 -0.0807
 8046W        W24520  17.653  11.582   3.677 -0.0481 -0.4686  0.0574
 8047W        W24521   0.288  12.781  13.544  0.2126 -0.1945  0.1476
 8048W        W24522   4.708  17.934   5.422  0.1408 -0.0942 -0.1142
 8049W        W24523  13.950   1.199   5.279  0.1438 -0.1532  0.0636
 8050W        W24524   7.162   6.676  13.901 -0.0413  0.0643 -0.1187
 8051W        W24525   3.694  11.154  12.566  0.1356  0.0307  0.0381
 8052W        W24526  10.222   8.163  10.723 -0.0615 -0.1980  0.0006
 8053W        W24527   4.896   4.470   3.223  0.0635  0.0172  0.0065
 8054W        W24528   3.986   0.494  12.328 -0.3557 -0.1137  0.0349
 8055W        W24529  10.217   9.574   4.108 -0.1656  0.0352 -0.0408
 8056W        W24530  10.969  17.707   1.032  0.1339  0.0786 -0.0608
 8057W        W24531   0.314   4.682  14.660  0.2643 -0.0147 -0.1251
 8058W        W24532  16.653  15.078   3.246 -0.1264  0.2966 -0.2047
 8059W        W24533  12.291  14.242  14.491  0.0500  0.1481  0.0063
 8060W        W24534  13.943  13.180   1.315 -0.0101 -0.0251  0.1534
 8061W        W24535  10.782   3.480   2.071 -0.2696  0.1101  0.2803
 8062W        W24536   4.746  16.318  15.528  0.2145  0.2745  0.1233
 8063W        W24537   0.273   0.342   0.839  0.0830 -0.0773  0.2813
 8064W        W24538   6.425  10.095   5.118 -0.0606 -0.0117 -0.3631
 8065W        W24539  11.224   9.155   5.543  0.0696  0.1714 -0.5472
 8066W        W24540  12.326   0.459   0.266  0.1583  0.1012  0.1968
 8067W        W24541  16.424   5.468  11.695 -0.2379 -0.0018  0.1414
 8068W        W24542  10.075  10.504   4.658  0.0184  0.0637  0.0751
 8069W        W24543   0.099   9.359   4.351  0.0863 -0.0456  0.0496
 8070W        W24544   7.482  17.025   5.189 -0.2098 -0.1169  0.1973
 8071W        W24545  14.621   3.568  12.349  0.0869 -0.2406 -0.1231
 8072W        W24546   9.079   1.196  16.256 -0.0060 -0.0093 -0.3163
 8073W        W24547  13.253  11.596  11.484 -0.2265  0.2665 -0.0231
 8074W        W24548   7.368  10.761   4.501 -0.0512 -0.0110  0.3073
 8075W        W24549  13.711   6.195  13.207 -0.0159  0.2226  0.0243
 8076W        W24550  15.221   5.672  14.220  0.1359 -0.0330 -0.3705
 8077W        W24551   9.377  16.038   0.045 -0.0708  0.3763  0.1086
 8078W        W24552  10.113  10.277  11.648 -0.2038  0.0531  0.1233
 8079W        W24553   2.341  17.143   0.270  0.3240  0.0250  0.0550
 8080W        W24554   9.782  13.152   1.510 -0.0765 -0.0254  0.0020
 8081W        W24555   1.527   1.877   2.394  0.0522 -0.0109  0.0831
 8082W        W24556   2.850   3.652   4.159 -0.3970  0.0245 -0.3761
 8083W        W24557  17.182   7.130   1.621  0.3194  0.0743 -0.1639
 8084W        W24558   5.862   5.901   0.740 -0.0511  0.0031  0.0643
 8085W        W24559  15.135   3.598   4.888  0.0418  0.0712  0.1237
 8086W        W24560   1.175  12.421   3.370 -0.2189 -0.0925  0.0202
 8087W        W24561   3.234  15.220   5.722  0.1525 -0.3423  0.1542
 8088W        W24562   4.677   3.285   1.355 -0.0679  0.1877  0.4129
 8089W        W24563  12.964   4.756  15.338 -0.0426  0.1274 -0.4870
 8090W        W24564   3.465  13.008   0.157 -0.2917  0.1383  0.1585
 8091W        W24565   8.346   8.757   3.006 -0.2096  0.2074 -0.1923
 8092W        W24566   6.070   4.612  13.784 -0.1837  0.4999  0.0026
 8093W        W24567  17.231   5.239  15.606  0.3025 -0.1472  0.3955
 8094W        W24568   3.659  15.610  15.352  0.0103  0.1731  0.1831
 8095W        W24569   7.576   7.181  15.080  0.0884 -0.0368  0.0264
 8096W        W24570   3.819  16.838   2.374 -0.3150 -0.2557  0.0896
 8097W        W24571   9.516  13.448  15.546 -0.0376  0.0586  0.5900
 8098W        W24572   4.061   4.052  15.059  0.1473 -0.3856  0.3169
 8099W        W24573   7.732  12.700   1.410 -0.0485 -0.3184 -0.1229
 8100W        W24574   5.815  16.088   5.262 -0.0497 -0.1393 -0.0918
 8101W        W24575   7.374   8.975   1.935 -0.2688  0.0746 -0.0796
 8102W        W24576   5.295   1.687  14.951  0.1849 -0.1803  0.5055
 8103W        W24577  12.464  10.894   4.031 -0.3782 -0.1161 -0.0528
 8104W        W24578   5.393  15.352   4.164 -0.0981 -0.1834 -0.2993
 8105W        W24579  17.372   9.845  13.630  0.0238  0.2044  0.1237
 8106W        W24580   9.250  17.596   4.131  0.0186  0.2108  0.0698
 8107W        W24581   7.798   2.400   3.523 -0.0102 -0.0765 -0.0808
 8108W        W24582   0.714   0.141   0.611 -0.1163  0.1728 -0.0935
 8109W        W24583  10.419   5.889   0.529 -0.1564 -0.2396 -0.3165
 8110W        W24584   4.383   2.878   4.620 -0.0637  0.1472  0.2076
 8111W        W24585  17.411   7.946   4.942  0.3290 -0.4124  0.0642
 8112W        W24586   4.862   7.075   1.574 -0.1658 -0.1567  0.0421
 8113W        W24587  15.995   7.865  11.136 -0.3214  0.0101  0.1089
 8114W        W24588   0.430   3.864  13.410 -0.0105 -0.2732  0.0240
 8115W        W24589   3.916   4.184   0.263 -0.1463 -0.0252  0.0663
 8116W        W24590  13.927  15.519  12.550  0.0327 -0.0423  0.0660
 8117W        W24591   0.161  14.650   2.236  0.2962 -0.1886  0.2780
 8118W        W24592   1.254  15.110  14.726  0.0824  0.2729 -0.0533
 8119W        W24593   1.435  14.701  14.973  0.0015  0.0823  0.3287
 8120W        W24594  17.740   2.767  14.005 -0.0034  0.0604 -0.0497
 8121W        W24595   1.048   2.738   2.593  0.0728  0.3621 -0.1756
 8122W        W24596  14.183   5.309   3.380  0.0362  0.1231  0.1903
 8123W        W24597  11.684  14.005  11.915 -0.1898  0.1236  0.0523
 8124W        W24598   7.378   3.160   2.483  0.1110  0.2167  0.0165
 8125W        W24599  10.871  12.901   3.115 -0.1115  0.0530  0.0953
 8126W        W24600   7.621  12.882  15.880  0.1982  0.0537 -0.3486
 8127W        W24601  17.374  17.971   2.158  0.1042 -0.1687 -0.0623
 8128W        W24602   3.078  13.040   2.225 -0.3353 -0.0313  0.1474
 8129W        W24603   8.103   8.696  15.819 -0.3237 -0.1799  0.0767
 8130W        W24604   3.802   8.958   2.796 -0.1161  0.0466 -0.0860
 8131W        W24605   7.446  10.236   2.473  0.0915  0.0291  0.1242
 8132W        W24606   7.980   0.492  14.738  0.2015 -0.2340  0.0667
 8133W        W24607   8.091  15.881  10.744  0.2739 -0.2036 -0.0006
 8134W        W24608   5.359   5.572  12.386 -0.2547 -0.0952  0.2594
 8135W        W24609   4.255   6.588   4.295  0.1433  0.2191 -0.1161
 8136W        W24610  12.276   3.936  11.332  0.0260  0.2169 -0.3549
 8137W        W24611  16.160  13.669   5.543 -0.0560  0.1745 -0.1055
 8138W        W24612  16.623   5.376   2.267  0.0422 -0.1616  0.0191
 8139W        W24613  11.211  14.496   1.130 -0.1133 -0.0329 -0.1164
 8140W        W24614   2.554  12.059   3.561  0.4454 -0.0202 -0.0412
 8141W        W24615   1.248  16.526  14.374 -0.2339  0.0714 -0.1118
 8142W        W24616   2.220   7.814   2.666  0.2159 -0.1597 -0.1294
 8143W        W24617   9.927  14.431  13.938  0.2285  0.2297 -0.2991
 8144W        W24618  10.210   3.369  13.403 -0.0238  0.1541  0.2336
 8145W        W24619  12.974   8.103   3.067  0.0499  0.2864 -0.0687
 8146W        W24620  12.444  12.394   0.323 -0.0519  0.1689 -0.1520
 8147W        W24621  12.836  11.371   0.468  0.0022 -0.0153  0.2207
 8148W        W24622   9.420   4.073   4.171 -0.2548  0.0407 -0.0057
 8149W        W24623  11.311  16.466   0.710  0.2909 -0.3637 -0.0361
 8150W        W24624   1.639  10.186  12.501  0.0308  0.1540  0.0590
 8151W        W24625   6.787   5.401  11.531  0.3346 -0.3690 -0.1146
 8152W        W24626  16.959  10.995  15.737  0.1496  0.3018  0.4329
 8153W        W24627  12.995   5.953  11.002 -0.1536  0.0264 -0.5521
 8154W        W24628   3.550  15.228  12.696  0.0155  0.1072  0.0524
 8155W        W24629   5.583   8.040  12.118 -0.1545  0.0121 -0.0334
 8156W        W24630   6.932   2.332  13.373  0.0241 -0.1350  0.1592
 8157W        W24631  17.081  14.901   2.977  0.0951  0.0340  0.2573
 8158W        W24632   4.888  12.140   3.108  0.1221 -0.2093  0.0448
 8159W        W24633   2.869   8.020   1.658  0.0284  0.2150 -0.0304
 8160W        W24634   9.758   2.769  16.338 -0.1087 -0.2211 -0.0452
 8161W        W24635   6.690  10.929  14.899 -0.1518  0.0904 -0.0962
 8162W        W24636  16.312   2.360  13.394  0.1165 -0.0194 -0.0449
 8163W        W24637   0.335   0.729  13.890 -0.4071 -0.1823 -0.0086
 8164W        W24638  12.755  18.280  14.173  0.1767 -0.0654 -0.2027
 8165W        W24639  16.876  12.991   4.148 -0.0378  0.1188 -0.4152
 8166W        W24640   2.279   5.016  12.560  0.3343 -0.2174 -0.2775
 8167W        W24641  16.580   0.239   5.886  0.1148  0.0460 -0.0059
 8168W        W24642   9.477  12.555   1.917 -0.0567 -0.0215 -0.3024
 8169W        W24643   9.395   0.363  12.040 -0.0291 -0.0927 -0.1322
 8170W        W24644   6.579   6.502   2.555 -0.1832 -0.1656 -0.5749
 8171W        W24645   2.616   6.739  14.588  0.2507 -0.1209 -0.2023
 8172W        W24646  16.148  13.663   0.907  0.2642  0.2660  0.1153
 8173W        W24647  17.555  13.619   4.188 -0.0819 -0.2827 -0.4222
 8174W        W24648   2.747  13.664  11.333 -0.0280 -0.1635 -0.0168
 8175W        W24649   7.367  16.025   1.340 -0.0663 -0.3603  0.0241
 8176W        W24650  15.307  15.411  11.844 -0.2576  0.1605 -0.0398
 8177W        W24651   3.340  10.109  15.524  0.2597 -0.1740  0.0180
 8178W        W24652   8.980  12.783  15.628  0.1176 -0.1935 -0.1470
 8179W        W24653  18.278  10.680  14.799 -0.2289 -0.0186  0.1813
 8180W        W24654   1.341   6.788  12.752  0.2148 -0.1799 -0.0153
 8181W        W24655  13.474   7.413  10.762 -0.5756 -0.1745 -0.2579
 8182W        W24656  14.120  12.560   2.218  0.0947 -0.1377  0.0366
 8183W        W24657  10.645   0.276  14.231 -0.2641 -0.2509 -0.0720
 8184W        W24658   6.604   1.139  16.208  0.3201 -0.1161  0.1491
 8185W        W24659  15.052   7.423  15.062 -0.3130  0.1862  0.3878
 8186W        W24660  15.751   8.021  14.986  0.1189 -0.3459 -0.3455
 8187W        W24661  10.564   7.830  10.636 -0.0333  0.1726  0.3374
 8188W        W24662   6.072  17.968   1.003  0.0435 -0.1085 -0.0474
 8189W        W24663   8.079  15.538   5.122 -0.1794 -0.0797  0.1745
 8190W        W24664  10.422  11.052   5.044  0.2415  0.2386 -0.3334
 8191W        W24665   7.966   4.369   0.459  0.0107  0.0673 -0.1345
 8192W        W24666   0.145   7.821   1.579  0.3393  0.1925 -0.0432
 8193W        W24667  12.302   2.539  11.254 -0.2073  0.1620  0.0046
 8194W        W24668   8.133  14.597   5.280 -0.1979  0.1733 -0.0817
 8195W        W24669   6.680   9.124   3.581 -0.0175  0.1594  0.3465
 8196W        W24670   2.483   8.099  14.468 -0.1852 -0.0263  0.2513
 8197W        W24671  14.903   5.080  14.765 -0.0621 -0.2091  0.3021
 8198W        W24672   4.209  15.943   5.407 -0.0152  0.3891  0.1759
 8199W        W24673  14.021   8.409  14.786 -0.0859  0.0447 -0.2695
 8200W        W24674   4.914  14.924  14.650 -0.1209  0.0889  0.0303
 8201W        W24675   0.282  13.820   2.609 -0.0322  0.2051 -0.0088
 8202W        W24676  12.225  12.173   2.998 -0.0422  0.1225 -0.0319
 8203W        W24677  10.804  18.179  13.482 -0.3031  0.0191  0.0023
 8204W        W24678   9.315   0.356   0.075  0.0494  0.4773 -0.1968
 8205W        W24679  11.433   0.730   1.404 -0.0072  0.1440 -0.2804
 8206W        W24680   9.508   9.199   5.714  0.1348 -0.1448 -0.1246
 8207W        W24681   6.201   2.416   2.753  0.0251  0.0732 -0.1169
 8208W        W24682  13.157   7.370   3.982 -0.2221  0.1426  0.2004
 8209W        W24683   3.778   3.456   4.623  0.0656 -0.2861 -0.1667
 8210W        W24684   2.856  15.453   3.024 -0.0704  0.5453  0.2855
 8211W        W24685  17.865   2.405  14.730  0.2341 -0.1603 -0.1864
 8212W        W24686   9.061  11.501  15.749  0.0981  0.0843 -0.2240
 8213W        W24687   1.579   1.857  12.129  0.2295 -0.2361  0.0759
 8214W        W24688   3.012  10.713  13.792 -0.2071 -0.0061 -0.2840
 8215W        W24689   8.550   5.139   1.299  0.2617  0.2394  0.3008
 8216W        W24690  15.422  16.273   2.174  0.3586 -0.0109 -0.2417
 8217W        W24691   2.747   5.870  14.227 -0.0772  0.4373 -0.3057
 8218W        W24692   4.371  17.159   0.468 -0.2057 -0.0103 -0.0181
 8219W        W24693  10.908   3.631   5.622 -0.1615  0.0945 -0.1873
 8220W        W24694  17.139  16.306   5.333  0.1348 -0.2072 -0.1218
 8221W        W24695  12.196   8.616  14.225  0.1023 -0.1407 -0.2633
 8222W        W24696  16.875   9.896  12.021  0.0115  0.2509  0.0205
 8223W        W24697   0.488   2.556   0.561 -0.0912  0.0116  0.0729
 8224W        W24698  10.407  15.400   4.053  0.1448  0.0206  0.0697
 8225W        W24699  12.105  15.687  16.211  0.1422  0.1752 -0.1724
 8226W        W24700   2.789   0.255  15.140  0.0597 -0.2085 -0.0924
 8227W        W24701  15.158  13.298  11.882  0.0553 -0.0060  0.1104
 8228W        W24702  18.385   7.633  16.177  0.1760 -0.4443 -0.2207
 8229W        W24703   7.873   1.316  15.779  0.1063 -0.2392  0.2326
 8230W        W24704   0.454   9.433   4.703 -0.0470 -0.0970  0.1823
 8231W        W24705  15.377   5.127   2.661 -0.0164  0.4159 -0.1288
 8232W        W24706  11.368   1.276   5.088 -0.3310  0.1444 -0.0510
 8233W        W24707   5.817  11.490  14.365 -0.0195 -0.0318 -0.0726
 8234W        W24708   5.986   8.934   2.474  0.0480  0.1460  0.1443
 8235W        W24709  15.401  14.060   4.916 -0.2823 -0.1618 -0.2352
 8236W        W24710   5.282   6.046  10.212  0.0527  0.5230  0.2735
 8237W        W24711  17.396  14.187  12.196  0.1301  0.0667 -0.0185
 8238W        W24712   8.226   7.347  10.796 -0.0937 -0.1909 -0.1953
 8239W        W24713   5.244   4.936   0.640  0.0800 -0.1875  0.2403
 8240W        W24714   8.623  12.069   3.355  0.0976 -0.0694  0.2463
 8241W        W24715  18.158  11.210  14.740  0.0631 -0.1372 -0.0117
 8242W        W24716  15.221   3.388   0.172 -0.1038 -0.2417  0.2593
 8243W        W24717   4.623   2.943  14.236 -0.0327  0.1001  0.2633
 8244W        W24718   5.133  15.658  15.062 -0.0878  0.0624 -0.0624
 8245W        W24719  10.337  12.779  11.710 -0.0560 -0.1644 -0.3421
 8246W        W24720   3.474   4.630   4.740  0.2923 -0.1504 -0.1041
 8247W        W24721   5.575   7.387   4.294 -0.3009  0.2840 -0.4080
 8248W        W24722   2.059   3.337   3.975 -0.0970  0.1798 -0.2041
 8249W        W24723  11.664   7.892  13.502 -0.1178  0.0766  0.1846
 8250W        W24724  17.766  10.295   4.059 -0.1349 -0.2244 -0.1629
 8251W        W24725   6.222  14.086   4.886 -0.3790 -0.0774  0.2817
 8252W        W24726   3.173  17.436  12.384 -0.1996 -0.3484  0.2067
 8253W        W24727   7.640   8.709  12.342 -0.1906  0.3244  0.0640
 8254W        W24728   3.994  17.013   3.280 -0.1247 -0.4236 -0.2320
 8255W        W24729  10.454  15.768  12.781  0.1469  0.0583  0.2086
 8256W        W24730  16.448  10.718  11.412  0.0232  0.2193  0.1174
 8257W        W24731  17.652   8.952   4.262 -0.2572  0.1093  0.0689
 8258W        W24732   1.842   1.999   1.070 -0.2606  0.1028 -0.0912
 8259W        W24733  16.226   6.349  11.264 -0.1454  0.0472 -0.2713
 8260W        W24734  13.383   6.988  15.438  0.0951  0.0731  0.1595
 8261W        W24735   6.982   9.303   9.939  0.3792 -0.0781  0.1386
 8262W        W24736   9.158  13.040   2.327 -0.0642  0.1041  0.2533
 8263W        W24737  13.841   2.002   5.059 -0.2302  0.4373  0.0670
 8264W        W24738   4.614  11.750  11.525  0.1260 -0.0460 -0.1664
 8265W        W24739  16.095   2.197   3.766  0.2066  0.1304  0.0563
 8266W        W24740   9.626   9.992  14.069  0.0398 -0.0993 -0.0427
 8267W        W24741  11.406  17.640   5.430  0.2198 -0.0170 -0.0500
 8268W        W24742   8.844   2.245  14.884 -0.0516 -0.1822  0.5202
 8269W        W24743   7.793   2.659  13.307  0.2817 -0.0012  0.1344
 8270W        W24744  17.490  12.388  12.540 -0.0332 -0.1728  0.0235
 8271W        W24745  10.858   8.924  15.893 -0.2337  0.0104 -0.3580
 8272W        W24746   6.199   2.009  15.874 -0.2414  0.1650 -0.0699
 8273W        W24747   5.026  13.630   5.014  0.2821 -0.1033 -0.0703
 8274W        W24748  13.948   6.425  14.296  0.1185  0.1270  0.2578
 8275W        W24749   7.880  11.230   2.490  0.0233 -0.1546  0.1453
 8276W        W24750  15.561  14.347  11.947  0.1321 -0.1531  0.0250
 8277W        W24751   7.845   6.604  11.214 -0.4585  0.0202 -0.0480
 8278W        W24752  16.208  10.785   5.605 -0.0113 -0.2264  0.1436
 8279W        W24753  17.906   1.498   2.965 -0.1133  0.2694 -0.1198
 8280W        W24754   4.877  15.586   3.853  0.1963 -0.1458  0.0516
 8281W        W24755   5.136   0.488  15.743 -0.2371  0.0711  0.0055
 8282W        W24756   8.849  11.988  13.528  0.0049  0.1529 -0.0854
 8283W        W24757   5.128   4.851   0.041 -0.1677 -0.0915 -0.1394
 8284W        W24758   8.680  14.463  11.722  0.1333  0.0679 -0.1964
 8285W        W24759  11.359  10.300  13.044  0.0574  0.2363  0.1992
 8286W        W24760  13.292  17.558  13.851 -0.1322  0.2245  0.0561
 8287W        W24761   5.942   9.087  14.591 -0.1225  0.1947  0.0022
 8288W        W24762  14.622  18.317   0.571  0.3622  0.1781  0.4795
 8289W        W24763  16.414   1.130   3.639  0.2011  0.0488  0.0536
 8290W        W24764   5.067   2.264   4.224 -0.0126 -0.1010 -0.0564
 8291W        W24765  13.189  10.097  11.354 -0.1392 -0.0288  0.0887
 8292W        W24766  16.713   1.108   1.961 -0.0558  0.1087 -0.0427
 8293W        W24767   2.345  13.197  14.731 -0.0048  0.5879  0.3300
 8294W        W24768   5.597  14.715  13.386 -0.2814 -0.3084  0.0566
 8295W        W24769  12.197  14.584  11.964  0.1650 -0.1798  0.1296
 8296W        W24770   3.856   8.483   0.052 -0.2707 -0.1161  0.1071
 8297W        W24771  15.675  14.376  15.020 -0.1598  0.1887 -0.1496
 8298W        W24772   3.506   9.666   2.984  0.1370 -0.2377  0.0513
 8299W        W24773   1.793   5.341   0.100 -0.0112  0.1245 -0.0697
 8300W        W24774   6.839  10.514   1.948  0.0021 -0.3529  0.0553
 8301W        W24775  16.966   2.407   0.889 -0.0321  0.2959 -0.0055
 8302W        W24776  15.239   9.693   3.024  0.1963  0.2713  0.1995
 8303W        W24777   3.283  13.097  12.747  0.3305  0.0567 -0.0051
 8304W        W24778  11.884  18.237   4.568 -0.1347 -0.1576  0.3592
 8305W        W24779  15.822   7.933   0.252 -0.0909 -0.0207 -0.0596
 8306W        W24780  14.791  14.977   0.119 -0.0182 -0.3548 -0.2419
 8307W        W24781  12.689  11.881  15.583 -0.0586 -0.0067  0.0836
 8308W        W24782   9.249   3.891  12.310 -0.1187  0.2661  0.4067
 8309W        W24783  13.631  14.631  14.229 -0.0572  0.0320 -0.1176
 8310W        W24784   6.740   6.099  12.209  0.1102 -0.1444 -0.3214
 8311W        W24785   4.591   9.632  11.970 -0.0485 -0.0438 -0.0444
 8312W        W24786  13.061   3.926  12.674  0.0724  0.3818 -0.1129
 8313W        W24787  16.606  14.417   3.773 -0.2590  0.0804 -0.2017
 8314W        W24788  16.266  15.302   0.131  0.1360  0.1335  0.0811
 8315W        W24789  12.936   3.987  15.876 -0.1319  0.0592 -0.0833
 8316W        W24790  10.119   3.854  10.667  0.2527 -0.2161 -0.1980
 8317W        W24791  10.079  14.835   2.163  0.0930  0.1393 -0.0480
 8318W        W24792   8.428  14.323   3.464 -0.1140  0.0072  0.3379
 8319W        W24793  11.474  11.571   3.205 -0.2927 -0.0549  0.1019
 8320W        W24794  13.731  12.982  14.206 -0.1419  0.2564 -0.2918
 8321W        W24795   2.365   7.515   3.018 -0.3005 -0.1899  0.1849
 8322W        W24796   9.434  14.934   6.203 -0.0290 -0.0120 -0.0733
 8323W        W24797  16.393   2.681   5.944 -0.1148 -0.1667 -0.0659
 8324W        W24798  10.596   4.073   1.286 -0.3609  0.0985 -0.1697
 8325W        W24799  17.210   2.024   1.191 -0.0201 -0.0737 -0.0429
 8326W        W24800  12.438   4.071   0.056 -0.1025 -0.2047  0.1577
 8327W        W24801  11.427  10.945   4.415 -0.0433  0.0534 -0.0942
 8328W        W24802  10.883   0.355   3.901  0.3270  0.3084 -0.2327
 8329W        W24803  12.718  13.356  15.284  0.2362 -0.0546  0.1947
 8330W        W24804   7.873  16.040   3.378  0.0098  0.0012 -0.4011
 8331W        W24805  13.786  10.091  13.502 -0.0327  0.2205  0.1717
 8332W        W24806  16.511   5.053   0.729  0.0386 -0.1313  0.0686
 8333W        W24807   0.567   4.746  15.314 -0.0238 -0.1310  0.0322
 8334W        W24808   4.995   5.463   2.841  0.0776 -0.2727 -0.2884
 8335W        W24809   6.920  14.810   5.800  0.6290 -0.2207 -0.0067
 8336W        W24810   1.906  12.245  14.775 -0.3893 -0.1284  0.2151
 8337W        W24811   7.207   1.418  13.306  0.0131  0.3736  0.2178
 8338W        W24812  11.333   2.359  13.121  0.1936  0.0991 -0.0425
 8339W        W24813   4.976  18.366   2.321  0.1609 -0.0293  0.0933
 8340W        W24814   4.111  14.934   4.022  0.3461  0.0307  0.0494
 8341W        W24815   4.243  13.457   3.094 -0.2644  0.2501  0.0662
 8342W        W24816  15.322  15.458   3.795  0.1584 -0.0382  0.1267
 8343W        W24817  13.317   8.124   0.613  0.2212  0.0723  0.1214
 8344W        W24818  16.837   2.396   0.335  0.2010 -0.2921  0.0610
 8345W        W24819   0.066   9.161  14.912  0.1007 -0.4433 -0.1471
 8346W        W24820  12.009  13.892   4.842  0.3076  0.0153 -0.0966
 8347W        W24821   1.874   8.561   0.177  0.1038 -0.3799 -0.1935
 8348W        W24822  16.871  16.271  11.039  0.4686  0.2275 -0.1580
 8349W        W24823  11.479   9.860  11.138 -0.2373 -0.0791  0.0455
 8350W        W24824   1.395  14.053  15.888  0.0927  0.0194 -0.0793
 8351W        W24825   8.574   4.899   3.113  0.3716 -0.1580 -0.2992
 8352W        W24826   6.124   0.041  14.765  0.1181  0.0024 -0.1084
 8353W        W24827  17.049   5.627   0.942  0.0944  0.0444  0.0643
 8354W        W24828   1.732  17.419  13.225  0.0485  0.1996 -0.0122
 8355W        W24829  13.939   6.210   1.773  0.0225  0.0389  0.1476
 8356W        W24830  14.609   7.942  15.686  0.2632  0.0029  0.0542
 8357W        W24831  13.811   1.594   4.675 -0.0723  0.2218 -0.2026
 8358W        W24832   9.384  11.153  12.667  0.2247  0.1122 -0.1383
 8359W        W24833   3.419   7.130   4.054 -0.1744 -0.2550 -0.1194
 8360W        W24834   2.092   1.946   0.090 -0.1885  0.1745 -0.2713
 8361W        W24835   1.707   0.408  16.230  0.0958 -0.0442  0.0440
 8362W        W24836  12.591  15.634  16.252  0.0534 -0.0346  0.0099
 8363W        W24837  17.953  11.608  15.017  0.1538  0.1436  0.1771
 8364W        W24838   0.351   4.222   2.729  0.4089  0.1928  0.0293
 8365W        W24839   2.964   3.734  15.014  0.2220 -0.0057  0.0396
 8366W        W24840  13.093   9.739  12.334 -0.0993 -0.0354 -0.1957
 8367W        W24841   3.162  11.368  11.702 -0.0754 -0.0517 -0.2354
 8368W        W24842   2.751  15.688  13.163 -0.0797 -0.3050 -0.0062
 8369W        W24843   7.144   6.367  15.929  0.0290 -0.1288  0.0392
 8370W        W24844  15.315   9.324  10.473 -0.3282  0.0450 -0.1240
 8371W        W24845   5.024   6.841   2.022 -0.1173  0.1150 -0.1921
 8372W        W24846   9.645  17.670   1.244  0.1125  0.0872  0.1976
 8373W        W24847  16.234   2.443   5.085  0.1275 -0.1160  0.0586
 8374W        W24848   1.690  11.156   2.327  0.1137 -0.0676  0.0662
 8375W        W24849   3.161   0.176  12.228  0.0785  0.0073 -0.0369
 8376W        W24850   5.113   6.852  13.050 -0.0562 -0.1871 -0.4493
 8377W        W24851  14.027  10.562   2.283 -0.1260 -0.2372  0.2514
 8378W        W24852  15.861  10.802   4.990 -0.0801  0.0330  0.3746
 8379W        W24853  16.913   2.908   2.999  0.1062 -0.1100  0.0558
 8380W        W24854   4.864   7.205  15.506 -0.4124  0.1917 -0.0426
 8381W        W24855   4.748   4.689   0.425 -0.3408 -0.1467  0.1740
 8382W        W24856  15.603  15.995   4.710 -0.1325 -0.0988  0.0579
 8383W        W24857  11.492  12.700   2.561  0.1395 -0.0780 -0.1597
 8384W        W24858  11.680  16.693   4.356  0.3188  0.2459  0.2226
 8385W        W24859  13.035   8.074  15.830  0.1464  0.2844  0.3736
 8386W        W24860  11.665  15.610  16.063 -0.0559 -0.3327 -0.3522
 8387W        W24861   0.322   1.631   5.750  0.0935 -0.0951 -0.2473
 8388W        W24862   4.132   3.244   1.377 -0.2448 -0.1013 -0.1309
 8389W        W24863  16.059  16.848   0.712  0.0590 -0.0946  0.2245
 8390W        W24864  13.056  11.949   3.753 -0.1839  0.0590 -0.1028
 8391W        W24865   3.638   7.526   2.377 -0.0569 -0.1182 -0.1379
 8392W        W24866  17.567  10.574   0.241  0.1953  0.0169 -0.4428
 8393W        W24867   8.034   5.499   3.623 -0.1509  0.0369  0.2042
 8394W        W24868   9.515  12.051   1.871 -0.0762  0.0517  0.0757
 8395W        W24869   2.527   1.132  14.582 -0.2346 -0.0151 -0.1836
 8396W        W24870  11.277   8.419  15.093 -0.0271 -0.4894 -0.1095
 8397W        W24871   6.869  17.142   0.276 -0.3286 -0.0801  0.0677
 8398W        W24872  14.039   5.358  12.193 -0.0264  0.0470  0.2176
 8399W        W24873  18.195   8.330  13.221 -0.0125 -0.0227  0.3201
 8400W        W24874   2.810  16.011   1.879 -0.1186  0.1045  0.0007
 8401W        W24875   6.158  17.171  14.587 -0.0959  0.1667  0.3108
 8402W        W24876   0.316   3.026   1.257 -0.3387  0.1633 -0.1365
 8403W        W24877   0.264   2.374   4.896 -0.1068  0.1742 -0.1226
 8404W        W24878   0.553   1.339  15.342  0.0496 -0.0182 -0.1109
 8405W        W24879  16.746   6.806  10.655  0.0308  0.0660 -0.0394
 8406W        W24880   0.541  16.252   4.734  0.1496  0.2481  0.2183
 8407W        W24881   3.169  10.226  14.820 -0.0015 -0.1425  0.0046
 8408W        W24882  13.881   3.708  14.839  0.0957  0.1134  0.0358
 8409W        W24883   0.599  13.743   2.204  0.1276 -0.2579  0.3215
 8410W        W24884   3.758  13.480   3.981  0.3331  0.1593 -0.0770
 8411W        W24885   4.479   9.311  12.328 -0.1047 -0.1230 -0.3444
 8412W        W24886  14.549  12.489   2.563 -0.0234 -0.2892  0.0794
 8413W        W24887   6.314   3.621   4.435  0.0424 -0.1056 -0.1607
 8414W        W24888   5.355   6.453   1.109  0.0237 -0.0562 -0.0846
 8415W        W24889  11.413  12.745  11.854  0.1434  0.2269 -0.2053
 8416W        W24890   9.313   4.664   0.740  0.0127 -0.3337  0.1557
 8417W        W24891   5.953   4.395   2.304  0.1493  0.0225 -0.1367
 8418W        W24892   4.896   0.863  16.256 -0.0945  0.1441  0.3592
 8419W        W24893   3.294  16.505   5.030  0.1781 -0.1849  0.0408
 8420W        W24894   3.383  11.371  13.502  0.2933  0.0550 -0.0880
 8421W        W24895   6.470  13.050   3.713 -0.1078 -0.1898  0.1031
 8422W        W24896  11.247   4.537  12.631  0.0181 -0.0726 -0.2582
 8423W        W24897   1.333   1.973   5.406 -0.3272 -0.1450 -0.6894
 8424W        W24898   9.772   8.323  14.585  0.2706  0.2451  0.2670
 8425W        W24899   6.677   2.254   4.489  0.1285  0.4570  0.1742
 8426W        W24900   7.517   9.316   4.615 -0.2906 -0.0399 -0.0002
 8427W        W24901   8.050   4.612   3.773  0.3023 -0.1257  0.0333
 8428W        W24902  12.489  10.790  10.996  0.0842 -0.1715  0.0736
 8429W        W24903  16.313   2.548   2.273  0.0839  0.4600 -0.0107
 8430W        W24904   0.995   8.522   3.906 -0.3049 -0.0630  0.1323
 8431W        W24905   9.556  17.016  12.689  0.0006 -0.0403 -0.1676
 8432W        W24906   0.754   8.375   4.643  0.1755  0.3196 -0.4159
 8433W        W24907  18.136   7.477  13.122  0.0225 -0.3382 -0.1547
 8434W        W24908   1.857   5.435   4.356  0.2178  0.1182 -0.2250
 8435W        W24909  13.660   1.212   2.479  0.0940  0.3049  0.1242
 8436W        W24910  14.590   3.444   1.758  0.2694 -0.3377  0.1552
 8437W        W24911   6.352   2.168  12.409  0.0711  0.0160 -0.2408
 8438W        W24912  13.734   7.542   1.634  0.2360  0.1382  0.0143
 8439W        W24913   6.619  16.714  11.388  0.1568  0.0693  0.0570
 8440W        W24914   5.269  13.327  15.238 -0.0208 -0.5477 -0.2863
 8441W        W24915  14.693  13.605   1.719 -0.0929  0.0466  0.0873
 8442W        W24916   1.340   7.213   0.289  0.2869  0.0593 -0.3799
 8443W        W24917  11.627   3.431  13.685 -0.3194 -0.0552 -0.0332
 8444W        W24918   5.636   6.658   4.616 -0.0293  0.5385 -0.1617
 8445W        W24919   8.904   0.522   1.221  0.0477 -0.0477 -0.0448
 8446W        W24920  14.337  16.632   0.172 -0.4932 -0.0200  0.0539
 8447W        W24921  12.589  11.514   3.782 -0.0046 -0.2971  0.1587
 8448W        W24922   6.623  14.268   0.356  0.2711  0.0572 -0.1071
 8449W        W24923   0.489   3.319   3.126  0.0630  0.2395  0.2501
 8450W        W24924   1.391   2.772  12.536  0.1793 -0.1355 -0.2834
 8451W        W24925  13.282  12.960   0.304  0.0812 -0.0959 -0.0939
 8452W        W24926   7.115  11.183   1.235 -0.1056  0.1203  0.1738
 8453W        W24927   6.944   5.480   2.263  0.1224  0.1549  0.0925
 8454W        W24928  16.413   4.285   2.934 -0.2554  0.1360  0.3308
 8455W        W24929   8.223   0.461   0.340  0.0552  0.1089 -0.0134
 8456W        W24930  12.913  15.483   4.318  0.2270 -0.3369  0.1090
 8457W        W24931   5.022   2.411  12.777  0.0261  0.3049  0.1288
 8458W        W24932  10.842  17.831  14.539  0.1217  0.2381  0.1901
 8459W        W24933   3.213  13.105   4.586 -0.2080 -0.1985  0.2480
 8460W        W24934   3.213   6.197   1.570 -0.2799  0.3509  0.0813
 8461W        W24935  15.966  13.721  12.637  0.1725 -0.0162 -0.1200
 8462W        W24936  13.209   1.855  11.269 -0.4260  0.4742  0.0451
 8463W        W24937   8.635  16.942  16.129 -0.3850 -0.0690 -0.3427
 8464W        W24938   5.338  12.865  15.402  0.2050  0.4944  0.2739
 8465W        W24939   9.020   7.031  14.660 -0.0604  0.2679 -0.0904
 8466W        W24940  17.453   5.414  10.217 -0.2755  0.1013  0.1848
 8467W        W24941  12.776  12.215   2.754  0.0529  0.1303 -0.0823
 8468W        W24942   5.152  12.512  16.106 -0.3103 -0.0398 -0.2021
 8469W        W24943   3.268  14.361   3.451  0.0782 -0.1511 -0.3543
 8470W        W24944   5.754  11.678   0.827 -0.0463  0.0354 -0.1871
 8471W        W24945   4.749   3.139  15.313  0.0136  0.0347  0.0243
 8472W        W24946  17.787   1.926  12.852 -0.0686  0.2026  0.1069
 8473W        W24947   7.562  15.603   0.591  0.0266  0.0892 -0.0887
 8474W        W24948   0.473  13.351  12.481 -0.2180 -0.1285  0.0425
 8475W        W24949  12.593   8.226   4.192 -0.0593 -0.3742 -0.2163
 8476W        W24950   1.847  18.296  15.106 -0.2353 -0.0626 -0.3364
 8477W        W24951   3.278  14.683   5.992 -0.3246 -0.1870  0.1347
 8478W        W24952  10.516  12.385  12.627  0.0402  0.1474 -0.0324
 8479W        W24953  16.327   2.836   3.841 -0.2455  0.2503 -0.2222
 8480W        W24954  11.509  16.459  13.890  0.3054 -0.3101  0.0260
 8481W        W24955   0.132  12.602  14.812  0.1525 -0.3453  0.4253
 8482W        W24956   5.756   1.898   6.321 -0.1453  0.2242 -0.2498
 8483W        W24957   0.285  13.296  13.681 -0.0149 -0.1783  0.0490
 8484W        W24958  11.096   4.977   1.723  0.1441 -0.0431 -0.0398
 8485W        W24959   6.146   9.726  15.998 -0.0007 -0.1297  0.1286
 8486W        W24960   9.060  13.015  15.067 -0.1366  0.0404  0.3923
 8487W        W24961   2.713  17.578   0.034 -0.0675  0.1527 -0.0032
 8488W        W24962   5.298  13.669   0.142 -0.1674  0.3336  0.4678
 8489W        W24963  10.421  13.291  14.392  0.0380  0.0878  0.1139
 8490W        W24964  14.415  15.448   2.182  0.1641 -0.0614  0.4387
 8491W        W24965  10.074  13.408  13.243  0.3792 -0.3013 -0.0814
 8492W        W24966   8.050  15.234  16.169  0.0496  0.0440  0.0682
 8493W        W24967   9.404   5.762   2.621  0.1632 -0.0784  0.2950
 8494W        W24968   7.752   8.503  13.848 -0.0693 -0.1050  0.0300
 8495W        W24969  12.618   9.804  12.202 -0.2680  0.0517 -0.0172
 8496W        W24970  18.042  18.291  11.610 -0.0462  0.1393 -0.0506
 8497W        W24971  11.910   8.963   0.947 -0.1975  0.1006 -0.4115
 8498W        W24972  17.755   0.350  13.866  0.0981  0.2609 -0.0029
 8499W        W24973  15.010  15.801   1.961  0.2101  0.0504 -0.1535
 8500W        W24974  17.644   2.882   3.372 -0.2113  0.1312  0.1995
 8501W        W24975  16.022  18.237  16.249  0.0528 -0.2383  0.0971
 8502W        W24976  14.227  10.921  14.440 -0.1883 -0.2172  0.0282
 8503W        W24977  12.499  13.312  16.278 -0.2544 -0.0612 -0.3089
 8504W        W24978  16.529  13.355  11.779 -0.1969  0.0892  0.1860
 8505W        W24979   5.107  13.266   0.508 -0.1812 -0.3066  0.0383
 8506W        W24980   4.760   1.106   1.864  0.1367 -0.0664  0.0595
 8507W        W24981  14.484  12.781  12.948  0.1447  0.0096 -0.1042
 8508W        W24982  13.403  17.481  15.180 -0.1697 -0.3148  0.2434
 8509W        W24983   0.762  10.699   4.115 -0.1871 -0.1620  0.1757
 8510W        W24984   7.573  13.092  11.734  0.0817 -0.2595 -0.4173
 8511W        W24985  10.607   4.509  16.140 -0.1917  0.0553  0.1405
 8512W        W24986   4.162  16.641  13.150 -0.0985  0.4867  0.1373
 8513W        W24987   5.093  16.825   1.071 -0.0102  0.2931  0.1672
 8514W        W24988   5.644   4.121  12.316  0.2153  0.2757  0.0623
 8515W        W24989   3.637  10.947   5.439 -0.0965  0.1714  0.0301
 8516W        W24990   2.170   6.536   4.998  0.0338 -0.1977 -0.1190
 8517W        W24991  17.424   1.743  14.366  0.0905  0.1128 -0.3386
 8518W        W24992  17.652   9.396  15.944  0.0117  0.0514 -0.0368
 8519W        W24993   0.869   0.486   1.809 -0.0162  0.0183 -0.1501
 8520W        W24994  14.963  13.717  12.778  0.2867  0.1564  0.3911
 8521W        W24995  14.644   4.232  11.369 -0.0422 -0.3633 -0.0193
 8522W        W24996   0.147   8.004  13.337 -0.0295 -0.2452  0.0233
 8523W        W24997   4.559  14.988   0.678 -0.1124  0.0204 -0.1449
 8524W        W24998  12.518  13.948   4.835 -0.1420 -0.1039  0.2641
 8525W        W24999   7.611  16.803  13.109 -0.0130  0.1470 -0.0296
 8526W        W25000  14.438  11.115   0.842  0.4064  0.0390 -0.0284
 8527W        W25001  12.839  11.473   1.660  0.0863 -0.1082  0.0267
 8528W        W25002  17.202   6.408  13.912  0.1008  0.1065  0.1883
 8529W        W25003  10.907   3.386  11.919 -0.5505  0.0131 -0.4707
 8530W        W25004  10.412   9.330   2.230 -0.1340  0.0120  0.0808
 8531W        W25005  12.077   7.591  11.303  0.1759 -0.1575  0.2990
 8532W        W25006  11.147   4.146  14.101 -0.5939 -0.1846 -0.3705
 8533W        W25007   6.301   4.310  13.017 -0.0267 -0.3278  0.1209
 8534W        W25008  16.554   1.106  11.521 -0.0218  0.0820 -0.0339
 8535W        W25009   6.241  12.205  13.210 -0.1708 -0.2505 -0.0734
 8536W        W25010  14.001   8.592   4.963 -0.4245 -0.0836  0.1777
 8537W        W25011   3.317  18.032   0.284 -0.2545  0.0593  0.0065
 8538W        W25012   4.628   4.696   5.166 -0.1860  0.1743 -0.1199
 8539W        W25013  13.069  13.921   4.714  0.3111  0.1316  0.1730
 8540W        W25014   0.117  16.425   1.432 -0.1111 -0.1706 -0.5103
 8541W        W25015  12.598  10.350   2.274  0.0869  0.2018  0.0728
 8542W        W25016  12.731  13.163   4.807  0.0614 -0.3064  0.1472
 8543W        W25017   1.962  18.283  14.531 -0.1238  0.1284 -0.0229
 8544W        W25018   7.135   5.651  14.630 -0.1127 -0.0324  0.1216
 8545W        W25019   3.741  14.830   5.053  0.1081 -0.1372 -0.1097
 8546W        W25020   0.499  13.753  11.709 -0.1903 -0.1195  0.2720
 8547W        W25021  12.265   8.121   4.608  0.0518  0.0478  0.3240
 8548W        W25022   3.540  14.164  15.965  0.0487 -0.1099  0.0403
 8549W        W25023  15.552  17.167  13.260 -0.1321 -0.0871  0.1796
 8550W        W25024  15.567   1.434   0.412 -0.1375  0.0525 -0.0567
 8551W        W25025  15.256  13.492   4.454  0.1875 -0.0580  0.1985
 8552W        W25026   8.931  13.489  14.079  0.0451  0.1804  0.0021
 8553W        W25027   2.614   4.531   0.656 -0.1374 -0.0372  0.0506
 8554W        W25028   7.768   3.202  13.030 -0.1354 -0.2023  0.0826
 8555W        W25029   4.991   6.088  14.656  0.0414 -0.2929  0.1259
 8556W        W25030   5.648  15.991  14.901  0.1141 -0.0311 -0.2844
 8557W        W25031  16.031  10.288   1.829 -0.0045  0.2554 -0.0961
 8558W        W25032   2.586   5.420   0.883  0.2277 -0.3627 -0.0542
 8559W        W25033   9.083  17.031   1.485 -0.1691 -0.0207 -0.1707
 8560W        W25034  16.449  12.158  15.004  0.1123 -0.0072  0.1121
 8561W        W25035   7.692   9.664  15.194  0.0508  0.1241 -0.0988
 8562W        W25036   1.301  11.341   3.304  0.2806 -0.6078 -0.0173
 8563W        W25037   6.287   0.279   3.690 -0.3462  0.2705 -0.0570
 8564W        W25038  18.389   8.743  14.621  0.2521 -0.1495 -0.1611
 8565W        W25039   9.137   5.768  13.778  0.0828 -0.2960  0.1918
 8566W        W25040  12.788   3.802   0.983  0.0662 -0.1615 -0.0628
 8567W        W25041   9.949   2.699   4.965 -0.3425 -0.0527 -0.1501
 8568W        W25042   3.539  15.337   5.217  0.0702 -0.0825 -0.2651
 8569W        W25043  17.393  10.952  10.867 -0.0493  0.0232  0.0546
 8570W        W25044   8.743   4.005   4.295  0.0760 -0.0359  0.3911
 8571W        W25045  14.796   6.049  14.230  0.0737  0.0627 -0.0469
 8572W        W25046   0.930   4.295   2.217  0.2662  0.0441 -0.1800
 8573W        W25047   5.652   7.430  11.434  0.0834  0.1973  0.0907
 8574W        W25048   4.361   8.955   2.121 -0.2177  0.2984  0.2626
 8575W        W25049  10.469   4.065  11.005 -0.2484  0.0432  0.2838
 8576W        W25050  10.256   3.512  12.908 -0.1071 -0.3986  0.2421
 8577W        W25051  11.769  11.901   0.998 -0.0027  0.0281  0.2161
 8578W        W25052  11.442   1.169  12.459 -0.0745 -0.1607 -0.2956
 8579W        W25053   6.532   0.772   0.930 -0.0812  0.4843 -0.1694
 8580W        W25054  17.540  15.421   1.954 -0.0033 -0.0865  0.2773
 8581W        W25055   1.954   4.354   4.198 -0.0243  0.3387 -0.0005
 8582W        W25056  12.229  18.036   2.069 -0.0785  0.2233 -0.3452
 8583W        W25057  12.320   5.035   2.646  0.0880  0.0855 -0.1516
 8584W        W25058  13.694   6.335  12.647  0.0405 -0.0249  0.1868
 8585W        W25059   7.230  11.565  12.418 -0.1380  0.0595  0.0095
 8586W        W25060   4.787  13.143   4.805  0.2303  0.0998 -0.0242
 8587W        W25061  17.174  17.506   0.957 -0.0533  0.0452 -0.0849
 8588W        W25062   9.656  12.049   0.888 -0.1949 -0.0836  0.0949
 8589W        W25063  11.034  16.916  12.353 -0.1298  0.1119 -0.1241
 8590W        W25064  17.121  14.139  15.957 -0.2699 -0.0138 -0.4591
 8591W        W25065  11.841  17.389   5.228  0.2234  0.2315  0.0260
 8592W        W25066  11.126   3.302  16.035  0.0375 -0.1027 -0.1187
 8593W        W25067   0.858   8.289   0.761 -0.0228  0.0438 -0.0617
 8594W        W25068  18.145  17.705   5.988 -0.2376 -0.0050  0.1446
 8595W        W25069  11.692  10.847  16.014  0.0408 -0.0450  0.1583
 8596W        W25070  16.786  11.948   4.024  0.2928  0.1491 -0.1771
 8597W        W25071  13.236  13.237   4.565 -0.3060 -0.0498 -0.0353
 8598W        W25072  13.176  13.490   5.420 -0.1478 -0.1545  0.4181
 8599W        W25073   5.498  18.377   2.303 -0.0671 -0.1022  0.0032
 8600W        W25074   0.789  11.205  13.237 -0.0946 -0.1991  0.0759
 8601W        W25075  14.966  11.944  11.344 -0.0821 -0.0760 -0.0514
 8602W        W25076   5.278  10.924   2.913 -0.3456 -0.6861  0.0915
 8603W        W25077   4.816   6.563   5.219 -0.2078 -0.0906 -0.0634
 8604W        W25078   7.572   1.908   0.333  0.1891  0.0340 -0.1489
 8605W        W25079  12.745  14.511   2.757  0.3059 -0.0327 -0.4037
 8606W        W25080   1.620   5.980  12.392 -0.0853  0.2136  0.0376
 8607W        W25081   7.167   3.793  15.649 -0.2779  0.2135  0.4577
 8608W        W25082  12.399  16.176  10.530  0.1809 -0.1803 -0.0576
 8609W        W25083   5.666   9.052   5.203  0.0927 -0.2906 -0.0381
 8610W        W25084  13.020  15.654  11.584 -0.2904 -0.2214  0.0965
 8611W        W25085  13.870   9.941   4.803  0.0477  0.1028  0.0672
 8612W        W25086   8.944   7.258   1.397  0.0690 -0.0384 -0.1832
 8613W        W25087   4.109  10.147   3.264 -0.0659 -0.2956 -0.3502
 8614W        W25088   5.185   6.990   3.364 -0.2142  0.1824 -0.2286
 8615W        W25089   5.846   4.534   4.363 -0.0837  0.1009 -0.2427
 8616W        W25090   3.281   7.944   4.384  0.1572 -0.5001  0.1162
 8617W        W25091  14.472  13.323  14.668  0.3071  0.1158 -0.0312
 8618W        W25092   4.463  16.409   5.555 -0.1182 -0.0720 -0.0221
 8619W        W25093   1.630  16.241   1.776  0.5151 -0.1679 -0.0894
 8620W        W25094   9.184  11.015  12.004 -0.2051  0.0336  0.2066
 8621W        W25095   7.805   0.684   0.222 -0.2181 -0.1382  0.1151
 8622W        W25096  10.588   7.356  10.608  0.2112 -0.2847  0.0753
 8623W        W25097   6.499  17.739   3.349 -0.1597  0.1561 -0.1560
 8624W        W25098   0.748   4.545  14.361  0.1449  0.0775  0.1187
 8625W        W25099  14.196   8.101  16.079 -0.0777  0.1627  0.1442
 8626W        W25100   2.556  12.312  15.283 -0.0045 -0.1748 -0.1798
 8627W        W25101   0.534  10.860  14.394 -0.1717  0.1995 -0.1726
 8628W        W25102   4.886  14.627   0.877  0.2074 -0.1869  0.0434
 8629W        W25103   5.780  12.235  14.735 -0.0245 -0.2612 -0.1054
 8630W        W25104  11.566   5.183   1.706  0.0878 -0.1360  0.1454
 8631W        W25105   4.366   5.128  15.409 -0.0446 -0.0584  0.1313
 8632W        W25106  17.662  14.590  15.258 -0.0016  0.1015 -0.1039
 8633W        W25107  15.490   9.073   2.613  0.1895  0.1602  0.0571
 8634W        W25108   7.945  10.448   1.461 -0.0836  0.1241 -0.3946
 8635W        W25109   0.526   4.933   4.132 -0.1174 -0.0511  0.2273
 8636W        W25110   3.825   6.194  11.714  0.0179 -0.0311 -0.2537
 8637W        W25111  14.290   3.145  13.579  0.1279  0.0381 -0.2029
 8638W        W25112  14.839  13.193  11.500 -0.0648  0.0126 -0.1658
 8639W        W25113   5.346   9.299   5.679  0.0554 -0.1470 -0.2252
 8640W        W25114   2.673  10.129  14.386 -0.2413  0.1348  0.4628
 8641W        W25115  10.295  12.817  12.567  0.2050  0.0645  0.0648
 8642W        W25116   8.959  16.427   1.009 -0.0996 -0.1457 -0.0355
 8643W        W25117  15.657   2.234   4.328  0.0953 -0.0944 -0.0564
 8644W        W25118   0.367   0.577  12.272  0.2311 -0.5080 -0.1915
 8645W        W25119   7.572  13.695   3.322 -0.0809  0.4285  0.1575
 8646W        W25120   4.369   4.980   3.223 -0.0014  0.0173 -0.0555
 8647W        W25121   0.844  17.352   1.317 -0.0274 -0.3083  0.0078
 8648W        W25122  17.164   2.379   3.716 -0.0297  0.0123 -0.0076
 8649W        W25123  17.979   0.375   1.249  0.5233 -0.0074 -0.0348
 8650W        W25124   7.972   6.208  15.065  0.2342  0.2129 -0.2627
 8651W        W25125   7.511   5.981   3.657  0.1760  0.0431  0.0074
 8652W        W25126   1.957  15.949   1.564  0.0556  0.2994 -0.1315
 8653W        W25127   0.530   4.847   0.456  0.0454  0.5089 -0.1095
 8654W        W25128  10.141   1.808  12.438 -0.0577 -0.1221  0.2919
 8655W        W25129  12.453  12.094  12.586 -0.0279 -0.1266  0.1567
 8656W        W25130  14.939  16.414  12.760 -0.1415 -0.0896  0.0265
 8657W        W25131  13.012  13.313  11.247  0.0180 -0.1544  0.2243
 8658W        W25132  11.251   0.975   1.894  0.0987 -0.2126 -0.1891
 8659W        W25133  14.091   2.734  11.594  0.1825  0.1319  0.1048
 8660W        W25134  10.413  11.606  11.923  0.3052  0.0981 -0.0982
 8661W        W25135  14.288   4.633  14.405  0.2347  0.0167 -0.4261
 8662W        W25136   9.809   8.497   1.832  0.0660 -0.1301 -0.3511
 8663W        W25137  15.274  10.701   1.456 -0.2695  0.0609  0.1043
 8664W        W25138  17.144  11.320  14.475  0.0104 -0.0947  0.1318
 8665W        W25139  15.864   0.041   4.650  0.0159 -0.1502 -0.1205
 8666W        W25140   2.767   4.465   3.732  0.1365 -0.3812 -0.0721
 8667W        W25141  15.940   7.571   4.048  0.4116  0.1594  0.0293
 8668W        W25142  17.589   1.470  12.971  0.2586 -0.1948  0.0786
 8669W        W25143  13.430   4.904  11.902 -0.0343 -0.3940 -0.0291
 8670W        W25144   6.813  15.867  11.971  0.2433  0.0944  0.0952
 8671W        W25145   8.737   5.167  14.868  0.2174  0.0214 -0.0064
 8672W        W25146  11.810  17.173  14.920 -0.2615  0.1288  0.1030
 8673W        W25147   6.044   6.671  14.235  0.0725  0.2107 -0.3696
 8674W        W25148  16.448  18.075   2.157  0.1413  0.2046 -0.0477
 8675W        W25149  14.551  16.450   2.177  0.1054 -0.1178  0.0412
 8676W        W25150   5.907   9.390   1.098  0.0387 -0.2273  0.2052
 8677W        W25151   2.479   2.206   0.351 -0.0859 -0.4148 -0.0726
 8678W        W25152   0.429   2.756   0.085  0.0426 -0.2346 -0.1472
 8679W        W25153   6.650   5.601  14.814 -0.0600 -0.2284 -0.0275
 8680W        W25154  14.402  15.394  13.482 -0.3177  0.2472 -0.0769
 8681W        W25155   0.929   2.613  15.189  0.0214  0.0122 -0.1785
 8682W        W25156   7.902  12.536  12.533 -0.3006  0.2158 -0.0455
 8683W        W25157  12.083   7.165   0.197 -0.1287  0.1837 -0.1417
 8684W        W25158  15.273   5.388   0.304  0.1637 -0.2372  0.0869
 8685W        W25159   0.447  14.444  13.457  0.1253 -0.1648 -0.0915
 8686W        W25160   1.341   9.546   4.517  0.0645  0.1447 -0.0913
 8687W        W25161   7.935   4.998  13.958  0.1113 -0.0957 -0.1580
 8688W        W25162  15.280  14.356  16.095 -0.0220 -0.2549 -0.1438
 8689W        W25163   1.621  12.656   0.501 -0.0286 -0.2297  0.1267
 8690W        W25164   0.835  10.756  13.411 -0.2808  0.6536  0.2382
 8691W        W25165   8.952   9.907   1.579 -0.0179  0.0093  0.0242
 8692W        W25166  16.984  11.659  12.457 -0.0739  0.2217  0.0418
 8693W        W25167   4.174   0.591   2.140 -0.0369  0.6066 -0.1370
 8694W        W25168  17.899   5.814  11.053 -0.0035 -0.0344 -0.2079
 8695W        W25169   0.018  12.859   3.232  0.0225  0.1939 -0.3251
 8696W        W25170  14.944   9.989   2.750  0.0534  0.0835  0.2636
 8697W        W25171   9.850  14.726   1.749 -0.2414 -0.0076  0.3294
 8698W        W25172  15.888   5.480   5.229 -0.3979 -0.2342 -0.0056
 8699W        W25173  17.270   5.323   1.300 -0.1138 -0.0243 -0.3569
 8700W        W25174   0.805  12.712   3.522  0.0234 -0.0094 -0.5284
 8701W        W25175   1.202   2.540  14.362  0.1049 -0.3637 -0.1991
 8702W        W25176   8.282   9.359   1.513 -0.1959 -0.4069 -0.1054
 8703W        W25177   9.305   0.603   6.387  0.2570 -0.0900  0.2673
 8704W        W25178   2.056  11.834   3.606 -0.0010 -0.1387  0.1247
 8705W        W25179   9.934   8.491  13.704  0.1000 -0.0842 -0.0698
 8706W        W25180  11.189   5.523   2.988 -0.0148  0.0778  0.2065
 8707W        W25181  17.512   0.141  11.188 -0.5063  0.1992 -0.1720
 8708W        W25182   0.934   9.436  12.543  0.2637  0.0324 -0.0053
 8709W        W25183   3.267   4.590   5.208 -0.1544 -0.0467 -0.0200
 8710W        W25184  16.081  10.850   2.902  0.2055 -0.1101 -0.2220
 8711W        W25185   3.265  10.278  11.592 -0.1847 -0.2091 -0.2074
 8712W        W25186   5.063   6.284   3.144  0.0187 -0.2427  0.0887
 8713W        W25187   3.560  12.713  12.729 -0.4214  0.1085 -0.0192
 8714W        W25188  12.319   9.657  10.933 -0.2668 -0.1171 -0.1031
 8715W        W25189  10.401   3.223   2.903  0.2320  0.2105  0.2230
 8716W        W25190  12.120   6.401  13.562 -0.0717  0.0530  0.2890
 8717W        W25191   6.415   6.060   0.691 -0.0457  0.0192  0.2597
 8718W        W25192  11.358  12.710   3.052 -0.1044 -0.1868 -0.2575
 8719W        W25193  10.659   9.501   4.362  0.0362 -0.0499  0.2914
 8720W        W25194  17.420  14.934  16.335  0.1191 -0.1098 -0.1069
 8721W        W25195   0.454   8.029  15.452  0.1257 -0.5056 -0.2703
 8722W        W25196  18.079   4.178   5.570  0.0637 -0.0323 -0.1525
 8723W        W25197  11.496   9.750   3.615 -0.2248 -0.0531  0.0445
 8724W        W25198  16.983   8.309  14.705 -0.0273 -0.2209  0.0907
 8725W        W25199   9.830  17.028  14.474 -0.2211  0.0485 -0.0619
 8726W        W25200   8.998  12.672   4.610 -0.0833  0.2386 -0.2428
 8727W        W25201   5.230   6.703   2.502 -0.1103  0.1107 -0.0866
 8728W        W25202   7.528  18.095  13.724  0.1735 -0.0181 -0.0631
 8729W        W25203  17.032  18.275  15.359 -0.0810  0.0905 -0.0156
 8730W        W25204   6.820   4.341  12.779 -0.3367 -0.0035 -0.3629
 8731W        W25205  10.802  16.747  12.816  0.0658 -0.2158  0.0813
 8732W        W25206   7.519   0.642  16.180 -0.2003  0.0172 -0.1286
 8733W        W25207   6.276   6.784   2.224  0.3926  0.1255 -0.1887
 8734W        W25208  12.113  11.284   3.726  0.1750 -0.1435  0.0605
 8735W        W25209   4.392   3.891   0.131  0.4130 -0.0132  0.0353
 8736W        W25210   2.261  13.615   1.649 -0.0071 -0.2439 -0.1605
 8737W        W25211   1.721   5.591   2.285 -0.1919  0.2022  0.1850
 8738W        W25212   2.429   9.904  11.719 -0.0521 -0.1158  0.0912
 8739W        W25213   6.216  17.974  13.961 -0.2096  0.2157  0.0855
 8740W        W25214   9.217  14.678   4.826  0.2819 -0.3320 -0.0859
 8741W        W25215   9.903  12.562  13.910 -0.1468  0.0752  0.0700
 8742W        W25216   2.965   7.600   4.917 -0.1100  0.0665 -0.2121
 8743W        W25217  13.223  18.370  14.431 -0.2056 -0.0828  0.2649
 8744W        W25218  12.832  13.751   1.120 -0.1196 -0.0821  0.2454
 8745W        W25219   3.171  10.130   2.742 -0.1455 -0.2021 -0.0401
 8746W        W25220  12.309   7.516  12.378 -0.1421 -0.4500 -0.0711
 8747W        W25221   7.702  14.486  13.202 -0.0249 -0.1427  0.0355
 8748W        W25222  12.095  11.156  11.841  0.0353 -0.0004 -0.1809
 8749W        W25223  15.349   2.899  13.173 -0.2414  0.0646  0.0035
 8750W        W25224   4.421  15.108  15.614 -0.0168  0.2791 -0.2681
 8751W        W25225   8.392  17.934  15.080 -0.2232  0.0054  0.1252
 8752W        W25226   2.264  13.012  12.035 -0.0484 -0.0385 -0.2914
 8753W        W25227  15.153   3.092  13.649  0.2043 -0.2054 -0.3838
 8754W        W25228  10.584   1.794   3.753 -0.0148  0.0461  0.0839
 8755W        W25229  15.711  15.997   2.578  0.1188 -0.1364 -0.0189
 8756W        W25230   5.333  17.763  15.254 -0.1860  0.2233 -0.0467
 8757W        W25231  10.813   0.336  13.576  0.1629 -0.0351 -0.2640
 8758W        W25232   3.187  10.379   3.393  0.3819 -0.0433 -0.1995
 8759W        W25233   1.174  10.424   4.080  0.2523  0.1546 -0.0662
 8760W        W25234   2.388   0.158  14.361  0.1626 -0.0458 -0.0158
 8761W        W25235  12.523  18.367  16.155  0.4194 -0.2170  0.0944
 8762W        W25236  12.014   5.036   1.816 -0.2407  0.1001 -0.1880
 8763W        W25237  11.816   6.417   0.768 -0.0566  0.2188 -0.0096
 8764W        W25238  15.056   9.915  15.829  0.3492 -0.1856  0.4136
 8765W        W25239   8.334   6.390   1.768 -0.1247  0.0902  0.1243
 8766W        W25240   0.181   6.111  12.162  0.1563  0.0276 -0.1361
 8767W        W25241  15.473  12.260   2.877 -0.2744  0.0680 -0.2408
 8768W        W25242  17.723   6.740   2.025 -0.0126 -0.1629  0.0028
 8769W        W25243  10.344  16.486   1.014  0.0974 -0.1388  0.2896
 8770W        W25244   9.248  13.401   0.574 -0.0799  0.1756  0.1733
 8771W        W25245   2.408  13.451  12.850  0.2268  0.1722  0.1020
 8772W        W25246  15.608   4.421   3.406 -0.2196 -0.4609  0.2872
 8773W        W25247   0.001   0.126  15.795  0.1566  0.0045 -0.1074
 8774W        W25248  11.100  12.393   4.803  0.1513 -0.1583 -0.3153
 8775W        W25249   1.789  12.517   0.035  0.1351 -0.0003  0.1619
 8776W        W25250   6.322   0.504  12.710  0.1243  0.2016 -0.0902
 8777W        W25251   2.693   3.420  14.156 -0.2184 -0.0734  0.2911
 8778W        W25252   7.492  16.022  16.109  0.2348 -0.2764  0.2383
 8779W        W25253  16.257   5.583  14.356 -0.1547  0.2413  0.1944
 8780W        W25254   3.706   1.483   2.449 -0.3723  0.0341  0.0437
 8781W        W25255   9.608  13.847  15.203  0.3476 -0.1005  0.0904
 8782W        W25256   5.955  15.830  13.851  0.0555 -0.1273 -0.0855
 8783W        W25257   1.855   1.094  11.637  0.1713 -0.1745  0.3083
 8784W        W25258   8.071  14.696   2.578 -0.0759  0.1565  0.1545
 8785W        W25259   1.250   2.863   3.506  0.0538 -0.3147 -0.1112
 8786W        W25260  15.640  17.153   5.929  0.2719  0.0793  0.0424
 8787W        W25261   9.876  12.772  11.264  0.0430  0.0834  0.0443
 8788W        W25262   1.897  17.586  15.232 -0.1646  0.0656  0.1258
 8789W        W25263  17.452  16.172   3.822  0.0250 -0.0465  0.0627
 8790W        W25264  16.560   4.018   0.645  0.0175  0.0194  0.0768
 8791W        W25265  12.369  10.270  13.369  0.0754  0.0836 -0.0911
 8792W        W25266   3.019   7.079  11.345  0.1652  0.0269 -0.0445
 8793W        W25267   3.427  14.328  15.380  0.2533 -0.0365  0.1057
 8794W        W25268  10.138  17.229  12.119  0.0541 -0.3014  0.0275
 8795W        W25269   1.980  11.708   1.354  0.0243 -0.0919  0.2618
 8796W        W25270  17.207  15.250   0.346  0.1385 -0.1424 -0.1303
 8797W        W25271  15.875  14.696  12.030  0.0163  0.0686 -0.1958
 8798W        W25272  11.646   8.409  13.485 -0.0111  0.0228  0.0477
 8799W        W25273  18.294  15.092  14.757 -0.0747  0.0752 -0.2056
 8800W        W25274   3.705   2.431   0.912  0.3404  0.1578  0.1340
 8801W        W25275   1.302   9.169   4.179  0.0687  0.1450 -0.2733
 8802W        W25276   9.873  13.691   2.941  0.0173 -0.3481  0.0806
 8803W        W25277   5.834  17.514   0.088  0.3651  0.2335 -0.1990
 8804W        W25278  14.357   6.417   3.055  0.3081 -0.1466  0.4073
 8805W        W25279   6.029  13.779   3.345  0.4765  0.1784  0.1167
 8806W        W25280  14.789   7.929   0.333 -0.1517 -0.0250  0.1147
 8807W        W25281  14.998  11.510  14.372  0.1496  0.3258  0.3134
 8808W        W25282  10.884  10.323   2.741  0.0438  0.2923 -0.0533
 8809W        W25283   8.689  17.366  15.890  0.1356  0.0220  0.1174
 8810W        W25284   1.761  10.212  13.865 -0.2405  0.5814  0.1047
 8811W        W25285   7.844  12.008  14.348 -0.0436 -0.1239 -0.2137
 8812W        W25286  14.592  10.365  11.126 -0.0533 -0.0160 -0.0018
 8813W        W25287   8.620  13.246  13.772 -0.2731 -0.1670  0.2331
 8814W        W25288  10.133   8.040  14.768  0.2140  0.2112  0.0177
 8815W        W25289  11.572  16.536   2.839  0.1570 -0.0265  0.2028
 8816W        W25290   2.317  12.599   1.715  0.2050 -0.4156  0.2198
 8817W        W25291   5.688   4.867   2.007  0.4121 -0.0303 -0.2121
 8818W        W25292   0.882   6.443   1.644  0.2404 -0.3028 -0.1216
 8819W        W25293  12.193  14.681   5.932  0.0508  0.2402  0.4210
 8820W        W25294   9.398  15.275  15.677 -0.4780 -0.2324 -0.0525
 8821W        W25295  17.519   7.374  10.018 -0.1065 -0.3233 -0.0396
 8822W        W25296   9.090   1.774   2.744 -0.3438  0.3826 -0.3162
 8823W        W25297  10.346  18.339   6.130  0.1275  0.1561  0.1996
 8824W        W25298   7.388  11.984  15.523  0.2682  0.0045  0.2302
 8825W        W25299   0.103   0.921   4.354 -0.1816  0.0326  0.3802
 8826W        W25300   6.239  18.336   2.013  0.2963 -0.2009  0.1006
 8827W        W25301   8.955  13.732   2.998  0.0015  0.0205  0.0336
 8828W        W25302   6.568   6.778   1.815  0.1822 -0.0973 -0.1325
 8829W        W25303   7.394  16.713   3.929  0.2070 -0.0584 -0.1043
 8830W        W25304  14.264   3.817  15.266 -0.1643 -0.2637  0.4123
 8831W        W25305   6.476   5.531   2.606 -0.2342 -0.1034 -0.0103
 8832W        W25306  16.429   1.334   3.172  0.5259 -0.1865  0.1234
 8833W        W25307  14.066  17.501   0.138  0.1670 -0.3353  0.2328
 8834W        W25308   3.853   3.558   1.787 -0.0266  0.0254 -0.3815
 8835W        W25309  14.972   2.331   3.044  0.2771  0.2115 -0.0297
 8836W        W25310   1.173   0.987  13.391 -0.0784  0.2119 -0.0900
 8837W        W25311   2.310  10.261   5.484 -0.0057 -0.0382  0.0603
 8838W        W25312   5.460   9.541  14.096 -0.1625  0.3229  0.0802
 8839W        W25313  10.450  11.383  13.101  0.0031  0.0926 -0.1915
 8840W        W25314   5.078   4.561   2.721  0.0400  0.4413 -0.1184
 8841W        W25315   8.008   4.289   5.144  0.2122  0.1163  0.0104
 8842W        W25316   5.409   7.725   0.125  0.0431  0.5384  0.2233
 8843W        W25317  17.095  14.612  12.472  0.3493  0.1669  0.0059
 8844W        W25318  13.019  10.153   5.380 -0.0132  0.0107 -0.0122
 8845W        W25319  11.469   1.696   4.316  0.0220  0.1117 -0.1253
 8846W        W25320   7.530   4.347  14.315  0.0114 -0.3335  0.2941
 8847W        W25321  13.530  17.502   4.896  0.1119  0.0077 -0.1413
 8848W        W25322   5.287   8.800  11.269  0.1245  0.0448  0.2125
 8849W        W25323  18.263   3.237  16.004 -0.1824 -0.0834 -0.1995
 8850W        W25324  18.107  15.892   5.271  0.0803 -0.3076  0.2055
 8851W        W25325   6.983  16.485  13.809 -0.0546  0.0507  0.1609
 8852W        W25326  14.032   6.257  14.766 -0.2088 -0.2405  0.0264
 8853W        W25327  15.452  10.514   0.577  0.0678  0.0700  0.1848
 8854W        W25328  17.394   9.964   4.772  0.1402  0.0059  0.0382
 8855W        W25329  11.686   8.288   3.140  0.1948 -0.0252  0.1108
 8856W        W25330   0.190  15.185   1.409  0.1672  0.0461 -0.1319
 8857W        W25331  14.601   9.106   2.556  0.1202 -0.1577 -0.1225
 8858W        W25332   1.978   7.768   3.821  0.0573 -0.1990  0.0197
 8859W        W25333  16.205  13.507  14.535 -0.3899 -0.3775 -0.1484
 8860W        W25334   6.362  18.375   2.764 -0.1986 -0.3678 -0.0333
 8861W        W25335   5.277   9.617  15.889  0.2626  0.3291 -0.0440
 8862W        W25336  12.109   2.137  15.048 -0.1784 -0.2159 -0.2431
 8863W        W25337   5.645   1.771   0.296 -0.0461  0.0892  0.3837
 8864W        W25338  15.760  13.826   0.537  0.0440 -0.0928  0.3453
 8865W        W25339   2.379  18.316   3.197 -0.2267 -0.2311  0.1662
 8866W        W25340   6.381   5.570  12.998 -0.0200  0.0072  0.0291
 8867W        W25341   0.653  12.311   5.261  0.0797  0.2725  0.1121
 8868W        W25342   0.253   6.577   2.294  0.0441 -0.1338  0.0464
 8869W        W25343   1.471   5.822  13.106 -0.1555 -0.1992  0.1013
 8870W        W25344  15.949   5.700   4.069  0.0597  0.0260  0.1826
 8871W        W25345   6.817  13.382  12.360  0.0263  0.0728 -0.2557
 8872W        W25346   9.971  18.041   0.116 -0.2504 -0.2270 -0.1055
 8873W        W25347   2.441   5.263   2.028  0.0630 -0.2232 -0.0024
 8874W        W25348  13.002  11.181   2.422  0.2272 -0.0571 -0.1830
 8875W        W25349   3.847  14.835  13.054 -0.0994  0.2176  0.0849
 8876W        W25350   0.260  17.432   3.247 -0.0092  0.2419 -0.1937
 8877W        W25351   3.206   8.139  12.276 -0.1997  0.3293 -0.0522
 8878W        W25352  13.834  17.610  11.827 -0.0866  0.0121  0.4194
 8879W        W25353  18.353   4.117   0.463  0.0093  0.1975 -0.0048
 8880W        W25354   6.508   5.022   4.584 -0.0538  0.2673 -0.0409
 8881W        W25355  10.165   5.749   4.816 -0.0344  0.3004  0.1801
 8882W        W25356  18.377   6.822  15.827 -0.0416 -0.1177 -0.6014
 8883W        W25357   4.706   4.938   0.966  0.0547 -0.1780  0.2064
 8884W        W25358  15.296  16.104   2.748  0.1872  0.1480 -0.2248
 8885W        W25359  16.348   2.432  16.046  0.3601  0.1414  0.0659
 8886W        W25360   4.965  10.361  14.711  0.0239  0.1234  0.1903
 8887W        W25361   2.466   4.033   0.652  0.0118 -0.2303  0.3921
 8888W        W25362   2.897  11.731   1.495  0.0934 -0.3126  0.0844
 8889W        W25363   5.455   8.321  11.173 -0.1841  0.0930  0.2861
 8890W        W25364   6.966   7.478  11.092 -0.3637 -0.2483 -0.1191
 8891W        W25365  11.006  11.675   1.022  0.1246 -0.1344  0.1779
 8892W        W25366  14.329   7.514  12.000  0.0556 -0.1055  0.0536
 8893W        W25367  15.271   4.493  12.993  0.0309 -0.1453 -0.0138
 8894W        W25368   5.018  16.589  13.363 -0.1009  0.1220  0.0786
 8895W        W25369   2.630   5.001   4.336  0.2382  0.2430 -0.0587
 8896W        W25370  15.476   5.222   4.501 -0.1973  0.0192  0.0075
 8897W        W25371  10.041  16.102  15.155  0.0035  0.0336  0.2613
 8898W        W25372  14.929   1.608   1.157  0.0262 -0.1937  0.0882
 8899W        W25373   7.237   6.758  15.468  0.3345 -0.1610 -0.1242
 8900W        W25374  13.891   1.267  12.541 -0.1281 -0.0231  0.0679
 8901W        W25375   1.968  16.008   4.704  0.1193  0.2553  0.0067
 8902W        W25376  10.467   0.219  15.681 -0.1391 -0.0171 -0.1792
 8903W        W25377  14.469  14.922   3.021  0.3112 -0.1313 -0.1837
 8904W        W25378   4.752   3.763   2.425  0.3930  0.1623 -0.0675
 8905W        W25379  16.427  11.490  13.621 -0.1389  0.1786  0.3834
 8906W        W25380   5.887   4.753   3.408 -0.2619 -0.2803 -0.0411
 8907W        W25381  11.198   6.480   2.665 -0.1016 -0.1737 -0.0265
 8908W        W25382  15.838   6.225   4.116  0.0822  0.1566  0.0392
 8909W        W25383   3.989   8.791   1.838 -0.0995  0.0161 -0.1326
 8910W        W25384   9.607   6.960  10.715  0.0401  0.0395 -0.0026
 8911W        W25385  13.124   5.259  16.297  0.0343  0.1364  0.0058
 8912W        W25386  16.812  11.690   4.652 -0.0390 -0.1016 -0.2004
 8913W        W25387  10.097   4.190  16.055  0.1400  0.0491 -0.2328
 8914W        W25388  11.153   5.528   1.685 -0.2057  0.1547  0.2349
 8915W        W25389  10.775  11.897  15.332  0.0348  0.0855  0.0024
 8916W        W25390  12.044   0.050  14.257  0.4045 -0.0953 -0.0474
 8917W        W25391  10.937   6.753   1.432  0.0189  0.1804 -0.4668
 8918W        W25392   4.399  11.532  15.040  0.0664 -0.2791 -0.1346
 8919W        W25393  10.074  18.105   5.692 -0.0746 -0.2432 -0.0376
 8920W        W25394  17.044   5.305  14.635 -0.2256  0.0965 -0.0386
 8921W        W25395   9.482  17.208  15.687 -0.0600 -0.0477  0.1693
 8922W        W25396  17.340  17.156  12.814 -0.0982  0.2604 -0.0429
 8923W        W25397   0.250  11.689  14.549 -0.0505 -0.0870  0.1795
 8924W        W25398  12.171  10.617   5.444 -0.1948  0.2738  0.1575
 8925W        W25399  13.102   6.700  14.599  0.1016 -0.2042  0.1327
 8926W        W25400   7.786   8.089  11.059 -0.1947  0.0327 -0.0137
 8927W        W25401  11.271  17.343  15.816 -0.1501 -0.2689  0.1896
 8928W        W25402   0.766  11.973  12.138 -0.0718 -0.0126 -0.1352
 8929W        W25403  14.505  15.896   5.074 -0.0807 -0.0299  0.2032
 8930W        W25404  12.582  11.077  13.627 -0.1045 -0.0075 -0.2491
 8931W        W25405   3.871   5.798   3.148  0.0932  0.0056 -0.0608
 8932W        W25406   4.324  17.290   6.139  0.0521  0.2192 -0.3566
 8933W        W25407  13.311   3.305   0.059  0.5619  0.1268  0.1532
 8934W        W25408  10.875   4.446  13.767  0.0255 -0.1014  0.0973
 8935W        W25409  10.834   1.413  13.992  0.0579  0.0417  0.1253
 8936W        W25410  17.117   0.445   0.723  0.2425 -0.1456  0.0694
 8937W        W25411  17.358  11.327   1.938 -0.3617 -0.3222 -0.0739
 8938W        W25412   3.952   9.752   1.299  0.0864 -0.0307  0.0789
 8939W        W25413  14.590   0.506  14.000  0.1173 -0.1190 -0.0332
 8940W        W25414   5.637   4.324   5.322  0.2153 -0.0147 -0.3041
 8941W        W25415   4.082  12.178   6.185 -0.0194  0.3182 -0.1575
 8942W        W25416   0.190  14.073   1.451 -0.0075 -0.3049  0.2046
 8943W        W25417  11.516  13.828   1.968 -0.0311 -0.0680 -0.1887
 8944W        W25418   8.164   3.346  11.730  0.1207  0.0074 -0.2307
 8945W        W25419   3.596  14.709  14.467 -0.1255 -0.0442 -0.2326
 8946W        W25420  16.784   0.858   3.870 -0.1400  0.2599 -0.0040
 8947W        W25421   2.935   4.467  12.368  0.2012  0.1740 -0.4314
 8948W        W25422   8.229   7.342  13.012  0.2400  0.0973 -0.0530
 8949W        W25423   6.481  10.060  12.830  0.0303  0.0866  0.0767
 8950W        W25424   0.118   9.192  12.508 -0.3628 -0.3032 -0.0001
 8951W        W25425   4.284  17.974  14.289  0.0197 -0.0675 -0.0093
 8952W        W25426  12.079   3.287  15.029 -0.1850 -0.1253 -0.1792
 8953W        W25427   0.267  17.856   2.410 -0.0961 -0.2217  0.0167
 8954W        W25428   4.557   2.170   4.313  0.0878 -0.0150  0.0302
 8955W        W25429  11.795   9.058  14.663  0.3276  0.0032  0.3806
 8956W        W25430   4.512   0.947  13.528  0.0371 -0.1151 -0.3547
 8957W        W25431  15.198  16.094  15.512 -0.1320 -0.1632  0.2665
 8958W        W25432  14.354  12.773  16.331 -0.1814 -0.0822 -0.2227
 8959W        W25433  13.333   9.697   0.777 -0.5013  0.1581 -0.1645
 8960W        W25434  18.274  16.196   3.136  0.0380  0.1438 -0.0810
 8961W        W25435  14.003  12.735   5.053  0.2152  0.2283 -0.1394
 8962W        W25436  11.147   0.023   4.446 -0.1300 -0.0548  0.0072
 8963W        W25437   5.597   4.355   2.705 -0.2928  0.0513 -0.1697
 8964W        W25438   0.389  14.721   1.819  0.2834  0.2411 -0.2160
 8965W        W25439   9.982  13.561  14.257 -0.0564 -0.2591 -0.0723
 8966W        W25440   8.668   0.352  11.900 -0.0487 -0.1224 -0.3830
 8967W        W25441  15.655  10.431  12.600 -0.1048 -0.1435  0.2727
 8968W        W25442  15.318  14.493   4.649 -0.0088 -0.2197 -0.0360
 8969W        W25443   2.165   4.153   5.140  0.2105 -0.0434 -0.0894
 8970W        W25444   9.278   3.511   1.509 -0.1070 -0.0035  0.1945
 8971W        W25445   7.433  16.549  14.083  0.2144 -0.2134 -0.2155
 8972W        W25446  12.953  16.559  11.138 -0.1812  0.3157  0.2261
 8973W        W25447   0.075   0.247  14.599 -0.1038 -0.2739  0.2628
 8974W        W25448  18.173   3.219  10.968 -0.1857 -0.1216 -0.1461
 8975W        W25449  15.466  12.589   0.255  0.3275 -0.0843 -0.0483
 8976W        W25450   0.836  17.258  12.695 -0.0783 -0.0262 -0.3344
 8977W        W25451   1.891   8.855  15.867  0.0734  0.3110  0.1571
 8978W        W25452   6.589   1.736   0.630 -0.4017 -0.1018  0.0659
 8979W        W25453   7.896  18.104  15.055 -0.1294 -0.0999 -0.1091
 8980W        W25454  16.751   0.474   5.304 -0.4055  0.1695 -0.0437
 8981W        W25455   1.347   5.517  16.208  0.0980 -0.1905 -0.2124
 8982W        W25456  15.405   2.656   2.996 -0.0147 -0.0450 -0.1001
 8983W        W25457  17.328   2.810  12.809 -0.0016 -0.0358  0.0151
 8984W        W25458   4.610  14.550   0.475  0.1070  0.1096  0.0960
 8985W        W25459   6.480   6.626  13.134  0.0377  0.3750  0.3180
 8986W        W25460  14.793  16.539   2.666  0.0626 -0.0950 -0.0262
 8987W        W25461   4.552  14.709  14.920 -0.0628  0.1883  0.4492
 8988W        W25462  15.651  16.912  15.770 -0.1984  0.2460 -0.3081
 8989W        W25463   7.015  16.820  14.190  0.1791 -0.0586 -0.2521
 8990W        W25464   5.605  10.315   3.222 -0.1761  0.1402 -0.2803
 8991W        W25465   3.211   3.778  13.258 -0.2374 -0.0547  0.2028
 8992W        W25466  14.676   4.033   0.355 -0.1886 -0.1316  0.0133
 8993W        W25467   1.592   6.466   2.412  0.0807 -0.3138  0.1561
 8994W        W25468   5.148   3.014   5.231 -0.0167 -0.2322 -0.3776
 8995W        W25469  11.251  10.101  13.472 -0.0213 -0.0723 -0.0767
 8996W        W25470  14.337   5.447  13.648  0.1948  0.3323  0.1894
 8997W        W25471   0.903   6.648   0.662 -0.3422 -0.1782 -0.0094
 8998W        W25472  12.105  17.119  12.830  0.2140  0.1944 -0.2137
 8999W        W25473  12.048   6.746  13.125  0.1418 -0.2534  0.2362
 9000W        W25474  12.968   5.131  12.088 -0.5553  0.0371 -0.0630
 9001W        W25475   8.899   7.323  15.050  0.2530  0.0685  0.3693
 9002W        W25476   5.491   3.471   3.022  0.1264  0.0578 -0.1429
 9003W        W25477   7.265  15.445   3.481  0.0364  0.1323 -0.3440
 9004W        W25478   6.568   8.891  13.129  0.5774  0.1474  0.0893
 9005W        W25479   5.463  16.359   5.051  0.2289  0.1077 -0.0753
 9006W        W25480   7.575   7.686   2.746 -0.0185  0.2115 -0.1176
 9007W        W25481   7.068   2.316  15.685 -0.3754 -0.1118 -0.1726
 9008W        W25482  11.992   1.379   1.958 -0.0751 -0.2899 -0.2017
 9009W        W25483   6.985   3.300  13.866  0.2975  0.1293 -0.0744
 9010W        W25484  16.473   0.023  15.624 -0.1516  0.2101 -0.0671
 9011W        W25485  15.396  13.757  11.051  0.3536  0.1772 -0.4688
 9012W        W25486  10.379   1.917  15.067  0.2919 -0.0603  0.2628
 9013W        W25487   5.425   4.903  14.971  0.2573  0.0155 -0.0146
 9014W        W25488   3.743   8.321   0.889  0.2910  0.3439 -0.2334
 9015W        W25489   4.864   1.638  15.692 -0.4582 -0.1473 -0.3151
 9016W        W25490   5.785   3.594  13.030 -0.1062 -0.0837  0.0754
 9017W        W25491  15.762   1.861   1.318 -0.1675  0.0852 -0.1525
 9018W        W25492  14.394   3.705   0.019  0.1272 -0.1036  0.0031
 9019W        W25493  11.607   8.911  11.276 -0.3532  0.0340  0.0248
 9020W        W25494  10.113  14.530   4.487  0.0557  0.0240 -0.0301
 9021W        W25495  11.988  16.989   5.504 -0.0773 -0.0516 -0.2145
 9022W        W25496   5.015  16.670   6.190 -0.1338  0.2288 -0.1925
 9023W        W25497  14.114   9.478  10.577  0.1069  0.0086 -0.4544
 9024W        W25498  13.792   5.237  13.675  0.1838  0.2009  0.1906
 9025W        W25499  17.138   4.862   0.182  0.0247  0.2374 -0.0561
 9026W        W25500  12.466   9.173   1.758  0.0921 -0.1112 -0.1733
 9027W        W25501   3.260   7.390   4.589 -0.1444 -0.1379  0.1508
 9028W        W25502  16.280   7.156   0.783  0.1217  0.0634  0.3424
 9029W        W25503  17.800  10.385   2.395  0.2456  0.2017  0.0586
 9030W        W25504   6.123  12.811   5.102  0.0522 -0.0516 -0.2947
 9031W        W25505   8.872  12.823  11.868 -0.4015 -0.0789 -0.0355
 9032W        W25506   3.084  15.073   6.241 -0.4645 -0.0137  0.3426
 9033W        W25507  12.753  12.644   2.497 -0.0171 -0.1629  0.3168
 9034W        W25508  14.298  15.518  11.838  0.2082  0.0523 -0.1329
 9035W        W25509   8.140  11.676   4.249  0.3703 -0.1698 -0.2364
 9036W        W25510  10.320   8.677  16.206 -0.0745  0.0434 -0.2440
 9037W        W25511   9.560  13.023   1.973 -0.2169  0.1077  0.0582
 9038W        W25512  17.726  14.331  13.801  0.1391 -0.0562  0.0531
 9039W        W25513  15.416   9.429  11.550 -0.0784 -0.0234 -0.2314
 9040W        W25514  15.210  10.865   3.342 -0.3404 -0.2239  0.0261
 9041W        W25515   2.553   0.014  13.801  0.1817 -0.3711  0.1112
 9042W        W25516  11.968   7.222   4.502  0.1081 -0.1303  0.3222
 9043W        W25517  15.651   7.164   3.285 -0.1201  0.2182 -0.0194
 9044W        W25518  17.510  10.450  14.262  0.1119  0.2823 -0.1949
 9045W        W25519  17.861   4.020   2.677 -0.0547  0.2040  0.1767
 9046W        W25520  14.440  17.085  16.269 -0.0952  0.2478 -0.2810
 9047W        W25521   3.512   6.096   2.223 -0.2991 -0.1741 -0.0348
 9048W        W25522   9.245   4.243  16.298 -0.0314  0.0212 -0.2833
 9049W        W25523   4.873   2.604  13.492  0.4551 -0.0626  0.1097
 9050W        W25524   3.649   2.318   2.989  0.1355 -0.1221 -0.3719
 9051W        W25525  12.821   3.489  11.852 -0.0104 -0.1944  0.2715
 9052W        W25526   1.473   7.775  15.197 -0.3000  0.0535 -0.0736
 9053W        W25527   6.885   2.469  14.677 -0.2892 -0.0508  0.0607
 9054W        W25528   8.645  11.245   1.482 -0.0795 -0.0977  0.0450
 9055W        W25529  13.685   8.781   5.287 -0.4057 -0.0437 -0.0744
 9056W        W25530   3.717   3.892   3.028  0.1142 -0.2354 -0.0286
 9057W        W25531  15.919   4.678   2.393  0.1262 -0.3793 -0.1529
 9058W        W25532  11.613   7.237   2.699 -0.7389  0.1362  0.0562
 9059W        W25533   8.803   6.517  15.985  0.0678  0.1624 -0.0253
 9060W        W25534  15.128   8.655  14.575 -0.0748 -0.0107  0.0545
 9061W        W25535  13.379   4.703   1.081  0.2894  0.0194 -0.0380
 9062W        W25536   9.189  15.179  13.367  0.0836 -0.2082 -0.4955
 9063W        W25537  15.988  12.968  14.793 -0.1165  0.1275 -0.1641
 9064W        W25538   2.029   5.176   3.526  0.0136  0.4770 -0.0641
 9065W        W25539   9.323   7.083   5.725  0.1949 -0.2710 -0.1848
 9066W        W25540  16.310   3.951   1.877  0.0379  0.2563 -0.0136
 9067W        W25541   9.289   7.181  16.097 -0.1646  0.0923 -0.0492
 9068W        W25542  16.185  15.629   1.495 -0.0300  0.2804 -0.0371
 9069W        W25543   9.759   7.740  14.460 -0.1964 -0.0587 -0.2551
 9070W        W25544  13.906   9.920  16.264  0.1142 -0.2652 -0.2251
 9071W        W25545  11.393   2.319   4.846  0.1677 -0.4156 -0.0557
 9072W        W25546  17.358   0.983   3.706  0.4357 -0.1124  0.3279
 9073W        W25547   1.882  15.041   5.572 -0.0471 -0.3106  0.1461
 9074W        W25548  15.649   7.027  16.166 -0.0825  0.3982  0.0422
 9075W        W25549  10.447   9.124   4.094  0.3222 -0.1237  0.2536
 9076W        W25550  16.090   2.784  15.602  0.1777  0.2333  0.1792
 9077W        W25551   5.102  16.750  12.079 -0.1226  0.2559  0.5125
 9078W        W25552   4.997  14.938   0.415  0.2576 -0.2741 -0.0569
 9079W        W25553   4.657  16.934   0.003 -0.0349 -0.0956  0.0710
 9080W        W25554  13.452   1.942  13.909  0.3476  0.0215 -0.3408
 9081W        W25555   8.091   9.269  15.091 -0.0199  0.0721  0.3241
 9082W        W25556   4.121   3.530  14.853  0.1467 -0.0354 -0.0790
 9083W        W25557   8.394   6.724   0.463 -0.1319  0.1093  0.0336
 9084W        W25558  13.072  16.565   0.136 -0.5113  0.0358  0.0937
 9085W        W25559   6.426  10.945  15.313  0.0303  0.2652 -0.2779
 9086W        W25560   9.627   3.127  15.911  0.0886  0.3522  0.2189
 9087W        W25561  18.151   7.140  16.250  0.0535 -0.0437 -0.0655
 9088W        W25562   6.051   2.362   2.194 -0.1860 -0.2536 -0.0479
 9089W        W25563   3.795  13.130  13.451  0.2551  0.1870 -0.0478
 9090W        W25564  10.586  18.144   3.555 -0.1208  0.2428 -0.0608
 9091W        W25565  11.526  16.804  13.525  0.0095 -0.1918  0.0079
 9092W        W25566  10.020   5.744  11.771  0.2106  0.0102 -0.2188
 9093W        W25567   1.372   4.151  15.485  0.2112 -0.3049  0.1327
 9094W        W25568  13.712   6.781  14.580  0.0228 -0.0452  0.0095
 9095W        W25569  16.663  15.137   5.146 -0.1232  0.2786 -0.0773
 9096W        W25570   2.227   0.318   1.236  0.0271 -0.1363 -0.2019
 9097W        W25571  11.505  17.314  13.390  0.1652  0.1258  0.1066
 9098W        W25572   3.876   5.431   4.337  0.0904 -0.1407  0.2372
 9099W        W25573  10.780   7.076  12.953  0.0817 -0.0265 -0.0169
 9100W        W25574   6.971   3.007  16.153  0.2190  0.2250  0.0715
 9101W        W25575   8.743  12.843   2.515 -0.3156 -0.2186 -0.2534
 9102W        W25576  12.937   2.957  12.161  0.0529  0.0085  0.2952
 9103W        W25577  12.844   0.216  11.562  0.0815  0.2062  0.0748
 9104W        W25578   0.111  10.452   1.414 -0.1006 -0.1568 -0.0337
 9105W        W25579   0.512  17.041   5.414 -0.2321 -0.1279  0.0040
 9106W        W25580  12.584   1.305  11.926 -0.0741 -0.2913 -0.0066
 9107W        W25581   9.814  13.461   3.615  0.3243 -0.0424 -0.2137
 9108W        W25582   1.287   7.365  11.942  0.0475 -0.2991  0.0874
 9109W        W25583   9.023  17.434  14.696 -0.1173 -0.0076  0.2138
 9110W        W25584   7.244   8.929   4.507 -0.1878 -0.0546 -0.2141
 9111W        W25585   4.720  12.185  14.451 -0.2271  0.2896 -0.2288
 9112W        W25586   8.143  18.168   5.850  0.2334 -0.1045 -0.0303
 9113W        W25587  10.857  10.142   2.297  0.2830 -0.2103 -0.0482
 9114W        W25588   6.979   6.806   0.897 -0.0045  0.1278  0.2267
 9115W        W25589   4.945  17.817   2.449 -0.1436 -0.1392  0.0711
 9116W        W25590   5.198   8.071  14.015  0.2575 -0.1635 -0.4240
 9117W        W25591   7.987  17.537   4.322 -0.3032  0.1291  0.1943
 9118W        W25592  18.314   7.848  12.762 -0.1294  0.3576 -0.3137
 9119W        W25593  10.356   7.156   0.539 -0.0915 -0.1663 -0.3908
 9120W        W25594  11.597  12.159  11.858  0.2647 -0.0332  0.2530
 9121W        W25595   5.027  14.219   0.352 -0.0884 -0.0626 -0.4633
 9122W        W25596   2.629   5.890  16.254 -0.1022  0.2681 -0.0186
 9123W        W25597   5.711  16.771  14.627 -0.1756  0.0888  0.0709
 9124W        W25598   7.653  16.044   0.870 -0.0084 -0.1795 -0.0228
 9125W        W25599  16.683  14.701  12.239 -0.1494 -0.2842  0.1529
 9126W        W25600   5.791   7.201  11.885  0.1177  0.0348 -0.0176
 9127W        W25601   2.151   0.784   4.850  0.0812  0.1251  0.0215
 9128W        W25602   0.846   0.433  14.828  0.0637  0.1758  0.1327
 9129W        W25603   8.799   6.033  13.232 -0.1112  0.1376 -0.1826
 9130W        W25604   6.750  16.108   1.894 -0.1198  0.3202 -0.2483
 9131W        W25605  17.606   6.638  13.687  0.1780 -0.0618  0.1983
 9132W        W25606   0.142   7.320  12.888 -0.0762 -0.1988 -0.0966
 9133W        W25607   5.770  16.758   1.386  0.1248  0.1498 -0.0264
 9134W        W25608   9.424  12.471   0.981 -0.0569 -0.0507 -0.1639
 9135W        W25609  12.130  16.498   0.853  0.0558  0.3417 -0.4176
 9136W        W25610  16.231   4.259  16.170 -0.2727  0.0440 -0.0106
 9137W        W25611   5.702  12.506   2.529  0.2506 -0.1446  0.0090
 9138W        W25612   4.051   0.931   5.825  0.2790 -0.2406 -0.3226
 9139W        W25613   1.866  10.485  13.465  0.1263  0.1971  0.0864
 9140W        W25614   8.011  18.280  13.709 -0.1036 -0.1564  0.1768
 9141W        W25615  15.134   2.766  11.420 -0.0935 -0.2080  0.2335
 9142W        W25616  17.110   4.878   6.076  0.2031  0.0402 -0.4242
 9143W        W25617  12.370  16.640  13.814  0.1894 -0.1938  0.1520
 9144W        W25618  13.692   8.567   3.276 -0.2765 -0.1293  0.0464
 9145W        W25619  12.641  16.017  14.558  0.1381 -0.2361 -0.0184
 9146W        W25620  17.761  11.158  13.203 -0.0054 -0.1464  0.2155
 9147W        W25621  15.011   2.503  13.371 -0.0706 -0.0162  0.3144
 9148W        W25622   9.861  16.471   2.738 -0.0325 -0.3377  0.1333
 9149W        W25623   7.536  15.237   3.854  0.2629  0.4335 -0.2019
 9150W        W25624   8.293  12.451  15.484  0.1911 -0.1716 -0.2686
 9151W        W25625   1.239   9.440   5.474 -0.1903 -0.2078 -0.0309
 9152W        W25626  16.602   3.622  14.296  0.2969  0.1018  0.0958
 9153W        W25627   1.663   8.735   1.521 -0.1127  0.2915 -0.0773
 9154W        W25628   0.582  10.995   3.688  0.0116  0.0850 -0.1696
 9155W        W25629  16.549   3.098  13.923 -0.0631  0.1028 -0.0025
 9156W        W25630  11.546  17.156   5.573  0.0923  0.0499 -0.1601
 9157W        W25631  18.098  13.718  12.899  0.1892 -0.0921  0.3181
 9158W        W25632   5.227  15.963   2.612 -0.0954  0.2602  0.1169
 9159W        W25633  14.501   6.845  13.013  0.1681  0.3820 -0.3838
 9160W        W25634   7.639   4.357   4.073  0.0730 -0.0732  0.2013
 9161W        W25635  16.756   6.592   4.945  0.1012  0.3049  0.3359
 9162W        W25636   3.767   3.827   3.999  0.0387 -0.1523 -0.0055
 9163W        W25637   5.784   0.498   4.743  0.1956  0.0424 -0.1687
 9164W        W25638  16.192   6.177   1.379 -0.0569  0.0926 -0.0456
 9165W        W25639  10.681   0.443   1.824  0.1543  0.3349  0.0318
 9166W        W25640   0.128  12.460   4.051  0.0815  0.4278  0.0802
 9167W        W25641  15.852   8.479   4.989  0.1095 -0.2086 -0.1309
 9168W        W25642  13.881  15.312  12.092 -0.0315 -0.0002 -0.0900
 9169W        W25643  11.297  18.218   0.219  0.1153  0.3133  0.1034
 9170W        W25644   9.103   3.015  11.676  0.1039 -0.1610  0.0717
 9171W        W25645  17.849  13.058   0.324 -0.3280 -0.1309  0.0605
 9172W        W25646   2.957  11.488  14.755  0.0717  0.0851 -0.2316
 9173W        W25647  12.105  14.277  14.972 -0.0462  0.1308 -0.0452
 9174W        W25648   2.082   8.181   6.058 -0.3002  0.0402 -0.1502
 9175W        W25649   3.394  18.205   1.692  0.2091 -0.0405  0.0156
 9176W        W25650  13.112  14.952   0.725 -0.0939  0.1045  0.4111
 9177W        W25651   4.082  12.585   3.275 -0.1058 -0.0572 -0.0659
 9178W        W25652   4.102   9.996   4.270 -0.0874  0.0458  0.1423
 9179W        W25653  12.105   0.458   4.153  0.1111 -0.3206  0.1055
 9180W        W25654   4.050  17.583  14.450  0.2379  0.1814  0.0917
 9181W        W25655   4.585   3.384   4.733  0.2520  0.0002  0.3645
 9182W        W25656   8.973  11.925  11.345  0.1944  0.3789  0.0173
 9183W        W25657   5.217   2.697   3.089 -0.2232  0.1866 -0.0183
 9184W        W25658  12.646  13.100  13.499 -0.0922  0.2648  0.4229
 9185W        W25659  12.239   4.558   2.522  0.1108  0.0544  0.0377
 9186W        W25660   9.027  11.514  16.214  0.0431  0.3391 -0.2349
 9187W        W25661  10.516   6.261  15.466 -0.0045 -0.1653 -0.4587
 9188W        W25662   8.100  17.858   0.711  0.2199 -0.2518  0.1191
 9189W        W25663  10.144  16.489  13.225  0.4241 -0.1270 -0.0343
 9190W        W25664  16.196   7.905  11.592  0.1435  0.4420  0.3369
 9191W        W25665  13.383  18.374  15.029  0.0798 -0.2039  0.0186
 9192W        W25666   1.113   7.478   6.055 -0.3784  0.0448 -0.3618
 9193W        W25667   3.164  17.884   2.013  0.1522 -0.2628  0.0263
 9194W        W25668   5.424  16.259   4.448 -0.1492  0.3062 -0.2334
 9195W        W25669   0.294   8.378   4.842  0.0256 -0.1989  0.1620
 9196W        W25670   6.586   5.579  15.304 -0.0291  0.2247  0.2909
 9197W        W25671   8.693   0.718   1.622  0.2075  0.2142  0.0013
 9198W        W25672   6.136   7.697   3.590 -0.0031 -0.1887 -0.3303
 9199W        W25673   9.891   8.559  10.737 -0.0632 -0.0748 -0.0185
 9200W        W25674   7.795   5.564  12.857  0.0427  0.1172  0.1570
 9201W        W25675   0.506   2.321   3.289 -0.2506  0.0157 -0.3492
 9202W        W25676   8.374   7.336   3.625  0.0922  0.1191 -0.2114
 9203W        W25677  14.885  15.487  12.583 -0.0210  0.3446 -0.1392
 9204W        W25678   3.349   0.901   3.456  0.1642 -0.1458  0.3067
 9205W        W25679   9.323   4.052   3.598 -0.1123 -0.1054 -0.1019
 9206W        W25680   6.939   0.780  14.040  0.1812 -0.0193  0.1074
 9207W        W25681  12.161  13.063  12.888  0.0974 -0.0509 -0.1532
 9208W        W25682   6.334  12.439  13.676 -0.2622  0.0101  0.1923
 9209W        W25683  11.188   0.523   4.323  0.0984 -0.0298 -0.0956
 9210W        W25684   4.433   1.152   0.046  0.2330 -0.2932 -0.0873
 9211W        W25685   5.885  17.307   4.330 -0.1792  0.1375 -0.0564
 9212W        W25686   1.051  12.338   5.625 -0.3081  0.0936  0.1530
 9213W        W25687  13.412   1.872   0.078  0.0808 -0.0395 -0.1727
 9214W        W25688   3.843  11.208  13.552  0.0386  0.3011 -0.1012
 9215W        W25689  10.671   1.075   3.073 -0.1821 -0.2533  0.0290
 9216W        W25690   6.578   6.442  12.561 -0.1710  0.1091 -0.1423
 9217W        W25691   9.509  16.985   1.825  0.1076 -0.0119  0.2553
 9218W        W25692  14.708   4.467  11.887 -0.4480  0.1458 -0.1793
 9219W        W25693   0.595  17.494   4.554 -0.0112  0.0424  0.3660
 9220W        W25694   5.000  10.279  13.640 -0.1099 -0.1593 -0.0553
 9221W        W25695  12.412   1.902   4.161  0.1669 -0.1009 -0.1471
 9222W        W25696  10.410   9.753   2.872 -0.3976  0.1258 -0.1658
 9223W        W25697   8.795   9.515   3.325 -0.3201 -0.2318  0.1363
 9224W        W25698   3.949   5.171   2.034 -0.2380  0.3370  0.1415
 9225W        W25699  10.879  10.533  13.354 -0.2343 -0.1579  0.2467
 9226W        W25700  12.520   4.146  12.706 -0.0647 -0.0765 -0.0343
 9227W        W25701  10.633  10.085   4.452  0.1866  0.1192  0.0050
 9228W        W25702   4.970   9.209  11.306 -0.0769  0.1485  0.2882
 9229W        W25703  15.313   7.304   0.120 -0.0487 -0.2282  0.0649
 9230W        W25704  11.261   3.958  15.780  0.1465 -0.0121  0.1875
 9231W        W25705   4.877   0.109   6.275  0.2149 -0.0959 -0.1370
 9232W        W25706   3.190  16.076  13.461 -0.0217 -0.0430  0.1081
 9233W        W25707   7.425   6.856   1.064 -0.2347  0.1863 -0.0352
 9234W        W25708   8.274  11.719  12.045  0.0093 -0.0960  0.1279
 9235W        W25709  10.076  14.751   0.329 -0.0524  0.3564 -0.2783
 9236W        W25710   3.428   0.188  12.622  0.3399  0.0606 -0.0790
 9237W        W25711   6.512  14.048  16.015  0.1876 -0.2994  0.1485
 9238W        W25712  12.519   1.087   4.840 -0.0253 -0.0627  0.2746
 9239W        W25713   3.289   1.428   3.643  0.0267 -0.1950 -0.2324
 9240W        W25714   3.975   1.430   6.011 -0.0839  0.1765 -0.0522
 9241W        W25715   8.386   0.756  11.907 -0.0092  0.3173  0.0788
 9242W        W25716   4.768   8.639   2.372  0.0028 -0.0250 -0.1618
 9243W        W25717   4.425   1.374   0.533 -0.3672  0.0723  0.1735
 9244W        W25718   2.615   5.343  15.450 -0.1214  0.3712  0.1028
 9245W        W25719   1.312   4.522  14.416  0.0784  0.1244 -0.2133
 9246W        W25720  12.365  14.261  16.316 -0.0560 -0.1430 -0.1149
 9247W        W25721   3.583   6.796  15.880  0.2495 -0.0214  0.1527
 9248W        W25722  13.269  17.672   5.656 -0.1329 -0.1067 -0.0429
 9249W        W25723  17.305  17.118  14.258 -0.3885 -0.1609 -0.0393
 9250W        W25724   4.776  12.487   1.988 -0.1099 -0.0871 -0.0850
 9251W        W25725  13.137   1.498   1.919  0.3181  0.4942 -0.0993
 9252W        W25726  12.170   8.367   0.039 -0.1084 -0.3400  0.3386
 9253W        W25727  12.040   8.156  11.249 -0.0019 -0.2181  0.0911
 9254W        W25728  18.110   3.098   3.504  0.2124 -0.0066  0.0099
 9255W        W25729   7.660   5.027  14.518  0.1677  0.0741 -0.1167
 9256W        W25730  11.388   9.703  14.987  0.3029  0.0765 -0.2207
 9257W        W25731   4.603   0.758   5.681  0.2792  0.2178 -0.3424
 9258W        W25732  17.077  12.093   1.645  0.1723 -0.1820  0.1425
 9259W        W25733  15.297   4.138   0.985  0.0391 -0.3307  0.0079
 9260W        W25734   2.608   8.828  15.851  0.3146  0.0918  0.0012
 9261W        W25735  13.495  15.268  15.970  0.1889 -0.1236  0.1427
 9262W        W25736   1.567  16.196  14.539 -0.1691 -0.0909 -0.2535
 9263W        W25737   7.219  17.772  11.865 -0.0845 -0.0318 -0.0183
 9264W        W25738   2.838   3.136   3.538 -0.1505  0.1189 -0.1502
 9265W        W25739   5.592  11.395   1.348  0.1216 -0.2139  0.0521
 9266W        W25740  12.526  17.600   0.462 -0.1542  0.0618  0.1908
 9267W        W25741   0.837  16.598   0.563  0.1135 -0.1050 -0.4693
 9268W        W25742  14.680   1.299   3.031  0.0772 -0.0423 -0.2209
 9269W        W25743   6.071  13.302   1.628 -0.0996 -0.4947  0.1558
 9270W        W25744   5.923  16.141   4.606  0.0919 -0.2034  0.2265
 9271W        W25745  14.571   2.768  14.286 -0.3395 -0.0016  0.0598
 9272W        W25746   1.829   4.831   3.970  0.0898 -0.1180  0.3228
 9273W        W25747   6.180   3.575   1.022  0.2332  0.4168 -0.3334
 9274W        W25748  13.596   3.371   4.271 -0.0012 -0.1532 -0.0968
 9275W        W25749   8.845   1.203   2.987 -0.1361 -0.1579 -0.2956
 9276W        W25750  11.618   6.184   3.819 -0.2632 -0.2175  0.0019
 9277W        W25751   8.194   0.932  13.768 -0.1724  0.4269  0.1385
 9278W        W25752  14.671  15.491   4.875  0.0575 -0.0886 -0.1366
 9279W        W25753  11.530  16.337   2.273 -0.2488 -0.1412  0.3215
 9280W        W25754   7.314   5.583  10.830  0.0218 -0.2062  0.1721
 9281W        W25755  16.860  13.092   2.698  0.0333 -0.2025  0.0984
 9282W        W25756  11.330   2.809   1.111  0.3243  0.0234  0.1791
 9283W        W25757  16.708   1.632   3.522 -0.2095 -0.2108  0.4767
 9284W        W25758   9.687   9.817  15.901 -0.1186 -0.0807  0.0089
 9285W        W25759   3.653  15.827  14.414  0.1398 -0.1225  0.2496
 9286W        W25760  15.475   2.368   3.422  0.1707 -0.1779  0.0037
 9287W        W25761  14.590   7.304  13.762  0.0391  0.1429  0.1643
 9288W        W25762  18.362  15.498  13.071 -0.1004  0.1487 -0.3619
 9289W        W25763   9.496  14.161  13.118 -0.1065 -0.2393 -0.0520
 9290W        W25764   4.482   7.723   0.927  0.2504 -0.5188  0.0887
 9291W        W25765  14.856  14.859   1.726  0.3182 -0.0003  0.0583
 9292W        W25766  10.868   0.382   0.914  0.1159 -0.0848 -0.1014
 9293W        W25767   2.386   4.992   4.845  0.0158  0.1718 -0.1040
 9294W        W25768  10.930   0.697  12.056  0.0338 -0.1123 -0.0677
 9295W        W25769   1.791   7.954  15.615 -0.0503  0.2246 -0.3407
 9296W        W25770   1.298  14.402  14.173 -0.0750  0.2002 -0.0028
 9297W        W25771  17.526   0.929   2.451  0.3864  0.1134 -0.3649
 9298W        W25772   5.466   5.196   1.636  0.2099 -0.3480 -0.3766
 9299W        W25773  17.697  15.495  14.136 -0.2504  0.0848 -0.0346
 9300W        W25774  12.028   9.822  14.564  0.0550 -0.1768  0.1165
 9301W        W25775  17.717  13.559  14.205  0.0577 -0.0258  0.0017
 9302W        W25776  10.527   6.197   4.728 -0.2173  0.3977  0.1781
 9303W        W25777  10.155  12.032   4.764  0.1144 -0.1056 -0.0939
 9304W        W25778  11.855   1.783   3.599  0.0120  0.1722 -0.1040
 9305W        W25779   2.637   8.007  14.919  0.1460  0.0978  0.0242
 9306W        W25780   8.364   5.245  12.814 -0.1001  0.1529  0.2250
 9307W        W25781   0.966  14.983  15.673 -0.1056 -0.3339  0.0709
 9308W        W25782  14.467  14.553  15.302 -0.3192  0.0343 -0.0273
 9309W        W25783   7.115   0.555   3.348 -0.0214 -0.0177 -0.3000
 9310W        W25784  17.767   4.307  15.525 -0.0994 -0.1795  0.1266
 9311W        W25785   4.429   6.168   4.072 -0.3287  0.0756  0.2323
 9312W        W25786   1.538  15.216   1.122  0.0123  0.3391 -0.0290
 9313W        W25787  12.556   2.926  11.626  0.1291  0.0849  0.0524
 9314W        W25788  13.867  16.439  12.049  0.1490  0.1855 -0.1384
 9315W        W25789   8.454  16.263   0.262  0.0735  0.0637  0.0291
 9316W        W25790   7.123  16.213   5.904  0.3468  0.2189 -0.1803
 9317W        W25791  14.359   4.807   2.614  0.2031 -0.0263 -0.3796
 9318W        W25792   2.110  10.920  11.495 -0.1014  0.1639  0.2204
 9319W        W25793  12.902  10.023   4.373 -0.0167 -0.1450 -0.0521
 9320W        W25794  13.746  13.141   0.460 -0.2646  0.2033  0.0467
 9321W        W25795   2.169   0.740  12.540  0.1071  0.1549  0.0419
 9322W        W25796   4.710  15.604   4.476 -0.0068 -0.0029 -0.0631
 9323W        W25797   1.616   5.119  12.594 -0.1714  0.1630  0.0309
 9324W        W25798   1.952   9.003   4.985  0.1322 -0.3516  0.0393
 9325W        W25799  16.334   8.952  10.030 -0.1542  0.1552 -0.0953
 9326W        W25800  14.267  14.146   0.890  0.3014 -0.0332 -0.0985
 9327W        W25801   7.997   9.231   1.930 -0.2767  0.0979  0.1093
 9328W        W25802   3.216  13.277  15.309  0.0987  0.0713 -0.1096
 9329W        W25803   9.915  17.544  11.724 -0.0214 -0.1654 -0.0999
 9330W        W25804   9.157  14.306  11.677 -0.0869  0.2341  0.3457
 9331W        W25805   0.465  18.109  15.368 -0.4382 -0.2811  0.1811
 9332W        W25806   4.175   5.490  13.311  0.5321 -0.1637  0.1120
 9333W        W25807   7.406  14.176   4.621  0.0244 -0.2181  0.2076
 9334W        W25808   3.838  18.283   3.845  0.1077 -0.1358  0.0405
 9335W        W25809  13.939   4.103  12.802  0.1496  0.2666 -0.1635
 9336W        W25810   6.570   5.105  15.616  0.1411  0.0795 -0.0119
 9337W        W25811   7.439   4.037   4.407 -0.1491 -0.0810 -0.1809
 9338W        W25812   8.779  16.466  14.802 -0.2607  0.0303  0.0908
 9339W        W25813  14.381  15.024   4.924  0.0818 -0.0074 -0.2313
 9340W        W25814  14.766  18.326  15.554 -0.1223  0.2151 -0.1380
 9341W        W25815   4.715  13.226  12.480  0.3573  0.3670  0.2087
 9342W        W25816  11.441  13.965  15.450  0.0759  0.0703  0.2650
 9343W        W25817   2.622  10.872   4.881 -0.2873  0.0747 -0.2282
 9344W        W25818   0.613   1.117   6.104  0.3673 -0.1309  0.1565
 9345W        W25819   6.895   1.747   2.658 -0.0063  0.0436 -0.4966
 9346W        W25820  12.832  16.728   3.827  0.0277 -0.1502  0.1615
 9347W        W25821   6.618   0.990  11.617  0.1595  0.0415  0.1007
 9348W        W25822  15.380  17.119  15.331  0.0187 -0.1742  0.1928
 9349W        W25823   0.853  16.294   2.498  0.0234  0.2268 -0.2679
 9350W        W25824  15.504  15.821   3.382 -0.3774  0.2895 -0.3167
 9351W        W25825  15.345  10.034  14.164 -0.0449 -0.3521  0.0345
 9352W        W25826   4.034   2.084  13.909 -0.1998 -0.1203 -0.0411
 9353W        W25827   1.275   6.490   1.957  0.3282  0.0390 -0.0561
 9354W        W25828  16.615  12.750   5.421 -0.2312  0.0771 -0.0366
 9355W        W25829   6.247  16.433  11.029 -0.0657 -0.0446 -0.1375
 9356W        W25830   4.321  14.023  13.812  0.1940 -0.0775  0.4664
 9357W        W25831   5.669   3.137   0.912 -0.2918 -0.1419 -0.1703
 9358W        W25832   6.295  16.947  11.687 -0.2397  0.0122  0.2071
 9359W        W25833   5.878   5.046  13.960  0.1352 -0.1523  0.0623
 9360W        W25834  12.654  17.997   1.662  0.1404 -0.0662  0.0477
 9361W        W25835  11.613   1.343  15.588  0.1033  0.2552 -0.0996
 9362W        W25836  10.376   4.943   1.494  0.4412 -0.0655 -0.1244
 9363W        W25837   1.633  12.143   3.455  0.3726 -0.1598 -0.0142
 9364W        W25838   8.767  17.388   0.100  0.0864 -0.3362  0.1759
 9365W        W25839  14.686   5.999  12.043 -0.2441 -0.1752 -0.2306
 9366W        W25840   4.287   7.771   1.450 -0.1297  0.1565 -0.1892
 9367W        W25841   2.358   9.975   0.690  0.0392 -0.1253 -0.0304
 9368W        W25842   0.925   0.085   1.499 -0.0012  0.1402  0.1425
 9369W        W25843  11.808  17.154   0.064 -0.1026  0.2237  0.2388
 9370W        W25844  15.943   7.504  13.559 -0.0258 -0.4201  0.0398
 9371W        W25845   0.718  10.174  13.271  0.1860 -0.1403  0.0489
 9372W        W25846  14.272  15.482   3.156 -0.3432 -0.0986  0.1633
 9373W        W25847   8.537  13.192  12.778  0.0975 -0.2015 -0.2176
 9374W        W25848  13.712  16.570   1.806  0.1227  0.2082  0.0300
 9375W        W25849  14.067  14.697   2.164 -0.1948  0.5464 -0.2873
 9376W        W25850   1.201   8.650  15.337  0.1952  0.0883 -0.1596
 9377W        W25851   2.427  14.939  13.818  0.1741  0.3172 -0.1403
 9378W        W25852  18.302   0.949  16.301 -0.0045  0.0585 -0.0569
 9379W        W25853  13.438   8.004  15.564 -0.0169 -0.0840  0.2700
 9380W        W25854   2.323  12.489  12.065 -0.0012 -0.0377 -0.4242
 9381W        W25855  15.329   6.706   4.576  0.0448  0.3703  0.2441
 9382W        W25856   9.489  12.897   0.500 -0.0502 -0.0441  0.0866
 9383W        W25857   6.201   7.421  12.418  0.1479 -0.1601  0.0653
 9384W        W25858   7.980   1.019  14.855 -0.0671 -0.1647  0.2930
 9385W        W25859  17.315   2.025  11.299  0.0438 -0.1544 -0.1067
 9386W        W25860  11.957   5.177   4.650  0.4271 -0.0149  0.0083
 9387W        W25861  10.256   1.265   2.820 -0.1463  0.0571 -0.1263
 9388W        W25862   0.621   9.629  13.312  0.0999  0.0881 -0.0259
 9389W        W25863   4.151   9.155  12.019 -0.0937 -0.2387 -0.1685
 9390W        W25864  14.664  15.688  13.812 -0.0878  0.1775 -0.0908
 9391W        W25865  12.045   2.362   2.801  0.0643  0.2248 -0.0968
 9392W        W25866   7.331   1.620  13.780  0.3039 -0.1146  0.1857
 9393W        W25867   1.048  17.893   3.452 -0.3243 -0.1051  0.1132
 9394W        W25868  12.733   2.803  12.946  0.2009  0.1540  0.1463
 9395W        W25869  11.044   0.246  11.683  0.3825 -0.0462  0.4862
 9396W        W25870   9.788  15.249   1.912 -0.0032  0.2447  0.1327
 9397W        W25871   0.628  16.102   0.709  0.0042 -0.0484  0.0378
 9398W        W25872  16.353   4.064  14.988  0.0119 -0.0023  0.2437
 9399W        W25873   8.124  13.085   5.122 -0.0143 -0.4037 -0.1676
 9400W        W25874  17.323  12.315  16.324 -0.1144  0.3208 -0.0680
 9401W        W25875  14.434   4.921   3.107 -0.2973  0.0567  0.1381
 9402W        W25876   9.608  11.491   5.398  0.5765 -0.0231  0.3020
 9403W        W25877  10.411  13.870   2.934 -0.2051  0.1432 -0.0230
 9404W        W25878   8.920  14.279  12.189 -0.0079 -0.1690  0.1291
 9405W        W25879  14.105   7.813  13.560 -0.0644 -0.0823 -0.0804
 9406W        W25880   9.486  17.818  11.947 -0.0306  0.1278  0.1097
 9407W        W25881  15.565   7.082  10.677  0.1653  0.1879 -0.1245
 9408W        W25882  12.358  17.818   3.111 -0.2953  0.0261 -0.1305
 9409W        W25883  16.234   6.930  14.274 -0.4069 -0.3320  0.0572
 9410W        W25884  14.261   0.828  14.277 -0.1719 -0.0532  0.2706
 9411W        W25885  13.675  11.199   0.632 -0.1742 -0.1641  0.1871
 9412W        W25886   8.510   0.568  12.351 -0.0242 -0.0445 -0.0655
 9413W        W25887  11.340   6.021  15.040  0.1144  0.3713 -0.1289
 9414W        W25888  16.693   6.253  11.478  0.1924 -0.1914  0.1047
 9415W        W25889   8.084   1.170  12.804 -0.2568  0.1443  0.0488
 9416W        W25890  11.821  18.153  11.922  0.1468  0.2503  0.2358
 9417W        W25891   4.276  10.364   2.179 -0.3051 -0.4087 -0.1662
 9418W        W25892  16.563  11.839  12.704 -0.2173  0.3022 -0.2311
 9419W        W25893   1.698  12.006  12.542 -0.1598 -0.1063 -0.2689
 9420W        W25894   6.434   7.100   5.791  0.1028 -0.0378  0.0786
 9421W        W25895   7.611   1.868   2.624  0.1911  0.1321  0.3668
 9422W        W25896   6.504   4.413  15.899 -0.0165 -0.2754  0.1676
 9423W        W25897  12.288   0.881   5.239 -0.1801 -0.0560  0.2645
 9424W        W25898  16.008  11.593  13.298  0.1886 -0.1315  0.1853
 9425W        W25899  18.371   2.884   5.477 -0.3113 -0.0636 -0.1932
 9426W        W25900  15.212  18.105   1.055  0.0822  0.2024 -0.1001
 9427W        W25901   1.449  13.899  11.058  0.0265  0.0423  0.0450
 9428W        W25902  14.435   5.174  11.968 -0.2708  0.0535 -0.4185
 9429W        W25903   5.473   6.046   3.317  0.3164  0.1389 -0.1616
 9430W        W25904   9.453  12.925  15.402  0.1566  0.1928  0.0430
 9431W        W25905   7.389  11.177  11.279 -0.0667 -0.0277 -0.3065
 9432W        W25906   6.318   0.217   6.226 -0.0365 -0.1876  0.1512
 9433W        W25907  13.434   3.191  13.688 -0.3590  0.0374 -0.1077
 9434W        W25908  16.289   6.627   5.173 -0.2077 -0.1291 -0.1492
 9435W        W25909   4.040  13.409   5.712  0.0173  0.0340  0.0012
 9436W        W25910  15.922   0.748  14.007 -0.4066  0.0041  0.0759
 9437W        W25911   4.899   6.713  14.173 -0.5638  0.0014  0.1151
 9438W        W25912   3.327  12.769   5.201  0.3742  0.3306 -0.2643
 9439W        W25913   8.500   2.173  13.184  0.4658  0.0141  0.0876
 9440W        W25914   3.459   7.349  14.808  0.0811  0.0118  0.1993
 9441W        W25915   7.363   5.875   0.840 -0.0957 -0.1597 -0.1099
 9442W        W25916  18.090  14.265  14.222 -0.1885 -0.0127 -0.1711
 9443W        W25917  11.236  10.747  11.634 -0.1627  0.1628  0.0952
 9444W        W25918   4.209   6.627   0.318 -0.0671  0.1531 -0.0050
 9445W        W25919   2.187   1.321   0.679  0.3243 -0.1531 -0.1139
 9446W        W25920  14.913  17.722   3.862 -0.2190 -0.0639  0.0764
 9447W        W25921   1.262   8.195  12.519  0.1390  0.1328  0.1819
 9448W        W25922  17.608  10.805   2.095 -0.3333  0.1174  0.2666
 9449W        W25923   1.797   3.866  12.054  0.0450  0.1486  0.3415
 9450W        W25924   1.423  17.975   0.222 -0.3737  0.0397  0.1368
 9451W        W25925   7.337  13.973   1.511 -0.2456 -0.0048 -0.0022
 9452W        W25926   8.938   6.882   2.242 -0.2894  0.0951  0.0199
 9453W        W25927  12.253   8.831  14.680 -0.1113  0.0245 -0.0644
 9454W        W25928  17.700   4.519   2.484  0.0026 -0.0351  0.0093
 9455W        W25929  12.288   2.474   3.195 -0.4408 -0.0052 -0.1392
 9456W        W25930   0.709   1.302   1.381 -0.0769  0.4294 -0.2019
 9457W        W25931   5.475   0.106  13.201 -0.0478  0.0504  0.0965
 9458W        W25932   1.751  14.325   4.403  0.0396  0.1606 -0.2579
 9459W        W25933  14.086   3.707   2.003  0.0684  0.1584 -0.1166
 9460W        W25934   0.404   1.035  12.738  0.1474 -0.0540 -0.1444
 9461W        W25935   3.820  17.082   0.613  0.0073  0.1311 -0.1648
 9462W        W25936  12.849   1.511  11.146  0.1522 -0.1945 -0.0737
 9463W        W25937   8.965  15.266   5.572 -0.3385  0.1845  0.1579
 9464W        W25938  10.683   6.792   2.897 -0.0146 -0.2443  0.0996
 9465W        W25939  10.620   2.597   1.636  0.2678 -0.0493 -0.0984
 9466W        W25940   9.654   2.331   1.832  0.4793 -0.0855  0.1945
 9467W        W25941  12.947  14.085   5.215 -0.0571  0.1505 -0.2564
 9468W        W25942  15.270   9.209  13.936 -0.2369  0.0731  0.0297
 9469W        W25943  10.177  12.128   0.720  0.1537  0.2185  0.0846
 9470W        W25944  16.460  11.374   2.835 -0.4008 -0.0836 -0.1704
 9471W        W25945  12.358  14.485  13.927 -0.4815  0.1629  0.0725
 9472W        W25946   6.047  16.277  14.095  0.0534  0.0913 -0.0337
 9473W        W25947  14.215  17.975  16.133 -0.1093 -0.0638  0.4192
 9474W        W25948   3.041   7.076  14.696  0.1910  0.1982  0.0191
 9475W        W25949   3.586  12.698  13.631 -0.1376  0.3410 -0.0734
 9476W        W25950   0.980   2.132   5.034 -0.1975  0.1531 -0.1075
 9477W        W25951   7.330  14.502   0.145  0.3037  0.3771 -0.1630
 9478W        W25952   1.618  13.861  15.475  0.2510 -0.1625  0.1320
 9479W        W25953  14.865   6.016  15.737  0.0456  0.0256  0.0200
 9480W        W25954   6.246  11.584   1.064  0.0864 -0.2079 -0.0705
 9481W        W25955  12.156   6.423  16.030  0.0142 -0.0004  0.0437
 9482W        W25956  11.795   5.447  16.092 -0.0042 -0.1822  0.1279
 9483W        W25957  16.372   9.296  15.798  0.2889 -0.1407  0.2864
 9484W        W25958   3.579   4.310   2.760  0.1977  0.2030 -0.1060
 9485W        W25959   1.749   9.323  12.742 -0.3173  0.3431  0.1004
 9486W        W25960   9.158  14.201   1.126 -0.2131 -0.0852  0.1651
 9487W        W25961   4.083  12.222   0.134  0.2482  0.2347  0.1286
 9488W        W25962  10.458  14.941   2.544 -0.3043 -0.0204  0.0171
 9489W        W25963  13.776   1.311  15.941  0.1171 -0.2255 -0.2641
 9490W        W25964  11.803  15.618  13.301 -0.0247  0.1196 -0.1781
 9491W        W25965  12.200   5.509  10.767 -0.1621  0.2015  0.1084
 9492W        W25966  10.055  10.072  14.898  0.0398  0.4452  0.1443
 9493W        W25967  18.094   4.573  13.333  0.0356 -0.0950  0.1662
 9494W        W25968   9.859  10.641  16.102 -0.0569 -0.1670 -0.0374
 9495W        W25969  16.086   9.901  11.506 -0.1099  0.4210  0.0089
 9496W        W25970  13.044  16.878   1.148  0.1802 -0.0233  0.1840
 9497W        W25971   7.479   6.872  11.431 -0.0943 -0.0582  0.2968
 9498W        W25972   7.951   7.066  15.442 -0.1073  0.4115  0.1297
 9499W        W25973   6.769  14.674   5.315 -0.0266  0.0164 -0.1666
 9500W        W25974  14.119   0.645   4.954  0.0940  0.1025  0.1798
 9501W        W25975   2.214  14.045   5.786 -0.0381  0.0251  0.3113
 9502W        W25976  11.267  14.109   5.320 -0.2435  0.3568  0.0516
 9503W        W25977   8.558   6.893   3.545  0.3016 -0.4159  0.0052
 9504W        W25978   3.418   7.973  11.315  0.2287 -0.0452  0.1574
 9505W        W25979  15.074   7.643   3.344 -0.1961  0.1071 -0.1102
 9506W        W25980   1.035   7.802  13.932 -0.3835  0.2545  0.0037
 9507W        W25981   3.718   0.119   3.187  0.0221  0.0530 -0.2351
 9508W        W25982  13.286   9.017   5.490  0.0829 -0.0597 -0.1419
 9509W        W25983  15.237   1.291  12.268 -0.3049 -0.1588 -0.1631
 9510W        W25984  18.037   1.645   0.175 -0.0486 -0.2789  0.0576
 9511W        W25985  13.135  12.040  15.896  0.1144 -0.2453 -0.0340
 9512W        W25986   3.472   0.151  16.316 -0.1576 -0.2161 -0.2844
 9513W        W25987   2.209   1.306  13.939  0.0316 -0.2888 -0.1600
 9514W        W25988   7.315   3.741  13.749  0.2034  0.4137 -0.0071
 9515W        W25989  12.722  14.613   6.314  0.2271  0.1890  0.3398
 9516W        W25990  15.230   5.817  10.658  0.3354 -0.0261 -0.4517
 9517W        W25991  17.447   1.120   1.585  0.0866 -0.0300 -0.1936
 9518W        W25992   5.962   6.783   3.053 -0.2681  0.0976  0.1177
 9519W        W25993  13.445   6.805   3.451  0.1874  0.2830 -0.1921
 9520W        W25994  15.274   6.485   2.667  0.1687  0.3036  0.2152
 9521W        W25995   6.489   8.514  11.226 -0.3725  0.1898  0.0585
 9522W        W25996  16.101   6.124   0.033  0.2620  0.0102  0.0634
 9523W        W25997  17.242   6.450  12.113 -0.0347 -0.0589  0.1677
 9524W        W25998  13.445  13.625  13.545 -0.1385  0.1505 -0.3076
 9525W        W25999   6.613  17.520   2.844  0.1625  0.1496  0.4327
 9526W        W26000   2.100  16.477  14.267  0.0480  0.3086 -0.2862
 9527W        W26001   9.844   3.623  15.966 -0.1098 -0.2586  0.1590
 9528W        W26002  17.702   7.283  14.325 -0.0542 -0.0914  0.1355
 9529W        W26003   8.288  15.118  11.932  0.1607  0.2910 -0.1766
 9530W        W26004   7.681  15.903  14.230 -0.1069 -0.2663 -0.2584
 9531W        W26005   9.698   0.882   1.555  0.0760  0.0322  0.3242
 9532W        W26006  12.911  17.836  12.076 -0.0772 -0.1090  0.2286
 9533W        W26007  18.355   4.987  12.540  0.3658  0.0352 -0.2261
 9534W        W26008  12.814   9.281   2.499  0.3235 -0.1186 -0.5153
 9535W        W26009  13.811  17.121  12.052 -0.2022  0.1733 -0.1109
 9536W        W26010   3.026   0.642  12.109 -0.0793 -0.0170 -0.1561
 9537W        W26011   2.516   3.635  14.774  0.1964 -0.1644 -0.1421
 9538W        W26012  11.325  13.470  14.046  0.1064 -0.3279 -0.0880
 9539W        W26013   7.416   4.419   0.392  0.3032  0.0790 -0.1205
 9540W        W26014   3.141   6.701   1.586  0.0913 -0.1075  0.0575
 9541W        W26015   6.456   8.823  13.660  0.3738  0.1224 -0.4176
 9542W        W26016   3.696   3.192   5.743 -0.1423  0.0124  0.0487
 9543W        W26017  16.370  13.178  15.283  0.0008 -0.1300 -0.0861
 9544W        W26018  11.712  13.916   4.101  0.3398  0.1764  0.2629
 9545W        W26019   2.646  16.233   2.978  0.0864  0.4885 -0.0473
 9546W        W26020   0.005  10.071  13.902 -0.1204 -0.1308 -0.0041
 9547W        W26021   7.631   6.672  15.134  0.1395  0.1119 -0.3057
 9548W        W26022  13.049   9.491  13.095  0.0634 -0.1203 -0.2327
 9549W        W26023   1.588  14.969  13.128  0.1695 -0.1115 -0.0885
 9550W        W26024   5.232   2.390   2.704 -0.0288 -0.3100  0.1730
 9551W        W26025   2.751   9.531  11.806  0.2721 -0.0177 -0.0056
 9552W        W26026   9.778   2.012  14.817 -0.3102 -0.2712  0.0186
 9553W        W26027  13.643  12.877  14.827 -0.3352  0.1465  0.2623
 9554W        W26028  10.313  14.659  11.633 -0.1608  0.0630 -0.4156
 9555W        W26029   7.856  11.613   3.758  0.3834 -0.2060  0.0219
 9556W        W26030   8.667   1.622   2.078 -0.0207 -0.4592  0.1677
 9557W        W26031   2.015   9.859  12.709  0.0066  0.0086 -0.0597
 9558W        W26032   3.937   7.674  15.516  0.1255  0.0859 -0.1254
 9559W        W26033  14.285  10.767  13.757  0.0355 -0.0081  0.0554
 9560W        W26034   7.716   6.965  11.922  0.1948  0.1595  0.3121
 9561W        W26035  16.752   5.387   3.804 -0.2377  0.0304  0.0254
 9562W        W26036  17.697  12.945  13.404 -0.3111 -0.1953 -0.0372
 9563W        W26037   2.770   0.238   5.784 -0.3780 -0.0684  0.0251
 9564W        W26038   5.785   4.974   5.121 -0.1861  0.2150 -0.0965
 9565W        W26039   3.570  18.286   4.988 -0.0380  0.1742 -0.1087
 9566W        W26040  17.479  17.457  13.190 -0.3377  0.1860  0.1582
 9567W        W26041   8.993  13.716   1.314 -0.1650 -0.1462  0.0350
 9568W        W26042   3.749   6.336  12.890 -0.0771 -0.0513 -0.0198
 9569W        W26043  14.302   6.612  15.787 -0.0480  0.0439 -0.0736
 9570W        W26044   9.883   5.448   0.395 -0.2691 -0.0218 -0.0801
 9571W        W26045  12.137   4.900  13.302  0.2146 -0.1556  0.2241
 9572W        W26046  10.523   1.963  15.957  0.0792 -0.1265 -0.0438
 9573W        W26047  15.134  12.967   4.813  0.1250 -0.0200  0.2549
 9574W        W26048   7.728  10.064   4.080 -0.0235 -0.0012  0.1129
 9575W        W26049   2.041   0.847  13.060 -0.0880 -0.1386 -0.1165
 9576W        W26050   7.282   3.598   4.737  0.1881 -0.0187  0.2050
 9577W        W26051  11.838   5.173   2.278  0.1372  0.0334 -0.1467
 9578W        W26052  10.554  10.359   4.855  0.0145  0.0897 -0.1280
 9579W        W26053  12.938  14.799  15.589  0.2041  0.1050 -0.0162
 9580W        W26054  16.876   6.940  13.012 -0.0692 -0.1520  0.1145
 9581W        W26055   9.794  16.559  15.520  0.1531 -0.0468 -0.3076
 9582W        W26056  14.488   2.526  16.007  0.1927  0.0480 -0.1524
 9583W        W26057  13.752   3.534   1.658 -0.0152 -0.2739  0.2238
 9584W        W26058  13.151   8.961  11.522 -0.3115  0.1337 -0.1323
 9585W        W26059  12.739  12.847  11.410 -0.0077  0.0813  0.3443
 9586W        W26060   7.622   0.091  14.966 -0.1515 -0.1628 -0.1305
 9587W        W26061   9.493   1.994  11.915  0.1856 -0.1964  0.0697
 9588W        W26062  15.302   5.693  15.479 -0.5544  0.0241 -0.2658
 9589W        W26063   0.771   1.316  12.847 -0.1637 -0.2888 -0.2327
 9590W        W26064   9.044   6.707   3.667 -0.1895 -0.2085 -0.1131
 9591W        W26065  17.477   9.575   3.796  0.1154  0.4128 -0.2287
 9592W        W26066   2.386  18.184   3.690  0.0432  0.0083  0.0751
 9593W        W26067   0.098   9.274   1.404  0.3020 -0.1422  0.0299
 9594W        W26068  10.818   9.689   5.293  0.0614  0.0920  0.3824
 9595W        W26069   5.158   3.005   3.538 -0.0431 -0.0792  0.1688
 9596W        W26070   0.104  14.260   0.322 -0.0623 -0.0497  0.0909
 9597W        W26071   5.376  17.541  16.187  0.2051 -0.1041  0.4250
 9598W        W26072   6.818   4.394   1.226 -0.2960 -0.0015 -0.1462
 9599W        W26073   6.254  11.662   2.340 -0.1068 -0.1087  0.0702
 9600W        W26074   7.324  12.339  11.962  0.1586 -0.2412  0.1474
 9601W        W26075  17.687   9.599  11.852  0.0785 -0.0593 -0.1413
 9602W        W26076   8.546  13.295   5.068 -0.0259  0.0852  0.1994
 9603W        W26077  14.036   0.185   3.181  0.2086  0.2963 -0.2132
 9604W        W26078  18.231  17.979   2.586  0.2915 -0.0031 -0.1849
 9605W        W26079  18.175  13.909   0.694 -0.0437 -0.0062  0.0582
 9606W        W26080  15.332   9.577   1.001  0.1641 -0.2498  0.1468
 9607W        W26081  16.608  11.663  14.569  0.2023  0.2858 -0.0294
 9608W        W26082   0.867   3.578   1.535  0.0670  0.2322  0.1614
 9609W        W26083   9.026   6.895   4.757  0.0932  0.2642 -0.2048
 9610W        W26084  17.730   5.217  11.655  0.1916 -0.1604 -0.0306
 9611W        W26085   8.134  10.969  14.096  0.1664 -0.1036  0.0401
 9612W        W26086  17.896   4.900  12.470  0.1241 -0.1791  0.0208
 9613W        W26087   1.945   9.509  10.404 -0.1486  0.1738  0.0531
 9614W        W26088   4.367  17.910   0.217  0.0257  0.2892  0.0415
 9615W        W26089   2.460   2.702  11.850 -0.0874  0.0561 -0.0049
 9616W        W26090   0.296   2.961   4.281 -0.2072 -0.1308 -0.1669
 9617W        W26091  11.790  10.782  13.054  0.3821 -0.0386  0.3971
 9618W        W26092   7.970   6.680   1.783 -0.1054  0.0141 -0.1456
 9619W        W26093   3.824   9.045   1.428  0.4301  0.1319 -0.2798
 9620W        W26094  11.814  18.115   1.425 -0.0600  0.1177  0.3586
 9621W        W26095   5.312   9.833   2.850 -0.2406  0.1134 -0.1319
 9622W        W26096   7.203   1.106  15.479  0.1523  0.3189  0.0450
 9623W        W26097  13.636   5.983  15.009 -0.2803 -0.0015  0.0661
 9624W        W26098   1.809  13.004   3.429 -0.1302 -0.0132 -0.1965
 9625W        W26099  11.850   3.128   1.976  0.1680  0.0268 -0.3706
 9626W        W26100  13.060  12.891  12.378  0.3026  0.0950 -0.3584
 9627W        W26101  16.588  17.751   4.430  0.3222  0.2578  0.0592
 9628W        W26102   1.021  16.125   2.021  0.1993 -0.1557  0.1885
 9629W        W26103   4.442  10.970   0.546  0.1172  0.1397 -0.0472
 9630W        W26104  16.606  17.809  13.078  0.2075  0.3229 -0.1245
 9631W        W26105   1.156  14.949  13.435 -0.1369  0.2426  0.0099
 9632W        W26106  15.298  17.585   2.985  0.0619 -0.2762  0.1780
 9633W        W26107  15.699   8.630   1.033  0.0132  0.0791 -0.3069
 9634W        W26108   7.617  17.938   2.192  0.0841 -0.0975  0.3562
 9635W        W26109   5.913  12.255   1.688 -0.0164  0.0145 -0.1501
 9636W        W26110   0.273   2.134   5.567 -0.1886  0.3021 -0.1239
 9637W        W26111   4.730   6.374  15.784  0.1174 -0.1556 -0.0744
 9638W        W26112   7.486   0.989   4.771 -0.3844 -0.2445 -0.2798
 9639W        W26113   6.366   7.493   4.035  0.0319 -0.1348  0.0337
 9640W        W26114   6.573  15.141   3.093  0.1999  0.2222  0.2328
 9641W        W26115  18.332   7.966  11.619  0.3184  0.0454  0.3321
 9642W        W26116   9.265   7.283  11.003  0.0218 -0.2551  0.1948
 9643W        W26117   5.172   0.581  12.952 -0.1639 -0.3298  0.2555
 9644W        W26118   7.000  12.292  11.538 -0.0210  0.0197  0.0188
 9645W        W26119  17.690  17.660   3.736  0.0452  0.0762  0.0297
 9646W        W26120   8.419  17.284   2.510  0.1880  0.1878  0.1581
 9647W        W26121   9.362   0.122  15.965 -0.1432  0.0140  0.1163
 9648W        W26122   6.624  11.859  13.163 -0.1264 -0.0798  0.1437
 9649W        W26123   8.722  18.105   1.476  0.0010  0.0760  0.3314
 9650W        W26124   0.954   8.860   4.280  0.1138  0.0039 -0.2029
 9651W        W26125   6.074   1.757   5.431 -0.1933 -0.2332  0.1778
 9652W        W26126   1.522  13.569   1.050 -0.0769  0.2570 -0.0652
 9653W        W26127   6.168   1.192  11.753  0.0869  0.1692 -0.1705
 9654W        W26128   1.045   1.775   1.581 -0.1437  0.0064  0.1341
 9655W        W26129  11.981  13.341  16.337 -0.2343  0.0002  0.3826
 9656W        W26130   5.370  14.553   2.844 -0.0915 -0.3481  0.0277
 9657W        W26131  10.868   3.725   3.551  0.0628 -0.2296  0.1254
 9658W        W26132  15.044   7.540   1.728  0.0472  0.1688 -0.1005
 9659W        W26133  13.152   0.231   5.099  0.0415  0.0706  0.4781
 9660W        W26134  17.494   4.670  15.318  0.0466 -0.2432  0.0970
 9661W        W26135   6.196   3.426  12.742  0.1609 -0.1586  0.0141
 9662W        W26136   8.945  11.511  15.185 -0.4624 -0.2937 -0.2550
 9663W        W26137  17.230   2.557  13.408  0.2407  0.3512  0.0126
 9664W        W26138   5.635   9.892   0.603 -0.0422 -0.0922  0.0919
 9665W        W26139  11.227   0.198  13.314  0.0430 -0.1121 -0.0105
 9666W        W26140  10.979  17.207  15.346 -0.0510 -0.0150  0.3982
 9667W        W26141  17.002  14.958   3.815 -0.0593 -0.2033  0.2181
 9668W        W26142  10.179   3.766   1.453 -0.0935 -0.4416 -0.0453
 9669W        W26143   6.450   2.563  11.101 -0.1062 -0.1675 -0.3082
 9670W        W26144  14.444   5.240  15.633  0.1579  0.0949  0.2282
 9671W        W26145  10.421   6.976  10.316 -0.1541  0.1117  0.2087
 9672W        W26146   7.110   0.045  13.729 -0.0967  0.0581 -0.1949
 9673W        W26147  16.172   1.480   2.471 -0.1239  0.0949  0.0711
 9674W        W26148  14.930   8.401  14.115 -0.2301 -0.0448 -0.1305
 9675W        W26149  18.329   5.630  11.846 -0.0896 -0.0063 -0.1655
 9676W        W26150  10.630   4.458   5.262 -0.1944  0.6043  0.1438
 9677W        W26151   4.733  10.679   2.235 -0.0571 -0.1052  0.2790
 9678W        W26152  12.294  16.914   3.117  0.0256  0.0565 -0.0187
 9679W        W26153   6.987   4.383  11.297  0.1101 -0.1065  0.0160
 9680W        W26154  12.621   8.097  11.757 -0.1006  0.0985  0.2334
 9681W        W26155   3.031   1.089  12.982  0.2643 -0.2259 -0.0111
 9682W        W26156  16.571   0.783  16.003 -0.1409 -0.1215 -0.1971
 9683W        W26157   1.019   2.533   0.677 -0.0591 -0.0085  0.0004
 9684W        W26158  14.117  15.974  12.895  0.1328 -0.0304  0.2237
 9685W        W26159  17.408   8.107  12.569 -0.0051  0.0249  0.1797
 9686W        W26160   6.267  16.031   5.106 -0.0309  0.1764  0.0005
 9687W        W26161   5.040   9.436  14.402  0.1293  0.0943  0.0306
 9688W        W26162   8.908   5.432  10.435 -0.1583 -0.0367 -0.0198
 9689W        W26163  10.786   5.894  14.687  0.1539 -0.0622  0.0324
 9690W        W26164   7.186   1.187  12.791  0.0528 -0.0708 -0.1130
 9691W        W26165   0.091   4.247  13.475  0.3572 -0.1018 -0.2802
 9692W        W26166   5.673  14.649  12.481 -0.0907 -0.0896  0.0951
 9693W        W26167  15.622   2.526  12.295  0.0285  0.0717 -0.1648
 9694W        W26168  17.830   3.083  15.511  0.0095  0.0814  0.4243
 9695W        W26169  11.059   9.661   9.981  0.2731 -0.6725 -0.0149
 9696W        W26170   8.683   4.052  13.669 -0.2293  0.0867 -0.3101
 9697W        W26171   0.545  11.240  12.341 -0.1733 -0.1875  0.0462
 9698W        W26172   7.306   4.300  12.145  0.0081  0.4867 -0.0201
 9699W        W26173  17.064   3.235  12.030  0.0272  0.0800 -0.0051
 9700W        W26174   6.966   7.263   4.961  0.3757 -0.1846  0.1533
 9701W        W26175   5.064   1.281   4.350  0.0837  0.2474  0.1142
 9702W        W26176  14.664   5.784   2.304 -0.0739 -0.0635 -0.0923
 9703W        W26177   1.061  12.058   1.612  0.2100 -0.1057  0.1210
 9704W        W26178  16.313   9.735  10.578 -0.0978 -0.1344  0.1081
 9705W        W26179   1.081  12.565  10.663 -0.3282 -0.4874  0.3872
 9706W        W26180  10.280  15.948  14.599 -0.0184  0.1517 -0.1153
 9707W        W26181   0.318   8.815  13.827 -0.0926  0.3387  0.4741
 9708W        W26182  14.947  12.940   0.736  0.3980  0.1339 -0.1397
 9709W        W26183   0.993  10.606  13.865 -0.0875  0.1017 -0.2274
 9710W        W26184   9.016   6.874   1.720 -0.3505 -0.1856  0.1958
 9711W        W26185  15.135   4.948   0.459  0.3880  0.1346 -0.0728
 9712W        W26186   9.313  17.093   0.501 -0.2549 -0.0231 -0.0915
 9713W        W26187  12.854  18.119  11.516  0.0806  0.1350  0.0010
 9714W        W26188  13.102   6.060   0.979 -0.1816 -0.0745  0.3904
 9715W        W26189   4.864   7.526  15.065  0.4248 -0.0404  0.0197
 9716W        W26190   0.860  14.480   2.692  0.0535 -0.0297  0.2021
 9717W        W26191   4.170   0.728   2.620 -0.1948 -0.0939 -0.2111
 9718W        W26192  15.937   7.306  10.907 -0.0549 -0.1384  0.1809
 9719W        W26193  17.791   2.653  15.803  0.3518 -0.0950 -0.2704
 9720W        W26194  16.412  15.898   4.743 -0.2023 -0.2318 -0.0034
 9721W        W26195   8.423   5.702   0.766  0.2444  0.2313  0.2208
 9722W        W26196   3.509   9.064  14.441 -0.1383  0.0723  0.1462
 9723W        W26197   8.766  13.035   3.609 -0.1121  0.1519  0.0435
 9724W        W26198  18.292  14.762   0.969 -0.0507 -0.0535 -0.0367
 9725W        W26199  14.982   7.085   3.998  0.1475 -0.0437 -0.0852
 9726W        W26200  10.424   8.031   2.094 -0.2039 -0.1459 -0.0587
 9727W        W26201   2.620   8.507   1.703 -0.0363 -0.0361  0.0209
 9728W        W26202   9.306  11.219   4.085  0.1912  0.3525 -0.0168
 9729W        W26203   1.292   6.965   0.731 -0.0572  0.2081 -0.0519
 9730W        W26204   7.086   9.520   2.067  0.1025 -0.0664  0.1258
 9731W        W26205  11.730   0.017   0.416  0.2463 -0.0140 -0.1172
 9732W        W26206   7.489   9.542  15.711  0.3573  0.0225  0.2350
 9733W        W26207  13.780  15.413   2.796  0.0725  0.2168  0.1585
 9734W        W26208   6.276   1.565  11.394  0.1090  0.0097 -0.0902
 9735W        W26209   1.741   6.432  10.154  0.1864 -0.1455 -0.1451
 9736W        W26210  11.454   5.081  12.708  0.0888  0.1031 -0.1555
 9737W        W26211   8.861   9.622   0.057 -0.4391 -0.0345 -0.0957
 9738W        W26212   0.389   8.399  15.833 -0.0096  0.0050 -0.3002
 9739W        W26213   4.643   4.228   4.224  0.2668 -0.0268  0.3025
 9740W        W26214   5.451  12.116   1.193 -0.2831 -0.0209  0.0269
 9741W        W26215   9.849   7.362  15.612  0.2676  0.0463  0.3409
 9742W        W26216   9.034  17.573  11.576 -0.1297 -0.0265  0.0738
 9743W        W26217   0.189   1.177   4.827  0.0004 -0.0047  0.0596
 9744W        W26218  11.556  13.509   3.013  0.2061 -0.0071 -0.3298
 9745W        W26219   0.313   6.013   0.926  0.2684 -0.2249 -0.0649
 9746W        W26220   9.864   6.651  11.027 -0.1324  0.4468 -0.1954
 9747W        W26221   1.291   1.490  13.006  0.1055  0.0069  0.0288
 9748W        W26222  16.425  18.136  12.238  0.0121 -0.1756  0.0218
 9749W        W26223  18.186  12.821   0.069 -0.1368  0.0422  0.4504
 9750W        W26224   1.191  17.982  12.973 -0.3626 -0.0589 -0.2356
 9751W        W26225   4.604   0.896   5.228 -0.1411 -0.0248  0.0548
 9752W        W26226   8.361   4.194  11.295  0.0313 -0.1098  0.1763
 9753W        W26227   5.162   9.366   2.675  0.2863  0.0760  0.1251
 9754W        W26228   5.917   8.867  16.184 -0.1315 -0.0355 -0.3920
 9755W        W26229  17.066  14.320  13.180  0.4895  0.0828  0.0461
 9756W        W26230  13.052   6.638   2.154  0.0671  0.4019 -0.2062
 9757W        W26231  11.418  18.109   1.188  0.0806  0.0234  0.0436
 9758W        W26232  11.510   9.793   0.946  0.0382  0.3401 -0.1037
 9759W        W26233   5.108   4.784   1.385 -0.0192 -0.0171  0.4873
 9760W        W26234   0.467  10.239   1.708  0.0917  0.2220 -0.1264
 9761W        W26235   2.620  11.151   4.471  0.1165  0.1883  0.0225
 9762W        W26236   8.771   5.685   4.393 -0.2290  0.0345  0.1402
 9763W        W26237  16.459  12.063   4.903  0.0717  0.1339  0.0004
 9764W        W26238  10.108   0.060  11.373  0.0089  0.0562  0.0872
 9765W        W26239   7.196   6.241   2.731 -0.0568  0.1854  0.0706
 9766W        W26240   1.409   3.047  14.423 -0.2458 -0.2998  0.0796
 9767W        W26241   8.138   1.579  12.512 -0.1272 -0.4099  0.1027
 9768W        W26242   7.865  14.932   2.007  0.0652 -0.0454  0.0205
 9769W        W26243  15.767   7.576  11.864  0.3020 -0.0150  0.0042
 9770W        W26244   9.814  11.926   2.434  0.0275 -0.0865 -0.1098
 9771W        W26245   0.979   9.816  16.215 -0.2780  0.1780  0.1603
 9772W        W26246   4.775  15.911  15.818  0.0958 -0.4121  0.1228
 9773W        W26247  10.915   2.140  13.378 -0.1355  0.1273  0.2145
 9774W        W26248  12.339   0.652   3.739  0.2782 -0.0178 -0.1156
 9775W        W26249   1.248   4.489   2.532 -0.1435  0.2595  0.1034
 9776W        W26250   3.000  17.583   3.174 -0.0314  0.0264 -0.1758
 9777W        W26251   4.268  17.025   0.974 -0.0369  0.1013 -0.1108
 9778W        W26252  17.665  17.529  11.867  0.1326  0.0637 -0.0996
 9779W        W26253   1.291  15.579  12.247  0.2837 -0.1933 -0.1796
 9780W        W26254  10.096   4.502  13.424  0.0243 -0.4283 -0.1511
 9781W        W26255  17.048   7.594   4.054 -0.1086  0.0179 -0.2495
 9782W        W26256  11.234   1.140   0.196  0.1771  0.1028  0.0169
 9783W        W26257   2.905  12.270  16.149 -0.1136  0.2393 -0.0055
 9784W        W26258   1.648  12.334   5.234 -0.2112 -0.3740 -0.0690
 9785W        W26259   5.010   3.277  16.139 -0.2958 -0.1663 -0.2305
 9786W        W26260  14.647   9.448  14.251 -0.4215  0.3642 -0.3187
 9787W        W26261   4.852   7.023  12.251  0.2605  0.1891 -0.0251
 9788W        W26262   1.831  11.606   4.078  0.1305 -0.1168 -0.3889
 9789W        W26263  12.034  10.396   1.850 -0.4358  0.0815 -0.1285
 9790W        W26264   1.268   0.365  12.334 -0.2102 -0.0006  0.0003
 9791W        W26265  17.860  13.596  15.277  0.2463  0.2446 -0.1797
 9792W        W26266  12.202  14.319   2.478 -0.0936 -0.2972 -0.2379
 9793W        W26267   7.499  13.682  11.943 -0.0568  0.0472 -0.0532
 9794W        W26268   1.657  17.341  16.092 -0.1049  0.1271 -0.2031
 9795W        W26269   7.409  15.012   1.782 -0.2181  0.1424 -0.2467
 9796W        W26270   4.379   0.967  14.616  0.4387 -0.0430 -0.1457
 9797W        W26271   4.016   7.042  14.201 -0.1455  0.1225 -0.1913
 9798W        W26272  18.196  18.034  13.523  0.0822 -0.1725 -0.1022
 9799W        W26273  13.655   4.847   4.820 -0.3255  0.0485 -0.1107
 9800W        W26274  17.467  13.083   5.161  0.0499 -0.2637 -0.0158
 9801W        W26275   4.828  13.719   0.271  0.0978 -0.0477 -0.0149
 9802W        W26276   1.983   2.758   4.926  0.0652  0.3841 -0.2589
 9803W        W26277   1.549  13.518  14.101  0.2176 -0.0417 -0.1118
 9804W        W26278   3.720  17.040   2.874 -0.1810  0.0111 -0.1318
 9805W        W26279   8.494  15.299   3.813 -0.2216 -0.2590 -0.2201
 9806W        W26280  14.523  11.536  13.236 -0.0381 -0.1402 -0.1584
 9807W        W26281  10.435  14.469   2.903  0.1437  0.4451 -0.2815
 9808W        W26282  16.684  17.856   5.462 -0.0208  0.1693  0.0568
 9809W        W26283  14.599  12.681  12.352  0.3062  0.0041 -0.0963
 9810W        W26284   5.207  16.589  15.527  0.1592 -0.0698  0.0018
 9811W        W26285   5.949  16.668  11.975 -0.1730  0.0147  0.2983
 9812W        W26286   6.995   8.193  13.289  0.1625 -0.4015  0.2650
 9813W        W26287   3.289  10.711   1.160 -0.2877 -0.2326 -0.2891
 9814W        W26288  10.226  11.056  11.512  0.0433  0.2166 -0.1641
 9815W        W26289   9.937  18.143  11.988 -0.3559 -0.1212  0.2011
 9816W        W26290  12.502  15.327   0.307 -0.0148 -0.0706  0.4374
 9817W        W26291   5.855  15.153   2.953 -0.0156 -0.0825 -0.0935
 9818W        W26292   7.936   4.601   2.603 -0.1208 -0.2506 -0.0163
 9819W        W26293   0.494  11.914   2.791 -0.1354  0.1016  0.1018
 9820W        W26294   8.520  17.630   2.861  0.0291  0.2544 -0.0151
 9821W        W26295  15.946  16.594   1.725  0.0463  0.1160  0.1574
 9822W        W26296   9.347  11.742  12.682 -0.5545  0.0677 -0.0608
 9823W        W26297  15.288  12.487   1.207  0.0938  0.0914  0.2110
 9824W        W26298  17.749   4.492   2.993  0.1514  0.4540  0.3224
 9825W        W26299   4.136   8.040   0.153 -0.3354  0.1291 -0.0152
 9826W        W26300   2.251  10.224   3.139  0.0610 -0.0007  0.3659
 9827W        W26301   5.760  12.076  15.423 -0.0557  0.1123  0.2349
 9828W        W26302  12.831  17.739  14.017  0.3005  0.1599 -0.1896
 9829W        W26303   3.684   7.324  12.776 -0.0553 -0.0582  0.2917
 9830W        W26304   0.520   8.703   2.562  0.1284  0.0249  0.1855
 9831W        W26305  11.585   1.454   3.860  0.2169  0.0021 -0.0390
 9832W        W26306   5.666  17.733   3.009 -0.0772 -0.1853 -0.1487
 9833W        W26307   2.763   1.373   3.754 -0.1133 -0.2126  0.1962
 9834W        W26308   4.384  17.612   4.536  0.5537 -0.1656  0.1168
 9835W        W26309  17.129   5.951  11.692 -0.0007 -0.2198  0.3672
 9836W        W26310   5.572   7.730   1.765 -0.0079 -0.0216  0.2391
 9837W        W26311  15.560  16.746   1.413 -0.0735 -0.0876  0.0288
 9838W        W26312   0.968  17.544   4.122 -0.0117 -0.3440  0.0954
 9839W        W26313  15.638  16.092  10.938  0.1401 -0.1508  0.3173
 9840W        W26314  12.945  16.328  15.989  0.3388  0.3961  0.1043
 9841W        W26315   4.144   5.151  13.668 -0.1161 -0.4247 -0.2142
 9842W        W26316   8.267   5.470   2.201 -0.4061 -0.2465 -0.3309
 9843W        W26317  14.993  15.361   4.164 -0.2137 -0.1624 -0.0803
 9844W        W26318   7.784   4.928   5.786 -0.0668  0.1071  0.0574
 9845W        W26319   3.862  10.670  12.507 -0.2925 -0.2616 -0.0387
 9846W        W26320  15.974   8.011  13.447 -0.1931 -0.0253  0.2967
 9847W        W26321  17.545  16.270  12.196 -0.0562  0.4422  0.1416
 9848W        W26322  16.373  14.241   5.500  0.5651  0.0587 -0.0135
 9849W        W26323  13.563  14.456   1.986 -0.5286  0.2256  0.0866
 9850W        W26324   9.267   3.961   2.621  0.0859 -0.2012 -0.1873
 9851W        W26325   0.097   5.107   0.558  0.1834 -0.0455 -0.0079
 9852W        W26326   5.039   2.875   2.136  0.1462  0.0107 -0.0272
 9853W        W26327   8.361   8.435   1.798 -0.0679  0.2355  0.2774
 9854W        W26328  12.757   4.056  10.880  0.1194 -0.1452  0.1971
 9855W        W26329  11.354  10.943   1.738  0.1595 -0.1611  0.0019
 9856W        W26330  10.606   0.369  14.749 -0.2197  0.5232  0.0991
 9857W        W26331   6.105   3.491  11.529  0.1455 -0.1356  0.0299
 9858W        W26332  18.259  11.224  12.088  0.0450  0.0476 -0.0107
 9859W        W26333  10.869  15.623  11.947 -0.3090 -0.2399 -0.3044
 9860W        W26334   6.672  18.317   3.977 -0.1986  0.0126  0.0520
 9861W        W26335   1.213   6.994   5.918 -0.1807 -0.0853 -0.4165
 9862W        W26336  12.939  11.572   2.120 -0.3598  0.1841  0.1251
 9863W        W26337  13.280  11.382   5.061 -0.0887 -0.2294 -0.4465
 9864W        W26338   4.527   9.587  11.329 -0.0006  0.1983  0.0147
 9865W        W26339   0.284  12.866   0.074 -0.1166  0.0497  0.1331
 9866W        W26340  13.329   1.855  15.432 -0.1453 -0.1051  0.0159
 9867W        W26341   5.296  15.131   0.765  0.0607 -0.0651 -0.0305
 9868W        W26342   4.343  15.932  15.228 -0.0390 -0.0568  0.2870
 9869W        W26343  17.260   3.676  14.455 -0.1300  0.1196  0.2459
 9870W        W26344   4.931  16.420   0.699  0.0145 -0.1995  0.0787
 9871W        W26345   7.002  16.682   0.044 -0.1469  0.0474  0.0401
 9872W        W26346   2.954  11.818   3.468 -0.0047 -0.0535 -0.0414
 9873W        W26347   6.279   4.603  14.652  0.2069 -0.0027  0.0266
 9874W        W26348   6.661  17.205   3.343 -0.0739  0.4302 -0.1210
 9875W        W26349   5.016  11.487  11.892  0.1013  0.0347  0.0759
 9876W        W26350  13.363   4.918  10.423 -0.0654 -0.0982 -0.0799
 9877W        W26351   5.555   4.635   1.601  0.0093  0.0701 -0.2068
 9878W        W26352   0.647   1.904  15.584 -0.1404  0.0660 -0.1840
 9879W        W26353  16.133  10.008   3.908  0.0704  0.0707  0.2504
 9880W        W26354  15.761  12.573  15.070  0.0223 -0.0765  0.1202
 9881W        W26355  10.308   1.454  13.279  0.4941 -0.0919 -0.3861
 9882W        W26356  12.653   3.763   4.214  0.0857  0.2814 -0.2326
 9883W        W26357  11.291  15.531   0.758 -0.0934  0.0690  0.2423
 9884W        W26358   6.457  15.444  15.004  0.0087 -0.0494 -0.2331
 9885W        W26359   9.730  12.506  13.409 -0.3134 -0.0859 -0.3301
 9886W        W26360   8.520   3.798  14.070 -0.2774 -0.4483  0.1313
 9887W        W26361   5.789  10.094   2.647  0.1653 -0.0866  0.0802
 9888W        W26362  15.129   8.638   3.942  0.5021  0.2511 -0.0539
 9889W        W26363   7.983  16.933   0.348  0.2822  0.4191  0.1085
 9890W        W26364  15.960  15.585   4.856 -0.1788  0.0519  0.0242
 9891W        W26365  14.808   7.767  14.497  0.0726  0.0450 -0.3429
 9892W        W26366   5.411   1.448  15.682 -0.0279  0.1265  0.3686
 9893W        W26367   9.279   9.343  12.629 -0.1212 -0.3556 -0.1805
 9894W        W26368   2.087   7.439   4.745  0.1177 -0.1302 -0.1943
 9895W        W26369   6.418  16.509   5.855  0.0221  0.0359 -0.0410
 9896W        W26370  18.120  15.046  13.404 -0.1245 -0.0882 -0.2768
 9897W        W26371   5.476  11.463   3.963  0.2704  0.0915 -0.2219
 9898W        W26372   6.605   3.096  15.402  0.3265 -0.0516  0.1383
 9899W        W26373   2.593  15.201  12.846  0.0983  0.0140 -0.1695
 9900W        W26374   2.720  14.282   0.561  0.2036  0.0857  0.4871
 9901W        W26375  13.731   3.878   0.719  0.0195  0.0422 -0.2235
 9902W        W26376   9.557   8.702   1.000  0.2047 -0.0034 -0.2175
 9903W        W26377   7.613   9.501  12.963 -0.0589 -0.0699  0.2222
 9904W        W26378   2.809  10.054   5.413 -0.2309 -0.0902 -0.0585
 9905W        W26379   2.309  18.047  16.310  0.1059 -0.2882 -0.0011
 9906W        W26380  10.316   8.141   1.510 -0.0465  0.1458  0.1287
 9907W        W26381  15.358   5.341  13.503  0.1471 -0.2894 -0.1270
 9908W        W26382   9.408   5.194   4.870  0.0694 -0.0090  0.0050
 9909W        W26383   1.872  17.693   0.055  0.2798 -0.3513  0.0306
 9910W        W26384   1.244   8.925  13.589  0.1411  0.2548  0.1158
 9911W        W26385   0.712   8.310  16.203 -0.1011 -0.0323  0.0059
 9912W        W26386   2.275   3.838   1.066  0.1062 -0.1149 -0.1190
 9913W        W26387   3.817   1.319   3.481  0.1085 -0.2822 -0.0768
 9914W        W26388   2.823   9.190   3.797  0.0009 -0.0646 -0.2104
 9915W        W26389   1.330  11.600   1.644 -0.0944  0.2574 -0.0438
 9916W        W26390  11.836   2.781   3.445  0.3849 -0.0971 -0.4798
 9917W        W26391   0.195  15.838   3.506  0.1364 -0.0314  0.1177
 9918W        W26392   3.010  13.985  14.391 -0.1982  0.2391 -0.4517
 9919W        W26393  11.417   0.839  14.155  0.1839 -0.0513 -0.1371
 9920W        W26394   5.862   1.721  14.065 -0.1826 -0.2553  0.1360
 9921W        W26395  17.102   8.077   2.467  0.0886  0.0016  0.2406
 9922W        W26396  12.043   5.764   3.685  0.0081  0.0650 -0.1062
 9923W        W26397  12.462   3.138  12.698 -0.1826 -0.2725  0.0575
 9924W        W26398   3.821  11.893   0.850 -0.0732 -0.0447  0.1330
 9925W        W26399  16.235   4.315  12.427 -0.1506  0.1771 -0.0471
 9926W        W26400   6.479   4.684  15.146 -0.1196  0.1604 -0.1741
 9927W        W26401  16.351   2.254  14.835  0.0819 -0.1978  0.1934
 9928W        W26402   3.759   5.221  11.509 -0.2169 -0.1169  0.1183
 9929W        W26403   2.016   9.486   2.503  0.0857  0.0277  0.1031
 9930W        W26404   5.701   6.139  16.226  0.1871 -0.1282 -0.2009
 9931W        W26405  11.707  17.906  13.251 -0.1162  0.4422  0.0939
 9932W        W26406  13.096  13.374   0.869  0.0288  0.0562  0.0302
 9933W        W26407  15.817  10.044   3.554 -0.1576 -0.0679 -0.2370
 9934W        W26408   4.555  17.710  12.754 -0.5282  0.1261 -0.4799
 9935W        W26409  15.990   8.959  12.375  0.6758 -0.0197 -0.0643
 9936W        W26410  13.556  11.617  14.717 -0.2404  0.1454 -0.0635
 9937W        W26411  10.159   0.057   2.602  0.0824  0.2907 -0.1425
 9938W        W26412  18.009  10.367   2.863  0.0224 -0.0023 -0.1586
 9939W        W26413  17.393  14.625  14.797  0.1474 -0.0422  0.1055
 9940W        W26414  15.646  12.068  14.916 -0.0024 -0.2635 -0.2599
 9941W        W26415   3.216   7.896   5.257 -0.2633 -0.0431 -0.1669
 9942W        W26416   1.497   8.992   1.078  0.1256  0.1368 -0.3673
 9943W        W26417  13.666  14.681   2.447 -0.0541 -0.0017  0.3089
 9944W        W26418   1.431  15.398   5.146  0.0807 -0.4465 -0.1491
 9945W        W26419   5.387  12.879  14.360  0.2160  0.1444 -0.0359
 9946W        W26420  17.447   6.358   1.790 -0.1388 -0.1656  0.0950
 9947W        W26421   8.213  12.286   0.370 -0.0929 -0.3373 -0.0075
 9948W        W26422   8.019  12.888  11.879 -0.0219 -0.0895 -0.0613
 9949W        W26423  13.135  16.556  12.581 -0.0293  0.1214 -0.0187
 9950W        W26424   4.707   0.193   0.991 -0.1052  0.0713  0.3105
 9951W        W26425  13.585   0.430  15.105 -0.1535  0.1994  0.3928
 9952W        W26426  17.876   3.900   0.373  0.0310  0.1011 -0.0716
 9953W        W26427   7.191  17.115   1.833 -0.0701  0.3658 -0.3062
 9954W        W26428  13.879  12.964  15.771  0.1765  0.0237 -0.1246
 9955W        W26429   0.562   2.580   2.420 -0.5500  0.0691  0.0586
 9956W        W26430  12.713  17.551   4.682  0.2809 -0.2545 -0.1010
 9957W        W26431   3.190  17.424  14.990  0.0682  0.0932  0.0028
 9958W        W26432  10.396  12.953   0.917  0.0740 -0.0563  0.0675
 9959W        W26433   9.686  10.099   0.522  0.4747  0.3333 -0.0367
 9960W        W26434  17.070  12.455   5.645  0.0329 -0.1984  0.3322
 9961W        W26435   2.075   9.923   1.622 -0.2898 -0.0623 -0.1125
 9962W        W26436   2.432   6.575   3.582  0.4407  0.1276  0.1560
 9963W        W26437   5.756   0.868   1.383 -0.0762 -0.1002  0.0059
 9964W        W26438   3.204   7.142   0.452  0.2123  0.0280  0.0902
 9965W        W26439  14.259  17.997   0.844 -0.1921 -0.1042 -0.0613
 9966W        W26440  17.610   8.155  15.394 -0.1481 -0.0063 -0.2746
 9967W        W26441   9.624   6.111  11.732 -0.1993 -0.0259  0.0569
 9968W        W26442   2.062   4.251   0.849 -0.4768 -0.3610  0.2123
 9969W        W26443  12.496  15.422  15.648  0.0582 -0.1765 -0.1831
 9970W        W26444  16.096  15.078   0.621 -0.3617  0.0535  0.1754
 9971W        W26445  12.667  15.261  14.399 -0.0487  0.1961  0.2492
 9972W        W26446   2.771  12.243   2.821  0.1161  0.1386 -0.2424
 9973W        W26447   9.341   4.767  11.668  0.0462 -0.0589  0.0714
 9974W        W26448   3.466   5.460   0.014  0.3423 -0.1962 -0.1207
 9975W        W26449   6.173   0.936  14.531  0.0985 -0.1085  0.0022
 9976W        W26450  13.614  14.859   3.583  0.1335 -0.0917 -0.0296
 9977W        W26451   5.451   6.773  12.301 -0.0032 -0.0541  0.0496
 9978W        W26452   7.796   6.386   2.733 -0.1473 -0.2597 -0.2181
 9979W        W26453  13.684  11.508   3.953  0.1347 -0.0472 -0.3390
 9980W        W26454  14.718   5.938   0.465  0.0381 -0.1752 -0.1749
 9981W        W26455   4.169   1.206   3.922  0.1303 -0.0056  0.2021
 9982W        W26456  15.212  17.964   0.057 -0.1938  0.1517 -0.2155
 9983W        W26457  10.874   5.147   0.769  0.0338  0.2344 -0.0736
 9984W        W26458  13.324   0.456   1.582 -0.2355  0.1048 -0.1711
 9985W        W26459   5.439  14.899  13.835  0.0709 -0.1100 -0.0040
 9986W        W26460   3.208   6.790   5.052  0.1116  0.0286  0.1627
 9987W        W26461   4.188   3.648   2.626 -0.2279 -0.2504  0.0375
 9988W        W26462   2.702   4.908   0.986 -0.2211 -0.2277  0.0834
 9989W        W26463  13.295   7.200  11.196 -0.1347  0.2917 -0.1462
 9990W        W26464   2.443   5.068  11.710 -0.0494  0.3194 -0.1091
 9991W        W26465  13.697  17.336   4.459 -0.2522  0.3876 -0.1519
 9992W        W26466  11.338   6.359   1.042 -0.3245 -0.1043  0.4418
 9993W        W26467   3.238  10.077   0.352 -0.1770 -0.0162 -0.2852
 9994W        W26468  17.306   8.985  13.908  0.0011 -0.2909 -0.1500
 9995W        W26469   8.440   5.467  11.972  0.0154  0.0250  0.0901
 9996W        W26470  15.115   4.658  15.950  0.1172  0.0809 -0.2142
 9997W        W26471  12.156  11.242  13.370 -0.0675 -0.2611  0.5415
 9998W        W26472   6.805   0.884   0.562 -0.1357 -0.3251  0.0656
 9999W        W26473   4.609   2.981   3.771  0.2257  0.1741  0.2293
10000W        W26474   2.827  12.660   4.467 -0.1535  0.1240 -0.0462
10001W        W26475   9.108   3.183  15.882  0.2800  0.0494  0.2819
10002W        W26476  10.329   6.618  15.098  0.0715 -0.1153 -0.0056
10003W        W26477  13.403   1.691  15.966  0.4511  0.2512  0.2202
10004W        W26478  11.929  17.106   3.446 -0.2258 -0.1990  0.0584
10005W        W26479   7.019  11.757   2.277  0.0910 -0.2355 -0.1656
10006W        W26480  15.489  13.776   3.071  0.1361 -0.3687  0.0328
10007W        W26481  14.697  12.030   3.965 -0.0829 -0.1196 -0.1212
10008W        W26482  14.552  16.422  11.451 -0.2075 -0.0138 -0.0788
10009W        W26483   4.660   6.508  11.562  0.2863 -0.3027 -0.1200
10010W        W26484   0.802   0.731   6.453 -0.2037  0.0847  0.0520
10011W        W26485  15.913   1.236   2.892 -0.1907  0.2284  0.2419
10012W        W26486   0.028   9.988   1.643 -0.2122  0.3084 -0.0171
10013W        W26487   4.939   5.526  16.209  0.1143 -0.0908 -0.1496
10014W        W26488   3.353   2.715   1.143  0.2815 -0.1218 -0.2403
10015W        W26489   8.154   6.566  14.385 -0.2358 -0.2974 -0.1412
10016W        W26490  12.478  13.227  11.598  0.0777  0.3034 -0.0580
10017W        W26491   5.899   6.357   0.845 -0.0800 -0.0690  0.0667
10018W        W26492   0.681  10.485   0.509  0.2135  0.1525 -0.1572
10019W        W26493   6.597  10.983  12.442  0.0061 -0.1109  0.3188
10020W        W26494  11.190  12.973  11.412  0.3974  0.2049  0.1598
10021W        W26495   6.854   2.264   2.860 -0.3028  0.0524  0.1302
10022W        W26496   2.790  10.628   4.436 -0.1740  0.0997  0.0576
10023W        W26497  16.285   8.659   6.091  0.0239  0.1260  0.1943
10024W        W26498   1.506  17.900  15.912  0.0799 -0.2218 -0.2493
10025W        W26499   9.481  10.726  11.067 -0.4968 -0.0181 -0.0379
10026W        W26500  17.335   5.695  14.467  0.0462 -0.1928 -0.1592
10027W        W26501  16.013   6.587  16.008 -0.1176  0.2184  0.1812
10028W        W26502   6.696   2.166  12.885  0.0452  0.2101 -0.1048
10029W        W26503  15.833  16.996   4.521 -0.1694  0.2338 -0.0944
10030W        W26504  16.493   6.866   3.028 -0.2171  0.4554 -0.0123
10031W        W26505   0.508  16.169  14.629  0.1406  0.4234 -0.3389
10032W        W26506   5.427  10.109  12.520  0.1808 -0.0489 -0.0019
10033W        W26507  12.654  10.472   4.229 -0.0356 -0.0788 -0.2087
10034W        W26508   2.109  12.035   5.284 -0.0990 -0.1988 -0.0515
10035W        W26509  16.592  17.653   1.886 -0.2282 -0.3220  0.0750
10036W        W26510   9.209   0.885  14.746 -0.0184 -0.0626 -0.0290
10037W        W26511  17.124  13.333  14.782 -0.0930  0.0064  0.2493
10038W        W26512   6.849   4.640  12.327 -0.0312 -0.3470 -0.1096
10039W        W26513   6.813   6.835   0.399  0.0118  0.0828  0.1826
10040W        W26514  18.085  10.496   0.574  0.2074 -0.1009 -0.0505
10041W        W26515   8.455  15.138  14.633  0.3467  0.2162  0.0123
10042W        W26516  13.330   2.042  12.561 -0.1124  0.3218 -0.2079
10043W        W26517  10.429   4.515  11.344 -0.0606  0.1921  0.1644
10044W        W26518   9.881   6.659   4.512  0.0590 -0.0691 -0.1258
10045W        W26519  16.564   4.013  10.885 -0.3244  0.0502  0.1330
10046W        W26520  16.859   2.804  13.579  0.0646  0.1403  0.2733
10047W        W26521   1.545   9.098   4.653  0.0468  0.2451 -0.1862
10048W        W26522   9.853   2.630  12.801 -0.2027  0.1088  0.2655
10049W        W26523   9.685  11.063  16.305  0.0510  0.1507 -0.2490
10050W        W26524   7.745  10.768   1.204 -0.2722 -0.0971 -0.1383
10051W        W26525   3.088  10.161  16.118 -0.3080  0.1763  0.0304
10052W        W26526  11.189   5.268  15.786  0.0142  0.1203  0.0265
10053W        W26527  11.920  12.635   3.836 -0.2070 -0.2760 -0.0310
10054W        W26528   8.567   2.139  13.716  0.2773  0.0922  0.1545
10055W        W26529   6.277  10.229  12.070  0.0944 -0.0983  0.0430
10056W        W26530   3.151   4.860   3.644  0.1519  0.0699 -0.0044
10057W        W26531  16.610   4.583   0.930  0.3209 -0.2761 -0.1614
10058W        W26532  17.005  10.751  11.568 -0.1810  0.0660  0.2592
10059W        W26533   4.454   1.488  15.315  0.5116 -0.1251 -0.1991
10060W        W26534   9.085   1.314   5.198  0.3098  0.1621 -0.1603
10061W        W26535   2.919   9.786  12.349  0.1991 -0.0465 -0.1791
10062W        W26536   7.566  17.071  13.862 -0.0481 -0.0340 -0.3549
10063W        W26537   1.133  15.842  13.093 -0.0177  0.2970  0.0224
10064W        W26538  16.124   4.655   1.444  0.0009  0.0903 -0.0466
10065W        W26539  15.564   3.575   0.634  0.0846 -0.0355  0.0689
10066W        W26540   5.168  11.057   2.075 -0.1284 -0.0119 -0.0894
10067W        W26541   0.628   0.051   2.786  0.0960 -0.3873  0.1683
10068W        W26542  11.374   5.139   0.501  0.4706  0.0166 -0.1898
10069W        W26543   8.436   7.543  12.275  0.1364 -0.0344 -0.0531
10070W        W26544  17.868   1.244  16.227  0.4739  0.1596 -0.4657
10071W        W26545   9.611   1.387  15.915  0.1661  0.1324  0.3694
10072W        W26546   6.393   7.217  14.439  0.0812 -0.0619  0.0201
10073W        W26547   3.138   9.930   3.162  0.3771 -0.0113  0.0261
10074W        W26548   3.199   8.866  11.297  0.2278  0.1797 -0.1363
10075W        W26549  13.540  17.097   1.862  0.0135  0.0726 -0.1645
10076W        W26550   1.447   4.982  16.234 -0.1054 -0.2418  0.0766
10077W        W26551  14.265   4.555  10.534  0.0994  0.1691 -0.3119
10078W        W26552  17.003   3.030  16.196  0.1212 -0.1566 -0.0702
10079W        W26553   2.372  16.422  14.762 -0.1033  0.3976  0.0120
10080W        W26554   1.593   5.185  11.698 -0.2119 -0.0686  0.0718
10081W        W26555  12.391  13.876  12.577  0.0096  0.0186  0.1068
10082W        W26556   2.162  12.873  16.166  0.0789 -0.2095 -0.0576
10083W        W26557   9.859   7.050   3.037 -0.0905 -0.2227  0.0810
10084W        W26558   9.652   1.504   5.091  0.2621 -0.1140 -0.2503
10085W        W26559   3.381   5.468  11.733  0.1935 -0.1699 -0.0563
10086W        W26560  10.302   6.873   2.093  0.1256 -0.3580 -0.2506
10087W        W26561   1.135   4.465  12.185 -0.1929 -0.2060 -0.1814
10088W        W26562   6.931  13.806   0.487  0.1555 -0.1740 -0.0114
10089W        W26563   1.028  10.162   1.452  0.0856 -0.2097 -0.3779
10090W        W26564   7.580  10.523   4.032  0.1138 -0.1125  0.1453
10091W        W26565  10.367   1.726   0.180 -0.1748 -0.0315  0.0214
10092W        W26566   8.444   3.361  15.298 -0.2354 -0.0256  0.2020
10093W        W26567   7.032   5.044   2.586  0.2079  0.0707  0.1712
10094W        W26568   2.135   5.350  15.337  0.0461  0.5846  0.0430
10095W        W26569  18.232   7.120   3.254 -0.1685  0.0547 -0.0389
10096W        W26570   3.017  11.938  15.139 -0.0820  0.3056  0.3491
10097W        W26571   4.414   3.936  11.416  0.0458 -0.1832  0.1022
10098W        W26572  13.578   2.797  14.970  0.1940 -0.0260 -0.0902
10099W        W26573  12.747  18.302   3.173 -0.1130 -0.2531  0.2514
10100W        W26574   7.396   4.194  10.865  0.1075  0.0980 -0.1829
10101W        W26575  18.049   1.547  14.246 -0.2547  0.0753  0.2655
10102W        W26576  17.286  14.466   4.448 -0.2569 -0.0063 -0.0027
10103W        W26577   5.809  15.895  12.962  0.5551 -0.1910  0.0772
10104W        W26578  12.045   7.908  12.189 -0.1689  0.2385  0.0421
10105W        W26579   9.132  15.525  14.646 -0.2562 -0.1495  0.2822
10106W        W26580   6.476   1.877   5.110 -0.2428  0.2908 -0.0194
10107W        W26581  16.209   6.262  14.163 -0.1403  0.2794 -0.2053
10108W        W26582   5.683  16.930   0.283 -0.0317  0.1052  0.0931
10109W        W26583  17.132  13.667   5.852  0.0292 -0.0181  0.1930
10110W        W26584  18.069   3.612  12.411 -0.2104 -0.0731  0.0882
10111W        W26585   2.883  11.544  11.318  0.1885 -0.0528  0.2881
10112W        W26586   3.012   9.117   0.198 -0.1650 -0.2758  0.1968
10113W        W26587   1.100   7.588  15.477  0.2012 -0.0704 -0.0915
10114W        W26588  12.185  10.953  14.406 -0.0164  0.1281 -0.0761
10115W        W26589   2.744   8.293   3.500  0.0859  0.0181 -0.4665
10116W        W26590  15.638   9.844  11.266  0.0224 -0.1336  0.1403
10117W        W26591   5.112   2.015   5.365  0.1774  0.0863 -0.1045
10118W        W26592  10.657   6.098  16.110  0.0886  0.0750  0.2528
10119W        W26593  13.604  16.607   0.066  0.2165  0.1356  0.4807
10120W        W26594  17.107   3.706   2.912  0.2053  0.1890  0.1326
10121W        W26595   3.891  17.173   1.528  0.0317  0.0548 -0.0355
10122W        W26596   3.618   6.767   5.735  0.0685  0.0656  0.1388
10123W        W26597  13.855  15.808  15.795 -0.0641  0.0853  0.0256
10124W        W26598  17.796   6.171   5.202  0.0647  0.1756  0.0419
10125W        W26599  11.227  13.400   0.366  0.3101  0.0621 -0.0995
10126W        W26600  14.368   4.487  13.508 -0.0887 -0.1133  0.1550
10127W        W26601  14.326   3.439  15.021 -0.0035 -0.0032 -0.0482
10128W        W26602   3.436   5.065   4.053  0.1083 -0.1573 -0.2397
10129W        W26603   5.688   2.738   4.487 -0.0537  0.1728 -0.1455
10130W        W26604  12.507   8.233   2.023 -0.2495  0.0478  0.3735
10131W        W26605  16.483  16.739  14.101 -0.1424 -0.2333 -0.0631
10132W        W26606   5.026   8.737  13.502 -0.0757  0.2975  0.2342
10133W        W26607   3.366  14.050  13.982 -0.0061 -0.0892 -0.1330
10134W        W26608   6.928  14.141   2.855 -0.0031 -0.1829  0.0065
10135W        W26609   3.509   3.843  14.428  0.0452  0.2375 -0.0785
10136W        W26610   8.635   5.198   3.488 -0.1569  0.1330  0.1175
10137W        W26611  14.258  16.412  13.548  0.1730 -0.2735 -0.0408
10138W        W26612  15.366   5.499   0.789 -0.0915  0.0537  0.1743
10139W        W26613  13.069  10.333   1.990 -0.0901  0.1011 -0.0484
10140W        W26614  13.088   8.518   0.391  0.1017 -0.2450 -0.0754
10141W        W26615   0.892   9.291  11.687  0.1811  0.1993 -0.2159
10142W        W26616   2.718   7.365  11.983 -0.0934  0.1424  0.0811
10143W        W26617   7.570   0.828   0.981 -0.2240 -0.2748 -0.0243
10144W        W26618   4.067   8.010  14.607  0.0931 -0.0862 -0.0705
10145W        W26619  10.973   2.454   0.190 -0.1714 -0.1517  0.0502
10146W        W26620  13.796  18.145   0.054 -0.1306  0.0951 -0.0778
10147W        W26621   7.630  16.163   4.070 -0.1113 -0.3424 -0.0894
10148W        W26622   6.607  13.996  11.678 -0.4759  0.0240 -0.1944
10149W        W26623  12.608  11.312  14.695  0.0296 -0.2342 -0.0498
10150W        W26624  13.817   4.502  13.200  0.2303  0.2485 -0.0081
10151W        W26625   3.017   5.199  10.997 -0.3561  0.1606  0.1734
10152W        W26626   3.281   9.662   5.500 -0.1655  0.0872  0.3078
10153W        W26627  16.673   8.256  13.212 -0.3151  0.3417  0.0864
10154W        W26628  18.020   9.668  15.614  0.0027 -0.4063 -0.3000
10155W        W26629  15.976   0.369   4.001 -0.1380 -0.2645  0.1374
10156W        W26630  16.300   4.997   4.483  0.0002 -0.2564 -0.0695
10157W        W26631   6.654  17.212   6.504  0.3524 -0.1203 -0.0860
10158W        W26632   5.710   9.000   3.715  0.4711 -0.0628  0.1240
10159W        W26633  13.714   9.837   3.574 -0.2928 -0.4408  0.0399
10160W        W26634   3.133  15.626   5.377  0.3227  0.1228 -0.2251
10161W        W26635   4.875   0.153  12.857  0.0804  0.3249 -0.0211
10162W        W26636   0.273  10.659   5.123 -0.4011  0.0172 -0.0982
10163W        W26637  13.764  12.222  12.664  0.0263 -0.2296 -0.1316
10164W        W26638   2.009  14.913   1.089  0.1155  0.1315  0.2234
10165W        W26639  11.666  13.898  15.948  0.1550 -0.5523 -0.2821
10166W        W26640  12.328   4.048  10.685  0.4489 -0.0756 -0.0406
10167W        W26641   7.977  11.133   0.843  0.0869  0.2195 -0.3711
10168W        W26642  12.036   3.780   2.647 -0.5651 -0.1690  0.2184
10169W        W26643  14.292   7.177  15.622  0.0137  0.1046 -0.0065
10170W        W26644   9.136   6.177  11.921  0.1563 -0.4329 -0.2936
10171W        W26645  10.459   3.472   3.415  0.0052  0.0320 -0.0807
10172W        W26646   5.404   1.360   1.132  0.4077  0.0271  0.0320
10173W        W26647  16.498   7.860  12.870 -0.0234 -0.0632 -0.0649
10174W        W26648   7.668   9.349   0.107  0.0126 -0.0015  0.2608
10175W        W26649  14.317   2.788  12.045 -0.1865 -0.3825  0.0437
10176W        W26650   0.099  14.128  14.445  0.1184 -0.0498  0.1546
10177W        W26651   7.816  11.227  14.936 -0.0208 -0.0328 -0.0478
10178W        W26652  11.128   9.647   0.514  0.1033 -0.2164  0.0388
10179W        W26653  10.407   1.514   3.323  0.1012 -0.1922 -0.0621
10180W        W26654   0.676   4.520   3.629  0.2531  0.1508 -0.1896
10181W        W26655  11.841   9.246  11.613 -0.0206  0.1515 -0.0570
10182W        W26656  18.120  10.215   4.473  0.1702 -0.2221  0.2579
10183W        W26657  14.293  11.846   0.093 -0.0211  0.1620 -0.2764
10184W        W26658  10.109  10.730   5.822 -0.0979 -0.3021  0.1131
10185W        W26659   6.993   9.779  13.058  0.0833  0.0231  0.1222
10186W        W26660   8.866   3.344   1.994  0.4044 -0.0115  0.6513
10187W        W26661  16.600  17.437   3.799 -0.0151  0.5829  0.0455
10188W        W26662   8.135   6.651   0.883 -0.0945 -0.4847 -0.0944
10189W        W26663  17.632   9.543   1.864  0.1060 -0.0355  0.0087
10190W        W26664  10.356   1.108   0.065 -0.0274  0.0397  0.0176
10191W        W26665  16.354  17.150   1.072 -0.1240 -0.2493  0.0646
10192W        W26666   9.621  16.102   0.434  0.0436  0.1477 -0.2516
10193W        W26667   4.732  11.594   5.182  0.0690 -0.2173  0.1822
10194W        W26668   6.478  16.893   5.024 -0.1776  0.2131 -0.3548
10195W        W26669   0.891   2.608   1.177 -0.0176  0.2401 -0.0282
10196W        W26670  18.020  16.556  10.885 -0.1233 -0.0991 -0.0101
10197W        W26671   4.491  12.295   2.438 -0.2442  0.2838 -0.0239
10198W        W26672  17.842  10.961  12.191  0.0848 -0.1626  0.0095
10199W        W26673   2.951   6.032   2.903 -0.2272  0.1249 -0.1714
10200W        W26674  10.445  15.633   2.928  0.1739 -0.0185  0.0945
10201W        W26675   0.753   7.896   2.750  0.2109  0.1249 -0.2992
10202W        W26676   4.444   1.829  12.130 -0.1260 -0.0777  0.2122
10203W        W26677   3.574  13.073   2.016 -0.3462  0.1424  0.0730
10204W        W26678   8.730  13.275   2.208  0.2150 -0.2223  0.0499
10205W        W26679   9.838   9.228   5.329 -0.0113 -0.1101  0.1613
10206W        W26680  10.739  16.640   5.353  0.0401 -0.0199 -0.0262
10207W        W26681   1.829   8.740  12.762  0.0151 -0.2537  0.1845
10208W        W26682   0.483   1.481   5.249  0.0747 -0.1261 -0.1278
10209W        W26683   8.891   2.662  12.027 -0.1436 -0.0231 -0.0434
10210W        W26684  11.441  12.195  16.312  0.1672  0.1866  0.0385
10211W        W26685  10.618   7.777   3.914 -0.0689  0.1403  0.1238
10212W        W26686  12.900   4.915   0.185  0.1227 -0.0430 -0.0558
10213W        W26687   4.116   9.983  14.485  0.1789  0.0008 -0.1466
10214W        W26688   3.148   0.362  13.625  0.0478 -0.1760 -0.3196
10215W        W26689   8.584   1.468   1.128  0.0876 -0.2835 -0.0428
10216W        W26690   0.396   7.786  12.500  0.0303  0.1201 -0.2599
10217W        W26691   7.748   2.561  12.757  0.0246 -0.2217  0.1135
10218W        W26692  13.901   1.427   3.479  0.1924  0.0493  0.1869
10219W        W26693   8.470   9.576  15.128 -0.2273 -0.3259  0.0263
10220W        W26694  14.116   4.818  11.138 -0.1684  0.0996 -0.1573
10221W        W26695   0.126  11.397   3.574 -0.0414 -0.1291 -0.2228
10222W        W26696  11.936   3.728   9.622  0.1806 -0.2362 -0.0871
10223W        W26697  16.568  13.058  16.102  0.1025  0.1035 -0.0376
10224W        W26698  17.567   6.249  11.796  0.1286  0.2749  0.1231
10225W        W26699   1.516   8.115  14.721 -0.0535 -0.1168  0.0065
10226W        W26700   1.651   0.338  15.235 -0.0208 -0.0489 -0.0414
10227W        W26701   3.159   5.817   4.883  0.1982 -0.2584 -0.1339
10228W        W26702  15.264   3.152   0.674 -0.0605 -0.1082 -0.0017
10229W        W26703   9.242  15.900   4.768  0.0469 -0.1687 -0.3618
10230W        W26704   2.010  11.027  12.335 -0.0193 -0.3867  0.0336
10231W        W26705  10.652  14.846   5.645  0.1394  0.1471  0.0530
10232W        W26706  15.291   7.508  10.861 -0.5055 -0.0322 -0.1487
10233W        W26707  15.308   3.718  14.931  0.1615 -0.2290 -0.1490
10234W        W26708   8.964   1.646   0.744 -0.1559 -0.0862 -0.1586
10235W        W26709   7.639  10.809  14.714 -0.0664 -0.0301  0.1277
10236W        W26710  14.991  14.313   5.150 -0.1029 -0.0298  0.0975
10237W        W26711   6.034  14.017  13.656  0.3503 -0.3095  0.1504
10238W        W26712  12.024   3.538  10.717 -0.0423  0.1554 -0.6590
10239W        W26713  15.438  11.740  12.717  0.2464  0.0814 -0.2166
10240W        W26714   5.019  12.391  12.699  0.2866 -0.2346 -0.1349
10241W        W26715  15.618   8.366   2.124 -0.0355  0.0550  0.1807
10242W        W26716  14.416   6.617   1.813  0.1499 -0.1184 -0.1698
10243W        W26717   2.453   9.648  16.014  0.2135  0.1212 -0.0532
10244W        W26718   3.852   4.683  11.245  0.0289 -0.2480 -0.1247
10245W        W26719   6.162  10.236   3.432  0.4120  0.0181 -0.1222
10246W        W26720   0.266  11.265   4.044 -0.0992 -0.0892 -0.3420
10247W        W26721  13.601   3.694   0.298 -0.0161  0.1190  0.3217
10248W        W26722   3.959   2.686   1.742  0.1903 -0.0161  0.3828
10249W        W26723  11.392   0.579   2.277 -0.0122 -0.2512 -0.1071
10250W        W26724  15.161  11.875   0.824 -0.3065 -0.1488 -0.1695
10251W        W26725   7.060  11.037   4.867  0.2372 -0.2161  0.0548
10252W        W26726   2.163   8.512   4.183  0.1981  0.3337 -0.3864
10253W        W26727   5.964   5.620  13.948 -0.0244 -0.2182  0.2877
10254W        W26728   6.253  16.907   1.606 -0.2534  0.1262 -0.1127
10255W        W26729   3.687  10.662   4.618 -0.1515 -0.3001 -0.0940
10256W        W26730  12.481  15.171   1.538 -0.0032 -0.3774 -0.1454
10257W        W26731  10.745   8.994   0.135 -0.1211  0.1700 -0.1587
10258W        W26732  10.476  17.885   0.810 -0.4357 -0.0049  0.2249
10259W        W26733   2.000   9.766  15.242 -0.0665  0.1711 -0.0478
10260W        W26734  14.666   4.912  15.313 -0.3320  0.0527  0.0781
10261W        W26735   7.896   5.769   0.480  0.0836  0.2307  0.3540
10262W        W26736  15.962   4.524   4.818  0.2320  0.0080  0.0505
10263W        W26737   0.792  15.753  15.511 -0.1186  0.0765 -0.0681
10264W        W26738  10.421  17.565  11.792  0.1638 -0.0726 -0.1740
10265W        W26739  14.919   5.296  13.745  0.1731  0.3122 -0.1822
10266W        W26740   2.404   9.161  14.441 -0.3134 -0.0085  0.2269
10267W        W26741  10.423  15.988  15.457 -0.0403  0.0948  0.0600
10268W        W26742  17.302  15.465   4.659 -0.3776 -0.1122 -0.1427
10269W        W26743  12.106  13.511   2.835 -0.0775 -0.1209 -0.0217
10270W        W26744   1.034   0.432   4.652  0.3204 -0.4134  0.0673
10271W        W26745   6.112   5.849  15.411  0.2583  0.3034 -0.1091
10272W        W26746   4.725  12.432   1.149  0.1056  0.3267  0.0140
10273W        W26747  10.699   5.341   1.602 -0.0605 -0.0455 -0.1114
10274W        W26748   5.308  10.260   0.475 -0.2919 -0.5255  0.3425
10275W        W26749  15.293   0.978   4.767 -0.0878  0.0462 -0.0986
10276W        W26750   4.144  18.057  12.808 -0.2797  0.2040  0.4416
10277W        W26751   3.075   5.108  15.765  0.1466 -0.0200  0.0180
10278W        W26752  17.841  12.631  15.853  0.4943  0.0320  0.0576
10279W        W26753   6.967   3.527   5.188  0.1902 -0.1171 -0.0259
10280W        W26754  14.126   3.784   1.006 -0.0179  0.0036  0.0760
10281W        W26755  17.169   0.515   1.306 -0.0927 -0.1304 -0.0034
10282W        W26756  10.705  11.322   2.715 -0.0801  0.3259 -0.5304
10283W        W26757  10.025   4.670  14.515 -0.1730  0.0217  0.3066
10284W        W26758   4.388  13.439  14.624  0.1694 -0.1979 -0.2144
10285W        W26759  16.250   5.898  10.877  0.1285  0.2824  0.0046
10286W        W26760   9.050   3.277   0.014  0.1811 -0.1560 -0.1733
10287W        W26761  13.077   6.092   4.411  0.4070 -0.0329  0.1568
10288W        W26762   8.994   2.425  13.638  0.3751 -0.4320 -0.0921
10289W        W26763   8.571   5.607  12.462  0.3298  0.0390  0.2161
10290W        W26764  17.192   3.152   4.872  0.2898  0.2592  0.1443
10291W        W26765  14.158   1.221   0.208  0.1448  0.1576  0.1495
10292W        W26766   7.344   0.961   3.451  0.2650  0.0432  0.4316
10293W        W26767  15.851  12.865   4.094 -0.0491  0.0058  0.0110
10294W        W26768  12.279  13.150   0.414  0.2206 -0.2389 -0.3545
10295W        W26769   8.579   1.776  12.286  0.1010  0.0197 -0.1197
10296W        W26770  16.870  12.832  14.411 -0.1615  0.0958  0.0562
10297W        W26771  11.495  12.825   4.074 -0.0186 -0.3704  0.0916
10298W        W26772   0.494   4.295   0.591 -0.4764 -0.0485  0.1021
10299W        W26773  17.302   3.294   5.926  0.0603  0.0076 -0.1380
10300W        W26774  16.500   7.108   2.494  0.1114 -0.0823  0.2569
10301W        W26775   9.190   6.672  12.993  0.0746  0.1864 -0.1871
10302W        W26776   0.642  10.680  14.896  0.1917 -0.0935 -0.1337
10303W        W26777   6.508   1.824  13.960 -0.1670  0.1144 -0.1711
10304W        W26778   2.346   5.468  12.804 -0.1927 -0.2544 -0.2198
10305W        W26779  13.864   8.488  16.091 -0.2738 -0.3162  0.0478
10306W        W26780  14.341  13.155  12.224 -0.0069  0.3781  0.0964
10307W        W26781   8.953  12.999   4.980 -0.0968  0.2522  0.3392
10308W        W26782  17.737   7.609  13.817  0.1709  0.1774 -0.2462
10309W        W26783  14.430   5.666   5.286  0.0780  0.2868  0.2674
10310W        W26784   4.496  15.487  11.880  0.4302  0.2944  0.0627
10311W        W26785  12.771   3.521   3.405 -0.0338 -0.3576  0.4017
10312W        W26786  13.120   8.880   1.361  0.1119 -0.0967  0.1619
10313W        W26787   1.741   8.876   0.596 -0.0093  0.2188  0.2139
10314W        W26788   2.579  12.636  16.202 -0.1956 -0.1609 -0.2339
10315W        W26789   7.052  13.503  11.887 -0.0510 -0.2679 -0.2147
10316W        W26790   5.263  17.395  11.019  0.1882 -0.1000  0.0050
10317W        W26791  13.876  13.392  13.810  0.2177 -0.2164 -0.1154
10318W        W26792   1.749  15.670   4.336  0.1260  0.0737 -0.0545
10319W        W26793  14.758   1.195   0.375  0.1697 -0.0871  0.0583
10320W        W26794  17.160  14.206   0.175 -0.0153  0.1593  0.1441
10321W        W26795   6.281   9.298   2.092  0.0231 -0.0287 -0.0761
10322W        W26796  17.915   5.147   3.166 -0.0563  0.0803  0.0671
10323W        W26797  10.694   8.508   0.344  0.0831  0.0606  0.2574
10324W        W26798   9.516   7.098   0.255 -0.1065 -0.0629 -0.2580
10325W        W26799   4.386   0.447  15.319  0.4653 -0.0870 -0.5050
10326W        W26800   7.417  13.474  10.972 -0.1577 -0.2356 -0.1069
10327W        W26801   0.732  11.293  11.851  0.0168  0.0863  0.0374
10328W        W26802   3.947  18.018   4.724 -0.1078  0.0283 -0.0078
10329W        W26803   2.095  17.865   3.324  0.0670  0.0335 -0.1940
10330W        W26804   9.116  17.256  15.237 -0.0139  0.0508 -0.2976
10331W        W26805   1.608  13.037   1.395  0.0445  0.2793  0.1676
10332W        W26806   1.683   6.994  14.427  0.1425 -0.0768  0.3283
10333W        W26807   3.359   7.649  13.456  0.2627  0.0338 -0.3864
10334W        W26808  11.302  10.524  14.402  0.1682 -0.0103 -0.1017
10335W        W26809   8.833   7.658   2.844 -0.1009  0.0338  0.2680
10336W        W26810   0.471   1.303   0.943  0.0320  0.0933 -0.0087
10337W        W26811  13.713  11.125  14.359 -0.4274  0.1632 -0.1458
10338W        W26812  15.764   9.475  10.683 -0.1596 -0.0456  0.0608
10339W        W26813   6.698  10.449   5.350  0.1018 -0.2184  0.1238
10340W        W26814  17.784   2.993   3.887  0.0339  0.0476  0.2724
10341W        W26815  16.923  12.861  12.314  0.0917 -0.2550  0.0005
10342W        W26816   5.940  12.234  12.813 -0.4717 -0.0543 -0.0186
10343W        W26817   0.412   4.282  11.520  0.0025 -0.1844 -0.0876
10344W        W26818  11.864   4.195  13.308 -0.1172  0.1102  0.0746
10345W        W26819  18.206  12.377  11.771  0.1899 -0.1624  0.3733
10346W        W26820   3.938   6.124   0.616  0.1711 -0.0307 -0.0145
10347W        W26821   9.176   8.839   4.778 -0.2182 -0.1057  0.2285
10348W        W26822   9.804   4.193  13.169 -0.1761 -0.1040  0.0965
10349W        W26823   2.823  16.228  13.978 -0.2455  0.0968 -0.1517
10350W        W26824  16.707   9.191  13.060  0.3774 -0.1148  0.1320
10351W        W26825   8.741  15.355   2.541 -0.2225  0.0019 -0.2197
10352W        W26826  11.749   6.406  14.875 -0.1565 -0.1978 -0.1549
10353W        W26827  17.718  14.621  14.285  0.0874  0.3071 -0.0941
10354W        W26828  16.632   0.616   2.557 -0.1460 -0.3053  0.0902
10355W        W26829   4.547  12.971   3.185  0.0086 -0.0488 -0.0977
10356W        W26830  13.006  15.389   0.475 -0.3334  0.0917 -0.1413
10357W        W26831   6.248  17.494  11.792 -0.2888 -0.1085 -0.3174
10358W        W26832   4.828   2.871   2.643 -0.0104  0.0903 -0.0024
10359W        W26833   0.798   5.032  14.941  0.0239  0.1569 -0.1577
10360W        W26834   6.669  18.239  11.999  0.0500  0.1745 -0.0295
10361W        W26835  18.358  16.001   0.325  0.2460 -0.1350 -0.1090
10362W        W26836  15.224   6.784  11.811  0.1209  0.1043 -0.3247
10363W        W26837   5.075   8.673  14.006  0.0685  0.0491 -0.2290
10364W        W26838   8.067   0.122  11.910  0.0772 -0.2759 -0.1081
10365W        W26839  15.049  15.832  11.674 -0.1822 -0.3993  0.1002
10366W        W26840   1.518  11.356  14.768 -0.3373 -0.0719 -0.0094
10367W        W26841   3.491   9.726  13.735 -0.1704 -0.0906  0.1953
10368W        W26842   0.865   7.689   5.230  0.0591 -0.0254 -0.0576
10369W        W26843   3.089  11.516  13.148  0.3434  0.2426 -0.4028
10370W        W26844   7.767   2.723  12.300 -0.1586 -0.3524  0.1706
10371W        W26845   2.387   2.966  14.128 -0.1839 -0.0968 -0.1249
10372W        W26846   3.979   9.989  16.267 -0.4312 -0.1364 -0.1330
10373W        W26847   5.542  12.462   0.798  0.0068 -0.0150 -0.0701
10374W        W26848  16.862  18.215   3.050 -0.2459 -0.2196  0.1043
10375W        W26849   0.674   8.644   5.536  0.1109 -0.1049  0.1466
10376W        W26850  14.298  16.400  14.289  0.4166 -0.2255  0.2417
10377W        W26851   9.515  17.237  14.815 -0.0541 -0.3916  0.0707
10378W        W26852  15.481   7.951  13.502  0.2594  0.3321 -0.1673
10379W        W26853  15.185  18.350  12.258  0.0291 -0.0798 -0.0456
10380W        W26854   8.505  17.610   4.618 -0.2002 -0.2468 -0.3078
10381W        W26855   4.906   8.967  12.977  0.0611  0.0562  0.1499
10382W        W26856   3.011  12.828   0.177 -0.0716  0.2049 -0.0419
10383W        W26857   6.943  12.358   3.792 -0.0644 -0.0692 -0.2491
10384W        W26858   6.195  14.356   5.292 -0.0155  0.1529  0.2177
10385W        W26859  11.631  15.799   2.240 -0.1412 -0.1622  0.0069
10386W        W26860   5.188  13.802   2.151  0.0904 -0.0585  0.0605
10387W        W26861   3.836   8.873  11.687 -0.0176 -0.0175  0.1330
10388W        W26862   0.561  11.002   1.370  0.0585  0.2734  0.0351
10389W        W26863   1.488  12.869  12.815  0.2257 -0.0243 -0.0587
10390W        W26864   8.712   0.380   2.218  0.0079  0.1314  0.1581
10391W        W26865   2.394  14.502   6.339 -0.1172 -0.4262 -0.0234
10392W        W26866  10.547   0.988  11.963  0.0482  0.2181  0.0505
10393W        W26867  15.186   0.080  13.502 -0.1318  0.0621 -0.1248
10394W        W26868  14.734   7.035   0.695 -0.0649  0.0580 -0.3695
10395W        W26869  16.379   5.234  11.278 -0.1450  0.1441  0.0152
10396W        W26870   5.697   3.983   1.345 -0.1367  0.1889 -0.1853
10397W        W26871  16.931  13.288   2.247 -0.0378  0.1868  0.1157
10398W        W26872   0.021  10.032   5.284  0.1428  0.0354  0.2266
10399W        W26873   4.545   1.889  14.012  0.0592 -0.3921 -0.2592
10400W        W26874   5.220   9.006   0.153 -0.1588 -0.1581 -0.3256
10401W        W26875   9.829   5.059   2.757 -0.0715  0.3128  0.0859
10402W        W26876   7.898   9.518   3.102 -0.1394  0.0450  0.0926
10403W        W26877  17.759   8.081  14.533  0.0698  0.0482 -0.1839
10404W        W26878   3.699  16.504   1.980  0.2372 -0.1123 -0.2034
10405W        W26879   3.337   9.573  15.742  0.0188  0.1646  0.2977
10406W        W26880  10.926  10.455  11.324 -0.1944  0.0675  0.0748
10407W        W26881  12.556   6.063  10.798 -0.0520 -0.1217  0.0455
10408W        W26882   9.911  10.222  15.738 -0.1832  0.2414 -0.1405
10409W        W26883  14.746   4.105  16.076 -0.1589 -0.0691 -0.2365
10410W        W26884  17.154   0.541  16.111 -0.2659  0.0923  0.2884
10411W        W26885   0.463   1.039  14.279 -0.1025 -0.0868  0.0192
10412W        W26886  10.919  11.036   4.409 -0.1077 -0.1511 -0.1005
10413W        W26887  10.574  16.748   3.520 -0.0445 -0.1570 -0.0036
10414W        W26888   2.453   2.008   4.335  0.2155 -0.1023 -0.1265
10415W        W26889  14.446  16.804  15.849  0.0017 -0.2232  0.0812
10416W        W26890  15.367   7.337   2.382 -0.1791 -0.0225 -0.0239
10417W        W26891   3.683   8.495  13.802  0.0912  0.2469  0.2545
10418W        W26892  16.014  16.194  13.480 -0.1042 -0.0872  0.0495
10419W        W26893  12.569   1.506   1.686  0.0738 -0.0752  0.0372
10420W        W26894   3.860   3.970   2.429  0.1303  0.2354 -0.1760
10421W        W26895   6.061   2.938  12.458  0.0160  0.1157 -0.1899
10422W        W26896   6.605   3.462  13.063 -0.0790  0.0064  0.1327
10423W        W26897   0.569  16.736  11.749  0.0370 -0.1285 -0.0366
10424W        W26898  17.621   1.952  14.875 -0.1566 -0.2879 -0.0426
10425W        W26899  15.587  12.610  11.486 -0.2085 -0.0269  0.1863
10426W        W26900  13.535   3.508  11.250 -0.1032  0.1323  0.1584
10427W        W26901  14.417   1.287  11.241  0.0971  0.2898  0.2850
10428W        W26902  10.021   1.518  14.976 -0.1966 -0.0346  0.2619
10429W        W26903   0.618  16.632   4.415 -0.0581  0.1037  0.1422
10430W        W26904  15.100  17.335  13.074 -0.2818  0.0544  0.0490
10431W        W26905   1.373   3.300   1.375 -0.1202 -0.0451 -0.2155
10432W        W26906   0.439  10.990  11.399 -0.0876 -0.0906 -0.0743
10433W        W26907  17.181   7.147  12.623  0.1259 -0.1459 -0.2903
10434W        W26908   4.897   8.824  14.895 -0.1608  0.0590 -0.2593
10435W        W26909   8.930   3.589  13.792 -0.3079  0.0281  0.2784
10436W        W26910  12.249  16.150   1.686  0.4789 -0.6602  0.2537
10437W        W26911   7.142   7.067   2.089  0.2139 -0.4465 -0.0711
10438W        W26912  16.474   5.798   3.967 -0.1002  0.5162 -0.0460
10439W        W26913  13.202  13.431  12.622  0.1106 -0.0844  0.2844
10440W        W26914  16.035   7.800  12.749 -0.0432  0.3931 -0.1294
10441W        W26915   6.856   9.013  16.130 -0.2171 -0.1653  0.0921
10442W        W26916  11.930   0.332   4.745 -0.2433 -0.0669 -0.0768
10443W        W26917  14.431   5.548  12.460  0.3002 -0.0618  0.0965
10444W        W26918   6.930   1.853   1.618 -0.0387 -0.1959 -0.0205
10445W        W26919   4.416   1.026  13.020  0.0752 -0.2100 -0.0598
10446W        W26920   8.459  10.345  10.386  0.0044 -0.1049 -0.0826
10447W        W26921  16.822   6.663   2.424 -0.1831 -0.2566  0.1067
10448W        W26922   0.069  13.491  12.728 -0.1594  0.2477 -0.2215
10449W        W26923  14.143  14.743  14.173 -0.0394 -0.1577 -0.4018
10450W        W26924   7.197   1.180   0.788  0.0448 -0.1274 -0.3208
10451W        W26925   8.100  15.183   2.407  0.2627 -0.0674 -0.2345
10452W        W26926  15.168   1.963  15.537 -0.1409  0.2547  0.2030
10453W        W26927   7.246   3.011   4.824  0.1778  0.0135  0.1587
10454W        W26928  15.969  10.848  13.008  0.1206 -0.1074 -0.0807
10455W        W26929   4.726   2.347   5.624 -0.0740  0.2316  0.1647
10456W        W26930   7.644  14.464   1.689 -0.1694 -0.0881  0.0765
10457W        W26931   5.312  11.221  14.081  0.0854 -0.2288 -0.2102
10458W        W26932  16.582   6.401  15.642 -0.3124  0.0438 -0.0930
10459W        W26933   0.202   9.355  13.613 -0.1139 -0.2230  0.3215
10460W        W26934  16.166  17.430  14.858 -0.1132  0.2202 -0.0899
10461W        W26935  13.423  14.087   4.416 -0.0448  0.0138 -0.0640
10462W        W26936  14.750   3.004   0.519  0.1902 -0.3461 -0.1532
10463W        W26937  14.089  12.567  11.479 -0.1628  0.1205 -0.3075
10464W        W26938   6.730   0.539  15.828 -0.1291 -0.5243  0.1755
10465W        W26939   0.666   4.485  12.325  0.1419  0.2701  0.1137
10466W        W26940  14.203  16.281   3.579  0.3581 -0.2577  0.2664
10467W        W26941   6.686  13.700   3.107 -0.0761 -0.1093 -0.1506
10468W        W26942   4.842   0.163   3.265  0.0187  0.0465 -0.0605
10469W        W26943   5.511   7.052  14.611  0.2174 -0.2093 -0.1601
10470W        W26944   5.628   5.411  12.854  0.0480  0.2224  0.0480
10471W        W26945   8.685   2.708   1.389 -0.0048  0.0054  0.0310
10472W        W26946   1.567   7.685   2.045  0.1773  0.1704  0.0464
10473W        W26947  15.264   1.944   1.365  0.2310  0.0854 -0.1445
10474W        W26948   0.422   1.534  14.185 -0.2232 -0.0727  0.1350
10475W        W26949   3.145   4.607  14.332 -0.2832 -0.0720 -0.2264
10476W        W26950   4.052   9.031   4.390 -0.2156  0.0164  0.0137
10477W        W26951   4.559  17.009   4.381 -0.2988  0.0652  0.1636
10478W        W26952   1.027   4.188  14.153 -0.0785 -0.1986 -0.0663
10479W        W26953   3.014  16.194   0.237 -0.0443 -0.1222 -0.1934
10480W        W26954  14.980   3.852  11.318  0.0323  0.2296 -0.1793
10481W        W26955  13.745   4.433   1.475  0.0426 -0.4992 -0.1099
10482W        W26956  13.209   9.152  12.802 -0.1871 -0.0575  0.1877
10483W        W26957  16.572  13.804   3.336 -0.1047  0.1086 -0.2323
10484W        W26958   7.648   1.728   2.066  0.3000 -0.2827  0.1526
10485W        W26959   6.496  10.417   1.296 -0.0676 -0.0913  0.2314
10486W        W26960   3.198  11.247   1.417  0.2816  0.1184 -0.1021
10487W        W26961  14.555  14.258  12.962 -0.3460  0.0563  0.0550
10488W        W26962   1.880   6.548   1.493  0.0827 -0.0665 -0.2097
10489W        W26963  13.373  17.970  11.873 -0.0525  0.2508  0.2556
10490W        W26964  11.432   0.628  13.245 -0.0512 -0.1799 -0.0849
10491W        W26965  14.162   5.218  12.750 -0.2890 -0.1013 -0.0449
10492W        W26966   8.664  10.009  11.212  0.3113  0.0257 -0.0138
10493W        W26967  13.623   0.316   5.509  0.0848 -0.0804 -0.2294
10494W        W26968   2.599   9.672   2.007 -0.0166 -0.0296  0.3374
10495W        W26969   7.891   4.519  13.894 -0.0814 -0.1784  0.0263
10496W        W26970  16.389  14.313  11.961  0.0383 -0.2637 -0.0639
10497W        W26971   8.158  16.882  12.829  0.1291 -0.0350  0.0014
10498W        W26972  18.367   4.423   1.749  0.1246 -0.4361  0.1808
10499W        W26973  10.163   1.292  15.693  0.0677  0.5927  0.2461
10500W        W26974  15.963  11.908   0.854 -0.2804  0.1227 -0.0626
10501W        W26975   2.326   0.424  11.978 -0.0486  0.0117 -0.1017
10502W        W26976   5.561  17.072  16.152  0.1093  0.1629  0.0510
10503W        W26977   6.655  16.243  12.683  0.2638 -0.0632 -0.0326
10504W        W26978   1.134  13.406  15.430 -0.2237  0.0537 -0.1464
10505W        W26979  10.110  16.009  13.677  0.2288 -0.0209 -0.1634
10506W        W26980  17.801  12.416  14.558  0.2138  0.2066 -0.3927
10507W        W26981  16.249  15.894   3.785  0.2746  0.3836  0.1083
10508W        W26982   4.266  11.313  13.328 -0.0251  0.1467  0.2556
10509W        W26983  15.468  11.500   4.423  0.2286  0.0399 -0.2092
10510W        W26984  14.845  13.650  14.508  0.2027  0.1199 -0.1410
10511W        W26985   9.292   7.160   4.191 -0.0849  0.5764  0.3285
10512W        W26986   3.827   4.141   3.546 -0.0094 -0.2168 -0.0734
10513W        W26987   7.645   4.965   2.794  0.2272 -0.0722 -0.2998
10514W        W26988   7.520  13.095   1.621  0.0592 -0.0196  0.2016
10515W        W26989   1.756  15.783  12.251  0.0237  0.1241 -0.0738
10516W        W26990  14.473  17.089  12.083 -0.0389  0.3137  0.1083
10517W        W26991  12.152  14.801   1.345 -0.3582  0.2542 -0.0360
10518W        W26992   2.697   5.822  12.337 -0.1514  0.0023  0.0597
10519W        W26993  12.285   9.674  15.029  0.0743 -0.0035 -0.2777
10520W        W26994  10.966   8.949  13.100 -0.1883 -0.2629  0.1932
10521W        W26995   3.351   6.760   0.078 -0.1128 -0.2204 -0.3313
10522W        W26996   8.354   3.047  11.421 -0.5281 -0.0964 -0.0478
10523W        W26997   9.151  16.231  11.690  0.0111  0.0781 -0.4230
10524W        W26998  12.708   8.665   1.735  0.0976 -0.1957 -0.3794
10525W        W26999   0.069  15.167  11.536  0.1756 -0.1157  0.1603
10526W        W27000   3.775  11.796   6.108 -0.1873  0.0648 -0.0167
10527W        W27001   1.584  17.849   3.397 -0.1441 -0.0814 -0.0932
10528W        W27002   1.384  12.398  14.532  0.0796  0.0364 -0.1524
10529W        W27003   7.801  11.707  15.656 -0.0181  0.1322 -0.0206
10530W        W27004  15.403   4.089  13.955  0.0250 -0.1135  0.0092
10531W        W27005  16.346  17.449   5.734  0.0304 -0.2585 -0.2802
10532W        W27006   8.920   0.746   0.091 -0.0928 -0.3426 -0.0415
10533W        W27007   7.144  17.901  12.343  0.0010 -0.1860 -0.0411
10534W        W27008  13.811   7.994   4.107 -0.1149 -0.1468  0.1528
10535W        W27009   5.878   5.495   0.399  0.0702  0.0233 -0.1172
10536W        W27010   2.049   8.383   1.879 -0.1676 -0.0520 -0.3900
10537W        W27011  12.142  16.439   1.353 -0.0005 -0.2541  0.0586
10538W        W27012  12.853  13.495  11.668 -0.3813 -0.0045  0.0307
10539W        W27013   3.586   3.577  15.924  0.0497  0.1444 -0.1772
10540W        W27014  17.667  14.090  14.280 -0.0962 -0.0097  0.0491
10541W        W27015   8.664   4.487  13.350 -0.2849 -0.1385 -0.0208
10542W        W27016  13.251   8.546  13.362 -0.0356  0.3310  0.4365
10543W        W27017  11.325   8.236  14.522 -0.0779  0.1562 -0.2566
10544W        W27018   4.929   5.799  14.015  0.0850 -0.1652 -0.1211
10545W        W27019  11.960   6.317   9.685 -0.3781 -0.0833  0.0365
10546W        W27020   8.491  15.748   0.963 -0.3155 -0.1374  0.0865
10547W        W27021  10.352   4.080   2.626 -0.0183 -0.1318  0.1254
10548W        W27022   7.475  17.834   4.116 -0.2451  0.1459 -0.2208
10549W        W27023  11.191  11.870  15.995  0.0130  0.0571  0.1855
10550W        W27024   2.057   4.995  13.540 -0.2237  0.0981  0.0456
10551W        W27025   4.566   0.303  15.919  0.1291 -0.0019 -0.1974
10552W        W27026   9.752   4.911   5.033 -0.1521  0.3922 -0.3532
10553W        W27027  13.963  14.076  16.031 -0.1406  0.1295 -0.0789
10554W        W27028   6.586  17.914  12.421 -0.1278 -0.0486  0.2352
10555W        W27029  10.228  16.451   3.355 -0.0184  0.0231  0.1793
10556W        W27030   9.232   0.807   2.812  0.1142 -0.0956  0.0457
10557W        W27031  17.896  16.269   2.071  0.1132 -0.0123  0.1016
10558W        W27032   6.123  14.267   3.389 -0.0554  0.0159  0.1299
10559W        W27033  10.977  16.854   0.647  0.3314  0.0344  0.1163
10560W        W27034  14.007   8.300  10.619  0.2493 -0.1085  0.4003
10561W        W27035  10.849   2.274  12.914 -0.0031  0.0411  0.2810
10562W        W27036   2.936   5.722  11.809  0.0825 -0.3966  0.0066
10563W        W27037  10.062  16.094   3.706  0.0777  0.3456  0.2905
10564W        W27038  15.861   5.364   3.681  0.2577  0.2025 -0.0241
10565W        W27039  10.821   4.745  11.504  0.0960 -0.2465  0.1548
10566W        W27040   9.645  14.826   0.596  0.0351  0.0198  0.1445
10567W        W27041  12.357   3.617  12.693  0.2253  0.1674  0.0175
10568W        W27042  12.925  13.123   2.303 -0.3265  0.2485 -0.0138
10569W        W27043   0.022  10.749  14.354 -0.0860 -0.0668  0.0520
10570W        W27044   4.502  10.319  14.323  0.0588 -0.1847  0.1424
10571W        W27045   4.460   7.796   4.642  0.1754  0.0866 -0.0175
10572W        W27046  12.105  16.333   2.173 -0.1651 -0.0792 -0.1839
10573W        W27047   9.311  17.289  13.811  0.0316 -0.0166 -0.0203
10574W        W27048  13.099  17.636   1.805  0.0616  0.2461 -0.0656
10575W        W27049  14.836  15.964  12.371  0.0833  0.1764  0.2339
10576W        W27050   0.564  17.811  16.090 -0.1776  0.1270 -0.0828
10577W        W27051  12.631  14.108  11.560 -0.0392 -0.0563 -0.0178
10578W        W27052  16.862  14.638   3.365 -0.0707 -0.1817  0.0905
10579W        W27053   3.789  17.474  15.368  0.0638 -0.1396 -0.0018
10580W        W27054   5.731   6.639   5.417 -0.0653  0.0895 -0.4779
10581W        W27055  14.785  13.328   4.661  0.0608  0.2323 -0.3017
10582W        W27056   0.136  17.324   6.389  0.0082  0.0272 -0.0117
10583W        W27057  10.179   0.939   0.914 -0.1165 -0.3642  0.0737
10584W        W27058  13.720  14.730  11.933  0.3983  0.0349  0.0967
10585W        W27059   9.772   7.250  10.316  0.3934 -0.0245  0.2365
10586W        W27060   2.338  12.050  13.025 -0.0965 -0.1430  0.3231
10587W        W27061   6.808  13.003  12.065 -0.0303  0.4346 -0.1065
10588W        W27062   3.770  14.632   4.598 -0.0605 -0.0943  0.4776
10589W        W27063  11.073  10.330  11.781 -0.3535 -0.0362  0.0085
10590W        W27064   5.174  11.921   3.997 -0.3078 -0.1182 -0.2087
10591W        W27065   3.768   8.335  13.303  0.3046  0.2641  0.0944
10592W        W27066   6.095   4.239   3.601  0.0327  0.1822  0.3697
10593W        W27067   5.530   8.329  12.598  0.1377 -0.1593  0.1372
10594W        W27068  12.299  13.892   4.406 -0.1418  0.0986  0.2825
10595W        W27069   6.743  14.408  15.775 -0.0430 -0.2199  0.2055
10596W        W27070  13.652  10.103   0.681 -0.4094  0.0729 -0.0019
10597W        W27071  17.936  15.882  13.773 -0.1896  0.1514 -0.6216
10598W        W27072   8.273   0.839  14.518 -0.4026 -0.0825 -0.0274
10599W        W27073   3.017   2.071  12.891  0.0453 -0.1764  0.0447
10600W        W27074  17.583  11.076   5.671  0.1576  0.0437 -0.0405
10601W        W27075   4.439  10.491   1.241 -0.1647  0.0761 -0.1062
10602W        W27076   4.762   0.432   5.318 -0.4136 -0.4258  0.3061
10603W        W27077  14.976   6.273   1.155 -0.1094 -0.1459  0.1307
10604W        W27078  11.318   3.380   2.840 -0.0485  0.1358 -0.1635
10605W        W27079  11.515   5.215  10.529 -0.0244  0.0725  0.0420
10606W        W27080   8.408  16.623   2.589 -0.0104 -0.1151  0.2019
10607W        W27081  12.647   1.190   3.597  0.0991 -0.2113 -0.0485
10608W        W27082  14.151  18.265  12.553  0.0004 -0.0799  0.0515
10609W        W27083   0.659  11.715  12.592  0.0027 -0.1814 -0.0120
10610W        W27084   6.952   3.714  16.172 -0.2519 -0.1306 -0.1948
10611W        W27085  14.936   7.784  13.418  0.1801  0.1365  0.1661
10612W        W27086   7.667  15.028  10.464  0.2644 -0.0968  0.1036
10613W        W27087   6.184  15.302  14.042  0.1136 -0.0599  0.0732
10614W        W27088   9.916  10.702  13.361 -0.4010  0.1437  0.5336
10615W        W27089   9.360   5.591   0.184 -0.0974  0.2215 -0.0764
10616W        W27090   0.390   2.635  14.916  0.1262  0.0594 -0.1711
10617W        W27091  10.786   2.032  14.802 -0.0674  0.0007  0.3975
10618W        W27092   8.052  16.432  12.967  0.0117 -0.0230 -0.0082
10619W        W27093   3.319   3.422  11.805 -0.3000 -0.2287 -0.0368
10620W        W27094  13.461  11.666   1.616 -0.4729 -0.1031 -0.2072
10621W        W27095   0.387  14.004  14.941  0.1235  0.0155 -0.0959
10622W        W27096  12.185  16.023  13.598 -0.1426  0.1918 -0.1962
10623W        W27097  12.908  18.145   1.128  0.0992  0.1678 -0.0735
10624W        W27098   7.066   4.232   4.745 -0.1669 -0.1944 -0.1068
10625W        W27099   1.348  16.875  14.785  0.2075  0.0734  0.5305
10626W        W27100  16.374   0.766   4.124 -0.0522 -0.0138 -0.1031
10627W        W27101  13.333   9.899  15.344 -0.2066 -0.1973 -0.1190
10628W        W27102  15.259   8.079   1.672 -0.3579  0.0687  0.3057
10629W        W27103  14.993  17.321   3.571  0.1371 -0.0671 -0.0338
10630W        W27104  17.933   3.753  13.844 -0.2914 -0.2914  0.4383
10631W        W27105  11.421  12.577  15.474 -0.0547  0.1168  0.0289
10632W        W27106   1.325  10.175  14.099 -0.0370 -0.0085  0.1104
10633W        W27107   4.521   2.431   2.652  0.0672 -0.1378 -0.0400
10634W        W27108   0.069  16.901   0.278 -0.0723  0.0129  0.0258
10635W        W27109  13.133   3.009   3.307 -0.0565  0.1346 -0.1249
10636W        W27110   7.381  11.395  12.855  0.1663  0.0874 -0.1754
10637W        W27111   8.231  17.948   0.204  0.0709  0.1495  0.1262
10638W        W27112   6.853   6.067   4.308 -0.1518 -0.0493 -0.1430
10639W        W27113  18.044  10.132   1.396  0.1589  0.2213  0.2804
10640W        W27114   3.452   3.691   3.458 -0.4040  0.0638  0.0416
10641W        W27115  10.420   0.689  13.804 -0.0568  0.0279 -0.0642
10642W        W27116   1.438   5.915  15.882 -0.2210 -0.0788  0.0873
10643W        W27117   6.122  10.195   5.557 -0.1002  0.1297 -0.0908
10644W        W27118   0.828  10.435   3.679  0.2132  0.1579 -0.0368
10645W        W27119   2.212  12.118  12.455 -0.1571  0.0099 -0.2331
10646W        W27120  15.015   2.302   3.623 -0.0359 -0.4402  0.0285
10647W        W27121   8.955   5.713  12.810  0.0829 -0.1136 -0.4093
10648W        W27122  15.948  11.057  14.919 -0.3006 -0.1147 -0.0926
10649W        W27123  10.970   6.850  14.272  0.3154 -0.3033 -0.0432
10650W        W27124  11.287   7.665  11.374  0.3280  0.1846  0.0135
10651W        W27125   2.502  17.916   5.600 -0.1005  0.2186  0.0320
10652W        W27126  16.751   1.651  13.632 -0.2376 -0.3035 -0.0657
10653W        W27127  16.408   0.212  12.020 -0.2063 -0.1527 -0.2134
10654W        W27128  11.730  17.003  15.890  0.1328 -0.1266  0.2070
10655W        W27129   5.741   0.175  11.623 -0.0497 -0.1500 -0.1554
10656W        W27130   1.419   0.976   2.244 -0.2538  0.1826  0.1988
10657W        W27131   2.261   1.657   5.391 -0.2221  0.0014  0.2451
10658W        W27132   1.098  13.134   4.915 -0.4217 -0.0309 -0.2577
10659W        W27133  13.459  10.745  15.793  0.0250 -0.3868  0.0945
10660W        W27134   6.018   1.704  16.286 -0.0886 -0.0585  0.0272
10661W        W27135  17.607   4.589   5.546  0.1325 -0.1160 -0.3232
10662W        W27136   3.587   4.350  12.911  0.1834 -0.7186  0.0811
10663W        W27137  15.003   4.925  10.979 -0.0586  0.1852  0.0775
10664W        W27138  16.297   9.210   4.465 -0.3164 -0.0738  0.2925
10665W        W27139   1.674  16.770  15.935 -0.0216  0.0299 -0.1053
10666W        W27140  16.955  10.374   5.172  0.0622 -0.1544 -0.1166
10667W        W27141  12.887  14.261  10.571  0.4428 -0.0524  0.2506
10668W        W27142  15.244   6.747   3.181 -0.0017 -0.0218  0.0644
10669W        W27143   6.382   9.711  14.976  0.3334 -0.0001  0.0099
10670W        W27144   6.724  14.505  16.278 -0.1529  0.0407 -0.0318
10671W        W27145   5.750  11.737   3.691 -0.2040  0.0951  0.0768
10672W        W27146  14.276   2.737   0.586  0.0261 -0.1414 -0.0548
10673W        W27147   8.886  15.078   3.486 -0.1630 -0.1899  0.2630
10674W        W27148   1.609   2.833   1.522 -0.4686  0.2076  0.0079
10675W        W27149   7.292   5.405   1.104  0.0543  0.0449  0.1489
10676W        W27150   2.080  16.854  16.291 -0.1353 -0.3270  0.0557
10677W        W27151   4.912   7.688   1.969 -0.1145  0.2557 -0.4526
10678W        W27152  13.925   1.448  14.991 -0.1537 -0.1318  0.3485
10679W        W27153  13.725   8.407   3.817  0.2595 -0.1553 -0.1643
10680W        W27154   2.733  17.020  13.599 -0.1807 -0.1948 -0.1197
10681W        W27155   1.975  12.243   0.468  0.0489 -0.1084  0.1188
10682W        W27156  17.994   9.784  10.907 -0.2299 -0.0787  0.1649
10683W        W27157   9.108  14.102  12.809 -0.1270  0.1021  0.1548
10684W        W27158   4.788  17.031   3.887  0.1159 -0.2341 -0.3912
10685W        W27159  16.215   6.252  12.041 -0.0939 -0.0849 -0.3768
10686W        W27160   4.111  16.359  13.695 -0.0575 -0.1668  0.2128
10687W        W27161  10.515  15.151   2.998  0.1419  0.1715  0.3900
10688W        W27162   3.373  15.169  16.155 -0.3054  0.1266  0.3489
10689W        W27163   5.390   9.924   1.880 -0.1765 -0.1603 -0.1686
10690W        W27164  15.627   4.822   1.385 -0.3524  0.1389 -0.2619
10691W        W27165  10.403   0.242  12.258 -0.2208  0.2268 -0.2192
10692W        W27166  12.178   6.119   2.759  0.2211 -0.0843 -0.0248
10693W        W27167   5.568   5.840   0.225  0.1114  0.5170  0.1159
10694W        W27168  16.426  13.565  11.291 -0.0556  0.1557  0.0218
10695W        W27169   8.976   6.514  12.230  0.1220 -0.3036 -0.0932
10696W        W27170  15.214  14.818  15.036  0.0069 -0.0057  0.2395
10697W        W27171  15.827  14.282   3.390  0.1330  0.2327  0.2846
10698W        W27172   9.665  10.125  11.496  0.2736  0.1549  0.2468
10699W        W27173  12.777   5.871   3.060 -0.1404  0.2911  0.3211
10700W        W27174   9.566   7.638   0.983  0.0161 -0.1423  0.0110
10701W        W27175   6.301   7.330   0.438 -0.0797 -0.0279 -0.1908
10702W        W27176  10.853   0.339  12.480  0.2470  0.0332  0.2774
10703W        W27177  14.638  12.614  11.465 -0.2555 -0.1244  0.1401
10704W        W27178  10.864  15.375  13.911 -0.2535  0.0606 -0.1262
10705W        W27179   8.711   0.015   5.151 -0.1317 -0.2777  0.2771
10706W        W27180   0.101   7.224   5.710 -0.1292 -0.0196  0.2203
10707W        W27181   7.937  11.425   1.998 -0.0528  0.1024 -0.2360
10708W        W27182   4.000   2.110  14.526  0.1116  0.2660 -0.3017
10709W        W27183  15.411   9.024   1.249 -0.0438  0.2640 -0.3939
10710W        W27184   9.734  15.119   1.407 -0.0651  0.1605  0.1094
10711W        W27185  16.122  17.662   1.169 -0.0663  0.0784 -0.2671
10712W        W27186   8.474  18.206   2.419  0.0664 -0.1085 -0.0748
10713W        W27187  14.956  11.732   3.586  0.1356 -0.0653  0.3617
10714W        W27188  17.268  12.477  13.247 -0.0957 -0.0988 -0.0829
10715W        W27189  15.671  14.414   1.217 -0.1038 -0.2396 -0.1278
10716W        W27190   8.717  13.473   3.358  0.0253 -0.2167 -0.1560
10717W        W27191  16.409   3.757  13.197 -0.2036  0.1461 -0.0857
10718W        W27192  12.375  12.842   4.150 -0.1826  0.1934  0.1512
10719W        W27193  14.448   8.402  15.742 -0.1499 -0.1926 -0.0260
10720W        W27194   5.606   0.129   0.673  0.0833 -0.2136  0.1995
10721W        W27195  18.346   0.216  11.834 -0.0805  0.1173 -0.3032
10722W        W27196   5.410  13.398  12.111 -0.2599  0.0026 -0.2533
10723W        W27197   2.405   0.337   5.041 -0.0239 -0.0035 -0.0704
10724W        W27198   4.160   9.208  13.707  0.0779 -0.0170 -0.2264
10725W        W27199   2.869   5.486   2.413  0.2436  0.1646 -0.0707
10726W        W27200   8.455  12.848   2.077  0.2323 -0.0558 -0.1021
10727W        W27201   1.190   1.728   0.493 -0.3339  0.1009 -0.0123
10728W        W27202   4.670  12.665  15.909 -0.0060  0.4540 -0.1308
10729W        W27203   1.769  12.669  15.842  0.2258 -0.0050  0.3043
10730W        W27204   5.664  10.850  13.859  0.1778  0.0911 -0.0898
10731W        W27205  11.980   3.075  12.915  0.0078  0.2558 -0.2324
10732W        W27206   3.909   8.981  16.259 -0.0713 -0.1985  0.0606
10733W        W27207   2.041  17.560   1.755  0.3681 -0.4249  0.1985
10734W        W27208  15.676  17.066   0.474  0.3741  0.2158 -0.1032
10735W        W27209   8.932   9.038   2.012 -0.4294  0.0960 -0.0549
10736W        W27210  12.664  15.158  13.493 -0.1378 -0.0167 -0.2103
10737W        W27211   4.718  15.653  16.275 -0.3061  0.4367  0.1855
10738W        W27212  13.246   6.362  13.262 -0.1782 -0.0746  0.1752
10739W        W27213   4.368  17.577  12.324  0.2025 -0.0230  0.0556
10740W        W27214   6.358   4.567   2.576 -0.0245 -0.4172  0.1106
10741W        W27215   5.692  12.777   4.261 -0.0054  0.0276  0.0662
10742W        W27216   6.865  10.894   4.466 -0.0095  0.2022  0.2603
10743W        W27217   1.593  16.728  11.876  0.1250 -0.0467 -0.2069
10744W        W27218   0.887  18.168  14.594  0.0902  0.1771 -0.2333
10745W        W27219  10.347   9.526   0.923 -0.0207 -0.0457 -0.1604
10746W        W27220   3.512   8.609  15.850 -0.2016  0.0898  0.2371
10747W        W27221  14.957  10.171  11.481 -0.4486  0.0081 -0.0466
10748W        W27222  10.083   7.342   5.132 -0.1584 -0.0525  0.2517
10749W        W27223   5.193  14.769   5.085  0.0929  0.1828  0.2684
10750W        W27224  13.964   9.315  11.115 -0.0135  0.3511  0.2659
10751W        W27225   4.459  10.027  15.351  0.1009  0.2377  0.4155
10752W        W27226  17.141   4.772   5.555 -0.2037  0.0193  0.1022
10753W        W27227   4.702  17.106   2.343 -0.0260  0.0303  0.1594
10754W        W27228  10.996  15.114  16.295 -0.0611  0.3873 -0.3933
10755W        W27229  13.107   2.067  15.955 -0.0850  0.3097  0.0779
10756W        W27230   3.620  16.402   1.144 -0.1794 -0.0632 -0.0661
10757W        W27231   0.222  14.415  15.293 -0.0133  0.0627  0.1990
10758W        W27232   5.976   3.806   5.153 -0.0497 -0.0428 -0.0193
10759W        W27233   9.933   6.958  15.200 -0.2546 -0.4439  0.1544
10760W        W27234   2.455   9.519  13.419  0.0859  0.2011  0.2622
10761W        W27235   6.227  15.162  11.952  0.1733 -0.0266 -0.0682
10762W        W27236  16.748   1.477   2.819 -0.0638  0.1364  0.2649
10763W        W27237  17.536   5.777  15.516  0.0304 -0.2659  0.2186
10764W        W27238  12.693  11.663  10.114  0.0394  0.1384 -0.3085
10765W        W27239  16.378   8.518  10.894  0.1312 -0.0796  0.0792
10766W        W27240  11.098  14.668  12.852  0.1006 -0.1154 -0.2560
10767W        W27241   8.446   8.712  12.243 -0.3585 -0.4637  0.2526
10768W        W27242  10.453  18.382  13.761 -0.2275  0.1734 -0.1382
10769W        W27243   2.803   6.278  14.509  0.0081 -0.1303  0.0521
10770W        W27244   6.649  14.346   0.932 -0.0259 -0.0469 -0.0055
10771W        W27245   0.024  14.511   5.227  0.1031 -0.0391  0.1905
10772W        W27246   5.826  15.106  12.259  0.2883 -0.0313  0.1652
10773W        W27247   2.780  11.623  12.748  0.0506 -0.1158 -0.0440
10774W        W27248   3.835  17.827  15.836 -0.0451  0.2499 -0.1706
10775W        W27249   6.397  18.245  15.433  0.1817 -0.0285  0.2804
10776W        W27250   5.420   2.309  12.421  0.2644  0.2569 -0.0193
10777W        W27251   4.932  12.771  15.074 -0.3231 -0.2590 -0.1390
10778W        W27252   9.818  13.560   5.359  0.1546  0.1947  0.3424
10779W        W27253   7.053   4.547   5.149 -0.0948  0.0373 -0.2402
10780W        W27254   7.150  12.777   3.651 -0.0356  0.1387  0.1572
10781W        W27255   1.422   2.965  13.234 -0.0784 -0.1095  0.0705
10782W        W27256   0.774   6.292  11.194  0.0160 -0.0369  0.0984
10783W        W27257   6.122   4.136   4.301  0.0727 -0.1406 -0.1963
10784W        W27258  13.484   1.831  14.890  0.1341  0.1633 -0.1350
10785W        W27259   8.574  11.287   0.645  0.4889  0.1903 -0.1656
10786W        W27260  18.031  15.658  16.087  0.3061 -0.1623 -0.2049
10787W        W27261   7.212   5.458  13.606 -0.2190 -0.1439 -0.0415
10788W        W27262   3.408  15.730  12.582 -0.1262  0.0671 -0.0682
10789W        W27263   0.139  18.015   1.528 -0.1909  0.3169  0.0728
10790W        W27264   5.044  12.000   4.462  0.0263 -0.0374  0.0864
10791W        W27265  18.070  15.385  13.836  0.2900  0.1276  0.2331
10792W        W27266  13.237  12.074   1.421  0.0933 -0.1932 -0.2048
10793W        W27267   5.648  14.220   0.849 -0.1798  0.3570 -0.1714
10794W        W27268   2.099  14.035   0.390  0.1714  0.0347 -0.0758
10795W        W27269  17.433   6.135  14.247  0.0125  0.0237 -0.1496
10796W        W27270   5.717  11.500  13.435  0.1086  0.1536  0.0468
10797W        W27271   8.182   8.353  14.653  0.1012 -0.3407 -0.1546
10798W        W27272  13.920  12.704   1.598  0.2628 -0.0012 -0.2821
10799W        W27273   4.107   1.090  14.164 -0.2928 -0.2641 -0.2602
10800W        W27274  16.719   1.079  12.491  0.1034 -0.1495 -0.2514
10801W        W27275  14.147  10.789  12.922  0.0965 -0.0388  0.0285
10802W        W27276   0.283  10.993  11.865  0.1295  0.1337 -0.2651
10803W        W27277   6.599   7.186   0.890 -0.4289 -0.1379  0.1158
10804W        W27278   1.765   8.564  14.438  0.0057 -0.1222  0.1555
10805W        W27279   0.345  10.296  15.188  0.0868 -0.2343  0.3287
10806W        W27280   8.318   3.729  14.917 -0.1735 -0.0550  0.1245
10807W        W27281  12.128  14.306   4.103  0.0621 -0.0280  0.0670
10808W        W27282   0.393   3.459   2.479  0.0741  0.0997 -0.0845
10809W        W27283   9.592   1.730   1.332  0.1063 -0.0972  0.3025
10810W        W27284   5.275  17.959   6.316 -0.3513 -0.0546 -0.2912
10811W        W27285   2.634   5.083  13.916  0.0572  0.0073 -0.0208
10812W        W27286  13.058  11.131  14.387  0.4009  0.0995  0.2271
10813W        W27287   6.746  16.996   5.678  0.3018  0.0336  0.2555
10814W        W27288   7.655   2.329   2.974  0.2144  0.1055  0.0280
10815W        W27289   1.479   5.623   1.290 -0.0707  0.0263  0.0340
10816W        W27290   2.404  15.666  11.488  0.2476  0.4034 -0.2397
10817W        W27291   7.290  18.039   3.009 -0.0765  0.0544 -0.2597
10818W        W27292  14.363   4.231   0.801  0.0793  0.0053  0.2431
10819W        W27293   2.966  11.481  15.880  0.0688 -0.1151  0.0352
10820W        W27294  14.004  11.626   3.539 -0.0554 -0.1349  0.3301
10821W        W27295   5.966  13.084  11.655  0.4160  0.2005  0.2438
10822W        W27296   4.122  14.024  15.083 -0.0383 -0.0416  0.0901
10823W        W27297  17.898   9.634   0.341  0.0145  0.0379 -0.0793
10824W        W27298  12.721   2.368  11.521 -0.4054 -0.1778  0.0903
10825W        W27299   8.216  16.378   1.061  0.1470 -0.1016 -0.0796
10826W        W27300  17.459   1.321   6.082  0.0866  0.2097  0.0914
10827W        W27301   1.735   4.536   6.047  0.1444 -0.1258 -0.0415
10828W        W27302   8.465  11.206  13.793 -0.0409  0.3353 -0.5004
10829W        W27303   6.729   6.188  13.423 -0.1391 -0.0155 -0.1268
10830W        W27304  16.124   2.339  11.684  0.1160 -0.1099  0.0389
10831W        W27305   6.697   7.342   4.517 -0.2973  0.0893  0.3424
10832W        W27306  14.699  17.128  14.030  0.2903  0.2361  0.1343
10833W        W27307   5.690   1.972  12.094 -0.2538 -0.2499  0.1322
10834W        W27308  11.197   3.974   3.226  0.0515 -0.0611  0.0565
10835W        W27309  10.748  14.610   3.805  0.0795  0.1490 -0.0249
10836W        W27310  16.364   7.207  15.381  0.1144 -0.3080  0.0003
10837W        W27311  10.203   7.252  13.887  0.0912 -0.1545 -0.1906
10838W        W27312  12.790   4.891   2.221  0.0631 -0.1933  0.0741
10839W        W27313  17.316   5.799   0.008 -0.2082 -0.2867 -0.1095
10840W        W27314  17.879   3.158  12.494  0.0192  0.5811 -0.0123
10841W        W27315   1.640  17.749  12.734 -0.1288  0.1145 -0.0858
10842W        W27316   0.970   6.722  15.029 -0.0361  0.0313  0.2194
10843W        W27317  15.554  10.716   3.006  0.1123 -0.0442  0.0967
10844W        W27318  16.490  14.490  13.715  0.0274 -0.3480  0.2384
10845W        W27319  12.393  16.645   4.875  0.2427  0.0116  0.1900
10846W        W27320   1.153   3.659  15.420  0.1755 -0.2953  0.2837
10847W        W27321   2.131   3.837  13.012 -0.0114 -0.0936  0.1469
10848W        W27322  13.364   5.669  14.466 -0.1516 -0.0418 -0.0094
10849W        W27323  14.731   2.232   4.528 -0.0026  0.0912  0.0908
10850W        W27324   6.000   8.879   4.241  0.0694 -0.1200 -0.2076
10851W        W27325   4.629   3.268  12.211  0.4445 -0.2428  0.1557
10852W        W27326   7.129   2.032   4.399  0.0254 -0.2852  0.2898
10853W        W27327   6.486  10.983  14.401  0.4278  0.0046  0.0509
10854W        W27328  12.436   1.372  15.987 -0.2437  0.0185 -0.1657
10855W        W27329  14.994   2.893   2.199  0.0177  0.1374 -0.0464
10856W        W27330   4.735  13.243   4.015 -0.2603 -0.0311 -0.0499
10857W        W27331   6.621  18.220   4.912  0.2239  0.2394  0.2116
10858W        W27332   9.263  16.236  13.541  0.1048 -0.0938  0.3277
10859W        W27333   0.152  11.545   1.205  0.0035  0.2840 -0.1287
10860W        W27334   6.796   8.909  11.283  0.1026 -0.3007 -0.1275
10861W        W27335   5.499   0.488  13.633  0.2563  0.0241  0.0276
10862W        W27336  11.088  13.328  16.072  0.3473  0.0806 -0.4250
10863W        W27337  11.218   8.505   2.884 -0.2077 -0.2612  0.0732
10864W        W27338   9.180   7.739  12.740  0.0049  0.3345 -0.0200
10865W        W27339  16.876  17.970  12.095  0.0205 -0.4318 -0.0485
10866W        W27340  10.301   6.798   3.899 -0.0982 -0.0547 -0.1452
10867W        W27341   9.098  10.486   1.875  0.1530  0.0743 -0.1163
10868W        W27342   1.108   7.647   2.917  0.0992  0.0180 -0.0124
10869W        W27343   6.325   3.480  15.747  0.0837 -0.0021 -0.0862
10870W        W27344  14.063   2.834   2.606 -0.0204  0.0193 -0.2108
10871W        W27345  16.126   8.926   0.189 -0.0128 -0.2784 -0.0315
10872W        W27346  18.065  10.371  14.111 -0.0702  0.0256 -0.3310
10873W        W27347  10.823   5.778  11.154  0.0762 -0.0534  0.5966
10874W        W27348  15.789   9.582  11.879  0.0019  0.0857  0.0996
10875W        W27349   9.874  15.751   4.790  0.1271 -0.0346  0.1597
10876W        W27350   2.408   3.466   2.788  0.0151 -0.2542 -0.0442
10877W        W27351   3.090  15.202  10.997  0.0639  0.1149  0.0857
10878W        W27352   5.059   4.472  14.219 -0.3084 -0.4304 -0.1729
10879W        W27353   2.225  15.386   1.022 -0.0191 -0.0148 -0.1836
10880W        W27354   5.635  13.018   3.688  0.1413 -0.0743 -0.1766
10881W        W27355   0.402   5.873  14.604 -0.2498  0.2326 -0.1656
10882W        W27356  16.630  12.569   1.683 -0.1058  0.0702 -0.0956
10883W        W27357  15.520   2.060  12.602  0.0700 -0.1632  0.0547
10884W        W27358   6.132   9.492  13.723  0.2430  0.1702  0.3420
10885W        W27359  15.358  11.897   1.294  0.0401 -0.3425 -0.1440
10886W        W27360   0.486  13.318   4.622  0.2938  0.0299  0.2891
10887W        W27361   1.270   8.024  15.676  0.0534 -0.0564 -0.0910
10888W        W27362  14.851  14.836   5.230  0.1652 -0.0396 -0.3063
10889W        W27363   3.594   5.949  14.007  0.0150 -0.0102  0.0983
10890W        W27364  10.583   9.788  11.076 -0.0266  0.1446  0.2477
10891W        W27365  10.173   5.857  12.349  0.2657 -0.1347  0.0911
10892W        W27366  12.293   2.266   4.919 -0.0187 -0.1692  0.1117
10893W        W27367  17.160   5.114  11.872  0.1566 -0.0288  0.1203
10894W        W27368   4.944  13.305   3.150 -0.0650  0.1856  0.0751
10895W        W27369   2.203  14.695   2.419  0.1994  0.0703 -0.2675
10896W        W27370   9.173  15.392  12.099 -0.0198  0.2343 -0.0356
10897W        W27371   2.174  11.953  15.139  0.1242 -0.0536  0.0966
10898W        W27372   2.725  13.037  15.858 -0.1398 -0.1884  0.0079
10899W        W27373  10.795  14.502   4.422  0.2806 -0.1600  0.3582
10900W        W27374  11.088   1.652   3.644 -0.1631 -0.0790 -0.2332
10901W        W27375  11.242  16.719   2.422  0.4621  0.0387  0.2435
10902W        W27376   8.839  10.134   1.155 -0.0382  0.2286 -0.2842
10903W        W27377   9.946  10.085  10.032 -0.1439 -0.1852  0.0659
10904W        W27378   9.316  12.184  13.848 -0.0552 -0.0697 -0.1447
10905W        W27379   3.441  13.529   0.243 -0.0185  0.0222 -0.3527
10906W        W27380  17.697  15.672  15.173 -0.2806 -0.0607 -0.1729
10907W        W27381  11.869   5.342   0.249  0.0907 -0.1271  0.0290
10908W        W27382  17.489  13.411  11.736  0.0442 -0.0177 -0.0518
10909W        W27383  13.589   3.717  12.003  0.2730 -0.0166 -0.0107
10910W        W27384  15.402   6.368   3.822 -0.0412  0.0015 -0.3662
10911W        W27385   7.785   1.014   6.248 -0.0155  0.1090 -0.2182
10912W        W27386   9.518   4.342  11.934 -0.2628 -0.1209 -0.1561
10913W        W27387  12.630   6.342   0.016  0.0712 -0.0413 -0.1890
10914W        W27388  16.137   2.218  15.565 -0.0881 -0.1924  0.1329
10915W        W27389  17.522   9.676   0.026  0.3231 -0.0654 -0.0226
10916W        W27390   7.365   5.244  12.724 -0.0004 -0.1632 -0.0204
10917W        W27391   4.817  11.022   1.610 -0.2743  0.2155 -0.0655
10918W        W27392  12.153  13.091  13.386 -0.1074 -0.0465 -0.0413
10919W        W27393   9.005  10.819   2.786 -0.3050  0.3668 -0.0179
10920W        W27394   5.881   7.460  15.793  0.1523 -0.1447 -0.2170
10921W        W27395   6.679   4.116   4.364 -0.0056 -0.0869 -0.0247
10922W        W27396  17.546  15.401   4.213 -0.1184  0.0261  0.0041
10923W        W27397  10.483  10.257  12.599  0.0614 -0.1977 -0.4444
10924W        W27398   7.760   8.846  14.792  0.1859  0.0042  0.1540
10925W        W27399   2.141   7.035   4.196  0.0932 -0.5127  0.1303
10926W        W27400   2.285  11.850   0.309 -0.0219 -0.0541  0.1060
10927W        W27401  14.914  17.917  12.329  0.1333 -0.0951  0.0201
10928W        W27402   7.958  15.021  13.719  0.0036 -0.0776  0.1306
10929W        W27403   0.237   7.213  15.234  0.1396  0.3077 -0.4181
10930W        W27404  11.130  16.519   3.250 -0.0986  0.2388 -0.4048
10931W        W27405   1.158  15.378   4.226  0.0463  0.2890  0.0736
10932W        W27406  16.935  10.369   2.744  0.0627  0.1026 -0.1210
10933W        W27407   3.537   8.061  14.423  0.1530  0.0989  0.0931
10934W        W27408   0.608   5.178  11.798 -0.1629  0.0025 -0.2236
10935W        W27409  13.825   5.459   1.478  0.0903  0.1538  0.1063
10936W        W27410   8.089   7.500  15.187 -0.4912 -0.0484 -0.1599
10937W        W27411   7.288   9.892  13.738 -0.0455 -0.3389 -0.1188
10938W        W27412   5.160   4.296   4.941  0.0654  0.2855 -0.0729
10939W        W27413   9.125  13.136   5.431 -0.0235 -0.0965  0.0983
10940W        W27414  15.769   8.142  16.091 -0.1182  0.0053 -0.2521
10941W        W27415   0.247   5.297  12.118 -0.0244  0.3137  0.0816
10942W        W27416  15.557   3.135  11.431 -0.1381  0.0245  0.0862
10943W        W27417   5.695   2.542   4.040  0.0541 -0.0380  0.2182
10944W        W27418  14.699  15.134   2.485 -0.2470  0.0512  0.0495
10945W        W27419   9.025   5.608  14.242 -0.1083  0.0988  0.2794
10946W        W27420  13.711   5.025  16.014  0.2351  0.0869 -0.0715
10947W        W27421  15.626  12.699   4.504  0.1339  0.4476 -0.0251
10948W        W27422  16.856   4.604   1.901 -0.1469 -0.0529 -0.0994
10949W        W27423  15.675   7.125  13.502  0.0436  0.2119  0.1423
10950W        W27424  12.458  17.928  15.811  0.2601 -0.0575  0.0536
10951W        W27425  17.262   9.718   1.070 -0.2943 -0.1775  0.0058
10952W        W27426  16.721   7.722   2.242  0.0934 -0.1011  0.4005
10953W        W27427   4.428   5.914  14.027 -0.0519 -0.0946 -0.1708
10954W        W27428   1.214  13.636   0.535  0.0021  0.2110  0.2445
10955W        W27429   5.732  13.111   5.382  0.0316 -0.4898 -0.0279
10956W        W27430   8.718  10.621  14.763 -0.0021  0.0776  0.0246
10957W        W27431   7.954   3.261   5.447  0.0476 -0.0547 -0.1660
10958W        W27432   3.706   2.399  12.211 -0.3981 -0.2675  0.0390
10959W        W27433  11.893  16.798   0.452  0.1233  0.3084 -0.0545
10960W        W27434  14.534   9.783  15.843  0.0336 -0.1327 -0.1433
10961W        W27435  12.600   8.761   3.041 -0.1909  0.0703 -0.1004
10962W        W27436  11.049  10.337  14.751  0.1819  0.3217 -0.3414
10963W        W27437   6.677   7.384  15.308 -0.0146 -0.3141 -0.3740
10964W        W27438  10.313   4.404   0.660 -0.5141  0.0468  0.3071
10965W        W27439  13.795  10.911   1.901 -0.0595  0.2947  0.2359
10966W        W27440  10.445   4.967  16.340 -0.0100  0.0570  0.0443
10967W        W27441   5.002   1.973   1.456 -0.1001 -0.2375 -0.1211
10968W        W27442   6.485  11.438  10.286  0.2184  0.2994  0.0658
10969W        W27443  12.409   0.998   2.310 -0.0507 -0.1011 -0.2730
10970W        W27444   8.794  13.851   5.725  0.0389 -0.0295 -0.1275
10971W        W27445   6.684  11.262   3.163  0.2024 -0.4263 -0.1243
10972W        W27446   1.232   0.949  12.285  0.1609  0.3864  0.1427
10973W        W27447  14.245  16.399   2.673 -0.1806 -0.1161  0.0561
10974W        W27448  12.123   3.316   0.459  0.2133 -0.1674 -0.2652
10975W        W27449  17.573  12.719   3.846 -0.0065 -0.1934  0.1360
10976W        W27450   2.250  10.090  14.562 -0.1157 -0.2916 -0.1659
10977W        W27451  17.322  11.668   2.881  0.1459  0.3274 -0.0495
10978W        W27452  12.869   4.941   4.618 -0.1208 -0.0169 -0.0059
10979W        W27453  10.379  16.353  10.843  0.0232  0.0693  0.0335
10980W        W27454  17.941  14.137   0.227  0.0126  0.2219 -0.2442
10981W        W27455   8.042   7.829   1.162  0.0490 -0.2130 -0.0278
10982W        W27456   6.108   5.376  12.146 -0.0927 -0.0858 -0.1158
10983W        W27457  13.988   9.359  14.849  0.2300 -0.1102  0.2490
10984W        W27458   9.979   5.032  12.440  0.3754  0.0872 -0.0092
10985W        W27459   2.660  13.066   2.453 -0.0074 -0.0776  0.0309
10986W        W27460   7.070   6.617  14.425  0.0528  0.0227  0.0060
10987W        W27461  13.747  17.107  15.129  0.0657 -0.0442 -0.3561
10988W        W27462  15.500   5.863   0.084 -0.0336 -0.0554  0.2132
10989W        W27463   5.100  12.718   5.527 -0.1162  0.2639  0.0249
10990W        W27464   4.207   6.408  14.951  0.0083  0.0797  0.1783
10991W        W27465  13.653   0.173   1.383 -0.0306  0.0656 -0.2231
10992W        W27466   6.890   9.244  13.083 -0.3204 -0.1873  0.0747
10993W        W27467   7.260   1.137   1.276  0.4724 -0.3425  0.0231
10994W        W27468   3.571   6.412   0.395  0.3878  0.0745 -0.0324
10995W        W27469   2.650   2.294   4.899 -0.0225  0.1677 -0.0565
10996W        W27470   7.111  13.113   2.650  0.3431 -0.1203 -0.2522
10997W        W27471  11.448  12.076  12.318 -0.1217 -0.3301  0.4050
10998W        W27472  12.315  11.784   3.477 -0.3323  0.1059  0.0415
10999W        W27473   7.431  17.905   1.453  0.3500 -0.1294 -0.0305
11000W        W27474  15.585  16.591   3.010 -0.2754  0.2314  0.1651
11001W        W27475  10.151  14.077   4.967 -0.0993  0.1751 -0.1187
11002W        W27476   1.572  15.661   3.196  0.0040 -0.1459 -0.3077
11003W        W27477   3.865  14.714  15.936 -0.0725  0.1863 -0.4645
11004W        W27478  10.236   4.011  12.034  0.1966 -0.2570  0.1638
11005W        W27479   9.218   1.738  15.949  0.1272  0.0922 -0.1978
11006W        W27480  11.582   7.979   0.168 -0.1449 -0.0917 -0.0092
11007W        W27481  10.101   2.427   0.929  0.2420 -0.2672  0.4102
11008W        W27482   0.956   7.665   3.406 -0.0834  0.0655  0.0401
11009W        W27483  14.131  11.379  12.923  0.0259 -0.2297  0.0727
11010W        W27484   3.261   7.411  15.563 -0.0355  0.0921  0.2183
11011W        W27485  13.135  12.056  11.356  0.1110  0.0445  0.0835
11012W        W27486   8.554  15.187  15.932  0.2365  0.2912  0.3025
11013W        W27487  10.310   3.474   5.353  0.0541 -0.0771 -0.2411
11014W        W27488   0.217   6.300   0.221  0.0344  0.0857 -0.0452
11015W        W27489  11.521  11.756   2.236  0.0522  0.1433  0.0023
11016W        W27490  13.126  17.643   1.291 -0.2661  0.1027  0.1448
11017W        W27491   3.922  14.943   0.002 -0.2141 -0.0306 -0.1445
11018W        W27492   5.372  13.988  15.789 -0.1910  0.0891  0.3518
11019W        W27493  11.122  11.508   2.005 -0.4223  0.0216 -0.1745
11020W        W27494  14.235  17.366  11.701  0.2047 -0.0927  0.1600
11021W        W27495   0.950   0.727   1.381 -0.2224  0.0608  0.2460
11022W        W27496   5.047  15.481  13.355 -0.1264 -0.2264 -0.0093
11023W        W27497   3.525  15.855   3.973 -0.0167 -0.0215  0.4483
11024W        W27498   6.100   8.794   1.910 -0.5200  0.0514  0.1313
11025W        W27499  15.806  11.654   1.330 -0.0861 -0.0510 -0.0818
11026W        W27500   8.553   1.113   2.180  0.2463  0.0562  0.0092
11027W        W27501  18.221   8.610  10.880  0.0823 -0.1539  0.1859
11028W        W27502   5.187   5.958   3.734 -0.0496 -0.1525  0.1092
11029W        W27503   6.659   9.827  15.357 -0.0007 -0.1729 -0.0379
11030W        W27504  13.088  17.495   0.326 -0.0339  0.1969  0.0551
11031W        W27505   6.672  14.315   1.472  0.0186 -0.1561  0.2881
11032W        W27506   5.078  11.526  14.433 -0.1879 -0.0642 -0.3850
11033W        W27507   0.391  11.026  12.886  0.1893  0.1363  0.3215
11034W        W27508  14.213   6.383  16.261 -0.3684 -0.1525  0.1396
11035W        W27509   4.090  12.435  12.681  0.1216  0.1911  0.2498
11036W        W27510  16.884  17.600  13.572  0.2371 -0.4420  0.1750
11037W        W27511   9.116  18.395   0.368 -0.0865  0.2428  0.0268
11038W        W27512  17.580  17.955  10.713  0.0121  0.2002  0.1172
11039W        W27513   0.790  17.612  15.190 -0.2081  0.0513  0.0131
11040W        W27514  13.399   5.207   2.815  0.1071 -0.4577 -0.2229
11041W        W27515  14.060   8.079  14.387  0.1849  0.1393  0.0630
11042W        W27516   1.891   6.464   3.531  0.1851 -0.3250 -0.0904
11043W        W27517  17.817   2.073   2.356 -0.1016 -0.0141 -0.0247
11044W        W27518  13.163   6.628   4.461  0.1944  0.4096  0.0784
11045W        W27519  18.168   7.232  13.977 -0.0475  0.0044  0.0038
11046W        W27520  14.228  13.976  13.179 -0.0596 -0.1502  0.0326
11047W        W27521  15.818   6.536  11.897 -0.1523  0.3097 -0.0462
11048W        W27522   9.371  17.900   2.919 -0.1791 -0.1949 -0.1643
11049W        W27523   2.256  17.223  15.053 -0.1732  0.3326  0.1366
11050W        W27524   9.373  12.761   3.252 -0.0786 -0.3296 -0.2061
11051W        W27525   8.816  15.724   2.942  0.1383  0.1180  0.2680
11052W        W27526   6.078   4.581  16.055 -0.0049  0.1100  0.1081
11053W        W27527   7.934  14.013  11.953  0.1616 -0.0822 -0.1334
11054W        W27528  13.947  16.559   5.527  0.2029 -0.0978  0.1890
11055W        W27529  11.459  13.622  16.325  0.0715  0.1234  0.0831
11056W        W27530  11.184  16.238  13.549 -0.1526 -0.3079  0.0221
11057W        W27531  10.141  14.939   0.780  0.3478  0.0067 -0.0421
11058W        W27532  12.251  12.895  16.251  0.0732 -0.3920  0.0317
11059W        W27533   9.971   8.371  12.417 -0.0567 -0.0570  0.0910
11060W        W27534  18.082  17.458   1.564  0.0358 -0.0306 -0.0424
11061W        W27535  18.292   2.875   3.951 -0.2564 -0.1732 -0.1544
11062W        W27536   8.449   4.355   2.118  0.2114 -0.3776 -0.1177
11063W        W27537  10.029  16.430   5.022  0.0584 -0.1466  0.1452
11064W        W27538   3.337   7.418   5.198  0.3183 -0.1404  0.3169
11065W        W27539   6.564   4.150  14.796 -0.0505 -0.0691  0.2056
11066W        W27540   1.013  16.095   5.483 -0.2751  0.0777  0.3125
11067W        W27541   4.824   8.022  15.224 -0.1657  0.1291  0.0084
11068W        W27542  11.167   9.061  10.919 -0.4010 -0.0011 -0.1146
11069W        W27543   5.152   3.043  14.150  0.4877 -0.1590 -0.0104
11070W        W27544   2.974  13.375   3.612 -0.1844 -0.3459 -0.1514
11071W        W27545   9.004  10.658   5.020 -0.0327  0.2298  0.0771
11072W        W27546  15.759  12.895  11.034 -0.1808 -0.0004  0.1362
11073W        W27547   1.070  12.505   4.269 -0.2799  0.0013  0.0226
11074W        W27548  10.154   8.834   3.181  0.1019 -0.1178 -0.0659
11075W        W27549   2.417   7.671   1.696  0.1957 -0.3779  0.0829
11076W        W27550   4.818   6.660   3.474 -0.0342  0.1813  0.1858
11077W        W27551  18.134   6.607  15.452 -0.0751  0.2235  0.0994
11078W        W27552  13.189  10.587  12.334 -0.0633 -0.0936 -0.3387
11079W        W27553  17.786   1.257  13.364 -0.1444  0.2072  0.0087
11080W        W27554  11.051   2.937  12.431 -0.2245 -0.0085  0.2256
11081W        W27555  12.217  13.987   0.788 -0.0592 -0.1189 -0.0608
11082W        W27556  16.122   0.557  15.792  0.0410 -0.1577 -0.2378
11083W        W27557  11.743   0.473  15.037  0.2464  0.3476 -0.2100
11084W        W27558   8.752   6.501   1.523 -0.0322  0.1470 -0.0098
11085W        W27559   3.672   3.569  13.777 -0.0851  0.0277  0.3193
11086W        W27560  16.209   9.202  15.233 -0.3858 -0.2741 -0.1055
11087W        W27561   0.950   3.139  15.175 -0.1880  0.0858  0.2266
11088W        W27562  14.651  14.963   4.121  0.2370  0.1946 -0.0703
11089W        W27563  13.059   3.490  13.375  0.0347 -0.1893 -0.1597
11090W        W27564  11.503  15.602   1.407 -0.1000 -0.0192 -0.3798
11091W        W27565  12.160  13.750  16.172 -0.0139 -0.0052  0.4217
11092W        W27566  16.657  14.939   1.535 -0.1926  0.0798 -0.0722
11093W        W27567  14.427   6.425  11.973 -0.0154  0.1243 -0.0041
11094W        W27568  14.806   0.068  10.635  0.1005  0.0481 -0.0295
11095W        W27569  13.591   8.672  15.774  0.0672  0.3874  0.2070
11096W        W27570  17.800   6.890   3.242  0.1834  0.1845  0.3179
11097W        W27571   5.430   9.068   1.073  0.1048 -0.2189  0.0881
11098W        W27572  10.793   0.316   6.080 -0.0749 -0.0361  0.0535
11099W        W27573   6.746  18.150   2.038  0.5526 -0.2221 -0.2602
11100W        W27574  11.401   7.975  15.433 -0.2880  0.3013 -0.3007
11101W        W27575   3.497   8.856  14.938  0.0370  0.0568  0.4151
11102W        W27576   0.674  11.498   4.800 -0.1632  0.0096 -0.3050
11103W        W27577  11.336   8.723   3.835 -0.1481  0.2323  0.0097
11104W        W27578   4.906  17.802  16.232 -0.0919 -0.0005 -0.4465
11105W        W27579   2.226  13.198  15.703 -0.0655 -0.4856 -0.1851
11106W        W27580  16.249  11.749  15.316 -0.1937 -0.0464  0.1970
11107W        W27581  15.622   4.990   0.939 -0.0471 -0.3309 -0.1379
11108W        W27582  14.018  15.521  14.647 -0.1679  0.1165  0.1382
11109W        W27583  12.757  15.092   5.244  0.0864 -0.0985 -0.1614
11110W        W27584  13.416  13.548   0.423 -0.1746 -0.0048 -0.0101
11111W        W27585   2.730   7.008  13.826  0.3446 -0.2464  0.1310
11112W        W27586  16.107   8.860   5.189 -0.1587  0.0369 -0.2833
11113W        W27587  16.112   1.233   0.593  0.3857 -0.1801  0.1135
11114W        W27588  12.316   4.409   0.475  0.0399  0.0871  0.4135
11115W        W27589  16.748  15.102   2.618  0.0437 -0.2122 -0.0553
11116W        W27590  16.313   2.350   5.587  0.3282  0.0196 -0.3693
11117W        W27591   6.236  11.300   0.339 -0.1800  0.2672 -0.1022
11118W        W27592  16.401   8.742  13.286 -0.1827  0.1701  0.2524
11119W        W27593   3.921   3.409   2.229  0.4381  0.1089 -0.0283
11120W        W27594  16.591  18.085   6.011 -0.0474  0.0727 -0.1058
11121W        W27595  12.783  14.413   4.825  0.1543  0.0728  0.0548
11122W        W27596   7.044   5.103  16.207  0.0228  0.0581 -0.0921
11123W        W27597  17.047  15.616  14.929  0.0725  0.3158  0.0019
11124W        W27598   9.886   1.169  13.156 -0.4119 -0.0308  0.2847
11125W        W27599  11.107  11.203  15.271 -0.0685 -0.2514  0.0777
11126W        W27600  13.881  17.608   2.337 -0.1747  0.0328 -0.1956
11127W        W27601  15.787  11.617  14.965  0.0950 -0.0628 -0.1324
11128W        W27602   4.065   2.420   2.727 -0.0425 -0.0659 -0.0002
11129W        W27603   8.439  16.531   5.322  0.1255 -0.0533  0.1457
11130W        W27604   1.444  12.445  13.044 -0.2343 -0.0848 -0.1656
11131W        W27605  13.735   0.524   4.601  0.1432 -0.1012  0.1965
11132W        W27606  10.240  17.976   4.937 -0.1709  0.0148  0.3613
11133W        W27607   0.212  14.658   0.585  0.0646 -0.0204  0.0824
11134W        W27608   1.332  17.818   5.503  0.1351 -0.1125  0.3221
11135W        W27609   9.952   6.651   5.028 -0.2970 -0.1824 -0.1174
11136W        W27610  10.275   0.299  15.254  0.2512  0.1670  0.0598
11137W        W27611   2.403   7.405  13.860  0.0796 -0.2031 -0.1690
11138W        W27612  11.117   2.608  13.745  0.0350  0.1209  0.0389
11139W        W27613  11.171   7.230  13.726 -0.0101  0.0627  0.0029
11140W        W27614   3.659  14.793   2.193  0.2853 -0.0472 -0.1490
11141W        W27615   2.940  18.032  16.226 -0.2653  0.2992  0.2816
11142W        W27616   4.778   1.740   4.284  0.1348  0.0537  0.1671
11143W        W27617  18.394  16.894   3.770 -0.4396 -0.2868 -0.0090
11144W        W27618   4.276   4.418  14.206  0.0791  0.2345 -0.2206
11145W        W27619  12.683   7.079   3.918  0.0650  0.1781 -0.2243
11146W        W27620   0.735   0.621   2.751 -0.0982  0.0957  0.0331
11147W        W27621  14.438   0.458   0.616 -0.2002  0.1809 -0.0831
11148W        W27622   0.779   3.773  16.105  0.2527 -0.2531 -0.2693
11149W        W27623  13.270  15.940  14.225  0.0980  0.3012  0.0398
11150W        W27624  16.658   1.786   5.896 -0.1369  0.2381 -0.1991
11151W        W27625  15.071   6.376  10.784 -0.0817  0.0885 -0.2736
11152W        W27626   3.776   0.370   4.147  0.3216  0.1014  0.0058
11153W        W27627  14.047  17.081  14.757 -0.1435 -0.1568 -0.2049
11154W        W27628  15.518  10.786   0.140  0.2378 -0.3564  0.0367
11155W        W27629  11.414  18.286   3.047  0.1983  0.0761 -0.0312
11156W        W27630   2.440  14.337   5.354  0.0298 -0.4467 -0.0775
11157W        W27631  11.935  10.686  12.202  0.3170 -0.1498 -0.0081
11158W        W27632   3.369  10.475  13.581  0.0970  0.2984 -0.0034
11159W        W27633  14.514  12.275  12.800  0.0832  0.1593 -0.0089
11160W        W27634   0.294   5.404   3.802 -0.0511 -0.0833  0.2888
11161W        W27635  12.167   0.097   0.674  0.1798  0.1259 -0.0077
11162W        W27636   6.829   9.995   2.018  0.1398 -0.2028  0.0891
11163W        W27637   8.816  18.166  15.346  0.0178 -0.0731 -0.1211
11164W        W27638  11.946   3.026   3.925  0.3306  0.0657 -0.3300
11165W        W27639   2.597   2.005  13.237 -0.1507  0.2862 -0.0130
11166W        W27640  18.223  18.153  12.167 -0.4876 -0.1909 -0.2920
11167W        W27641   0.759   4.386   5.114 -0.1711  0.1519  0.3297
11168W        W27642  14.482   5.376   2.090 -0.0183 -0.5102 -0.0431
11169W        W27643  14.117  13.882   3.559  0.0226 -0.1399  0.1419
11170W        W27644   7.898  15.835   5.648 -0.0588  0.4651  0.0791
11171W        W27645  17.883   6.364   3.236  0.3068 -0.1316  0.0437
11172W        W27646   5.939   3.081  15.905  0.0399 -0.0857  0.1823
11173W        W27647   9.360   5.877  16.105 -0.0463  0.3567  0.2079
11174W        W27648  11.754  15.562  13.860 -0.2113  0.0266  0.1711
11175W        W27649   8.832  14.986   5.054 -0.1502 -0.0174  0.0985
11176W        W27650   5.978  14.974  13.248  0.0173  0.0801 -0.2858
11177W        W27651  10.176   9.916  14.454  0.1077 -0.1292  0.3545
11178W        W27652   0.917   4.581  11.383  0.1195  0.0013 -0.2507
11179W        W27653  11.520  17.874  14.198 -0.4360 -0.2270  0.0778
11180W        W27654   4.486   3.073   2.299 -0.0921 -0.0993  0.1558
11181W        W27655  17.489   8.729  14.657 -0.2208  0.0735 -0.1895
11182W        W27656  10.377   5.425   0.216 -0.1843  0.0240 -0.0858
11183W        W27657  12.025  16.304   2.964 -0.1319  0.2680  0.2160
11184W        W27658   7.068   4.174  13.415  0.2956  0.1964 -0.3266
11185W        W27659  13.303   3.256  11.881  0.1876  0.1259  0.0313
11186W        W27660   7.801  10.327   2.824  0.3098  0.0030 -0.2500
11187W        W27661   0.347  14.993   5.246  0.1762 -0.3787 -0.0372
11188W        W27662   2.597   5.420  15.974 -0.3654 -0.1593 -0.0076
11189W        W27663   3.650   7.708   1.651  0.0672  0.3036  0.2503
11190W        W27664   1.393  14.763   0.258  0.3486 -0.2402  0.0417
11191W        W27665  11.481   4.909  16.307  0.4086  0.1184  0.0111
11192W        W27666  11.167  17.384  13.838  0.2293  0.0483  0.1406
11193W        W27667   7.362   9.436  12.538 -0.3481  0.1504  0.6425
11194W        W27668  15.175   4.339   5.276 -0.1499 -0.1365  0.0876
11195W        W27669   3.135  14.239   1.503 -0.0958  0.0221 -0.3063
11196W        W27670  16.806   9.433   2.599  0.2123  0.1196  0.0468
11197W        W27671   4.065  13.239  11.345  0.5762  0.2495  0.0394
11198W        W27672   9.816   9.103  16.178  0.0578  0.1515  0.0746
11199W        W27673   3.137  12.651  13.971 -0.1936  0.1124  0.3432
11200W        W27674  17.355  10.749  13.851 -0.1453  0.0218  0.2654
11201W        W27675  12.244  10.112   3.630 -0.4361  0.4458 -0.1189
11202W        W27676   6.917   8.708   3.794  0.0725  0.1682 -0.1689
11203W        W27677   6.642   8.815  10.842 -0.0530  0.0404  0.1437
11204W        W27678  12.420   1.061   1.417 -0.3118  0.1042 -0.0267
11205W        W27679   5.175  15.760   4.464  0.2308 -0.1686 -0.0995
11206W        W27680   0.752   8.595  14.561 -0.1459 -0.4180 -0.2683
11207W        W27681  13.141   6.401   3.478 -0.2341  0.0942  0.3585
11208W        W27682   4.106   8.480   3.046 -0.0193  0.3690  0.2459
11209W        W27683  13.841   4.886   1.181  0.4573  0.0054  0.1883
11210W        W27684   7.057   4.091   2.611 -0.1597 -0.3221 -0.0314
11211W        W27685   4.087   9.377  11.613  0.0263 -0.0412  0.0118
11212W        W27686   4.431  17.296   3.512 -0.1242 -0.1412  0.0226
11213W        W27687  12.810   1.917   4.779  0.0530  0.2421  0.2179
11214W        W27688  15.653  10.720  11.094 -0.0908  0.1261 -0.3195
11215W        W27689  16.671   4.712   2.360 -0.0463 -0.3192 -0.4157
11216W        W27690  12.276  17.801  14.803  0.1076 -0.2279  0.0792
11217W        W27691   6.138   6.309   2.181 -0.1378  0.0353 -0.1135
11218W        W27692  13.072  16.476   2.952  0.0317  0.0903  0.2012
11219W        W27693  11.299   0.300   1.180  0.1333 -0.1769 -0.1485
11220W        W27694   8.241   7.954  11.219 -0.2987 -0.1058 -0.0937
11221W        W27695  11.798  14.385  12.620 -0.2360 -0.1521  0.1104
11222W        W27696  18.177   9.953  11.918  0.0878  0.0179  0.1525
11223W        W27697   8.108  13.912  13.331 -0.0270  0.1661 -0.1380
11224W        W27698   9.099   9.811   2.636  0.1918  0.1460 -0.2348
11225W        W27699   5.543   6.605  11.833  0.0742  0.0042  0.0845
11226W        W27700   9.967   7.930   3.421 -0.3506 -0.1323  0.0985
11227W        W27701  15.926   5.688   0.358  0.2711  0.0491 -0.2202
11228W        W27702   8.608   9.782   3.703  0.3051  0.0850 -0.0208
11229W        W27703   5.460  16.509   1.091 -0.1635 -0.1654 -0.2749
11230W        W27704  10.315   4.492   1.137 -0.2020 -0.2487 -0.1701
11231W        W27705   5.127   1.062   3.546  0.0754 -0.3954  0.1319
11232W        W27706   4.463   1.929  15.628 -0.0134 -0.0770  0.1793
11233W        W27707  10.714  16.133  14.491  0.1332 -0.0114  0.1840
11234W        W27708   7.681  16.887  16.269 -0.0956 -0.1089  0.1510
11235W        W27709  10.800  10.696   0.680 -0.1344  0.0836 -0.1136
11236W        W27710   2.598  11.755  15.009 -0.0250  0.1528  0.1340
11237W        W27711  11.456   0.787  12.050 -0.0934  0.2107 -0.1556
11238W        W27712  14.548  10.406  13.594 -0.1958  0.0205 -0.0626
11239W        W27713  11.252  16.918   1.557  0.2968  0.0069 -0.1577
11240W        W27714  16.136  10.927  11.084  0.0318  0.0347  0.1332
11241W        W27715  10.380   8.473   4.802 -0.1017  0.3531  0.1269
11242W        W27716  14.759  17.416   1.864  0.2456 -0.0165 -0.3200
11243W        W27717   2.409  10.033   3.787  0.0399 -0.1010  0.0393
11244W        W27718  11.021   9.620   3.592  0.4395 -0.2375 -0.0359
11245W        W27719  14.766  16.719  16.245 -0.0639  0.0667 -0.0468
11246W        W27720  13.944   5.870   0.787 -0.3166  0.1926  0.1237
11247W        W27721   8.549  15.292   3.011  0.0082  0.2686  0.0192
11248W        W27722   8.859   3.932  16.327 -0.0129  0.4192  0.0912
11249W        W27723  13.050   6.522   1.238 -0.1368  0.0274 -0.1241
11250W        W27724  11.340   8.844  15.327  0.0911 -0.1027  0.1018
11251W        W27725   0.216   9.256   2.804  0.0110  0.1952 -0.0431
11252W        W27726  13.398  17.882   0.990 -0.1577 -0.0246 -0.2735
11253W        W27727  13.890   4.461   0.934  0.0666  0.2564  0.1064
11254W        W27728  15.036  10.482   0.853  0.2171  0.0032  0.0878
11255W        W27729  11.302  17.944   6.111 -0.2503  0.2346  0.0062
11256W        W27730  10.444  13.308  12.512  0.0623 -0.2432  0.0110
11257W        W27731   0.885  14.204   0.842  0.3003 -0.2452  0.0147
11258W        W27732   8.781   1.934  16.079 -0.1200  0.4656  0.1391
11259W        W27733   7.923  14.928  13.205  0.1040  0.0963 -0.1096
11260W        W27734  16.197  13.997  14.288  0.3626  0.0234  0.1093
11261W        W27735   9.562   8.025  14.977  0.0656  0.1994 -0.2445
11262W        W27736  18.289  14.249   1.063 -0.1226 -0.1751 -0.0201
11263W        W27737   1.280  13.113   0.432  0.5162 -0.0376 -0.0470
11264W        W27738   5.006  13.598   3.578  0.0771  0.1997  0.0184
11265W        W27739   4.245  18.364   3.349  0.0836 -0.4119 -0.1592
11266W        W27740   2.891  17.802  12.878 -0.1134 -0.1287 -0.1241
11267W        W27741   1.506  16.788   5.586 -0.0187 -0.0207  0.3156
11268W        W27742  17.799  15.956   2.511 -0.0705 -0.4428 -0.1686
11269W        W27743   7.705   7.868  11.609 -0.2985 -0.3037 -0.0928
11270W        W27744   6.656  16.133  13.189  0.0126 -0.4578  0.0398
11271W        W27745   2.307  14.748   5.090  0.0186 -0.1147 -0.0242
11272W        W27746   0.755   5.670  14.310  0.0268  0.0329 -0.2166
11273W        W27747   6.473   2.481  11.634  0.1054 -0.2121  0.2474
11274W        W27748   3.108   7.646  12.275 -0.1722 -0.0395 -0.1413
11275W        W27749  17.676   8.179  12.123 -0.3095  0.2121 -0.0551
11276W        W27750   7.504  16.472  12.218 -0.0608 -0.0725 -0.0276
11277W        W27751   7.278   5.141  14.885 -0.4476  0.4172  0.1138
11278W        W27752   4.585  13.184  15.935  0.1277  0.1341  0.0813
11279W        W27753   6.035  15.027   5.735 -0.1052  0.1950  0.1061
11280W        W27754   2.088   8.446  14.085  0.0368 -0.0377 -0.0283
11281W        W27755   8.976  14.180   1.572  0.3091  0.1017 -0.0717
11282W        W27756  11.230   1.064   3.035 -0.0319 -0.2292 -0.0924
11283W        W27757   9.277   2.019   0.960  0.2083  0.1066  0.0728
11284W        W27758   2.757  11.342  13.438  0.0797  0.2118  0.3493
11285W        W27759  17.731  10.287  11.592  0.0965  0.0508 -0.0059
11286W        W27760   0.610  14.686   4.313  0.2183  0.0365  0.0537
11287W        W27761   3.042   7.923  13.122 -0.0843 -0.1901  0.1714
11288W        W27762  17.683   3.717  16.233 -0.2624  0.1115 -0.0253
11289W        W27763  16.739  14.463  14.162  0.1276 -0.3495  0.2156
11290W        W27764  12.696   3.015   2.547 -0.2588  0.2234  0.1029
11291W        W27765  16.925  11.111   0.444 -0.0741  0.0862  0.0296
11292W        W27766   3.013   6.377  16.332 -0.1979  0.0429 -0.3023
11293W        W27767   9.676  11.578   2.729  0.0004 -0.0461  0.1838
11294W        W27768  10.312  16.511  15.446  0.0328  0.0141  0.4110
11295W        W27769   9.156   1.417  14.723 -0.1589 -0.0934 -0.0944
11296W        W27770   6.520   2.150   1.987 -0.2261 -0.3120 -0.1494
11297W        W27771   4.495   1.400  11.822  0.1354  0.1462  0.0346
11298W        W27772  17.210   7.812  14.039  0.2074  0.1407  0.0802
11299W        W27773  16.106  16.314  12.077  0.0975 -0.1604 -0.1068
11300W        W27774  14.425  17.654  14.033  0.3752 -0.0665  0.1216
11301W        W27775   8.239  18.206   1.499 -0.1839  0.0441 -0.1115
11302W        W27776  10.360   3.569  15.825 -0.2108 -0.0389  0.1960
11303W        W27777   2.472   4.395  15.470  0.1254  0.1879  0.0986
11304W        W27778  15.608   8.468   3.594 -0.4253  0.2008  0.1185
11305W        W27779   7.589   7.820   0.860 -0.3548  0.0971  0.0525
11306W        W27780   8.679  17.511  12.530 -0.0107  0.0048 -0.0655
11307W        W27781  14.507  17.318  13.636 -0.0394 -0.4147  0.0592
11308W        W27782   0.532  12.835  12.472  0.0386  0.3030 -0.2281
11309W        W27783  16.010   1.458   4.920  0.0703 -0.0352 -0.5606
11310W        W27784   6.552   5.816  11.782 -0.0442  0.1110 -0.2703
11311W        W27785  17.989  16.173  15.762  0.0877 -0.2314 -0.0190
11312W        W27786   9.876   1.275   1.130 -0.1459 -0.1016 -0.0150
11313W        W27787   3.902  10.119  15.380  0.1360  0.1748 -0.1374
11314W        W27788   6.438  14.084   6.852  0.2602 -0.0036  0.1949
11315W        W27789  11.382   6.939   1.280 -0.2809  0.0221  0.1565
11316W        W27790  17.673   9.317   0.948  0.1315 -0.0789  0.4280
11317W        W27791  11.066   5.496   2.237  0.1793 -0.1445 -0.2738
11318W        W27792   2.602   5.755   2.060  0.1066  0.0969  0.1065
11319W        W27793  12.060  17.845   3.841  0.0050  0.2321 -0.1857
11320W        W27794   3.788  12.753   5.893  0.0414 -0.0840 -0.2296
11321W        W27795  13.150  12.662  13.090 -0.2536 -0.0477  0.1276
11322W        W27796  18.345  13.051   3.734  0.2326 -0.0065  0.2404
11323W        W27797  11.897  10.181  12.219  0.1297  0.0865 -0.1142
11324W        W27798  12.887  18.091  12.718  0.0677  0.0576  0.0725
11325W        W27799  16.153  11.881  14.673  0.4589  0.0824 -0.2092
11326W        W27800   8.848  12.113   2.448 -0.3311 -0.3506 -0.1007
11327W        W27801  10.063  14.553  14.700 -0.2957 -0.0420  0.0025
11328W        W27802   8.571  18.024   0.640 -0.2599  0.0827  0.0225
11329W        W27803  10.947  12.956  14.471 -0.0629 -0.0797 -0.3414
11330W        W27804   5.910   3.179   1.654 -0.1146 -0.4881 -0.1095
11331W        W27805  16.089   6.942   1.819  0.0450  0.3549 -0.2526
11332W        W27806   0.377   8.065   0.898  0.0311 -0.1010  0.1843
11333W        W27807  15.832   6.551  13.400 -0.2098 -0.1119 -0.0637
11334W        W27808   3.097  12.402  13.064  0.0275  0.0927 -0.3400
11335W        W27809  17.975  16.810   2.744  0.1010  0.2818 -0.0056
11336W        W27810  10.407  13.886   1.734  0.3886 -0.1994  0.2810
11337W        W27811  15.641  15.822   0.550  0.0165 -0.0241 -0.0269
11338W        W27812  15.014   0.211  13.977 -0.0606 -0.0683 -0.1525
11339W        W27813  11.332   2.870   2.533  0.0148  0.1095  0.2036
11340W        W27814  18.110   6.422   0.278 -0.0184 -0.1067 -0.3881
11341W        W27815   9.009   2.664  12.559 -0.0798  0.0090 -0.3187
11342W        W27816   2.064  10.505   2.053  0.1273 -0.0715 -0.6955
11343W        W27817   3.012  12.520  15.168 -0.0525  0.1781 -0.0174
11344W        W27818   9.283  15.449   1.848 -0.0305 -0.1073 -0.0125
11345W        W27819  10.158  13.966   5.829 -0.0421 -0.1325 -0.2969
11346W        W27820   5.987  17.272   0.560  0.0269  0.2953  0.1305
11347W        W27821  15.774   7.550   2.633  0.0067 -0.0471  0.0369
11348W        W27822  12.553   6.688  10.653 -0.2493  0.0771 -0.0460
11349W        W27823   7.894  17.368   5.213  0.2152  0.0448  0.2610
11350W        W27824   1.757   0.142   2.483  0.1452 -0.0946  0.4381
11351W        W27825   2.743   0.568   3.985 -0.1102 -0.2235  0.0789
11352W        W27826   5.659   0.554  13.107 -0.0669 -0.1358  0.1040
11353W        W27827   9.735  11.736   1.603  0.0732  0.1095 -0.1048
11354W        W27828   6.003   4.292  15.121 -0.2351 -0.2116 -0.3496
11355W        W27829   2.562   3.134  12.605  0.1165 -0.0694  0.1366
11356W        W27830  16.557   6.262   3.945  0.2843 -0.2868  0.3192
11357W        W27831   5.201  13.116  14.787 -0.0734 -0.0839 -0.0151
11358W        W27832   1.750   3.297  15.775 -0.0329 -0.0187  0.1096
11359W        W27833   3.512   9.685   2.499  0.2307  0.0932  0.2763
11360W        W27834   7.389   6.287   4.545  0.0786  0.3317  0.0289
11361W        W27835  12.650  16.572  11.576  0.0229 -0.2062  0.0775
11362W        W27836  17.538   0.709   4.108  0.1796  0.0935 -0.1310
11363W        W27837   3.869   4.520   1.882  0.1994 -0.0203  0.0620
11364W        W27838   2.589  17.475   2.978  0.1510 -0.0252  0.0063
11365W        W27839  12.334  12.279   2.454 -0.1979  0.0743 -0.1074
11366W        W27840  11.957  10.780  14.925  0.0110 -0.0519 -0.3385
11367W        W27841  17.748   8.302   4.920  0.2123 -0.1007 -0.0549
11368W        W27842   3.172  17.575  11.898  0.0617  0.0903  0.1696
11369W        W27843   2.752  11.684   4.435 -0.0718 -0.1155 -0.0922
11370W        W27844  13.566  15.639  11.767  0.4458 -0.2192 -0.3148
11371W        W27845  13.071   2.311   5.830 -0.1257  0.2188 -0.2209
11372W        W27846  17.512   1.682  13.816  0.0155 -0.3122 -0.0921
11373W        W27847   3.168   6.587  12.166  0.1571 -0.0141 -0.3595
11374W        W27848   3.221   4.584  14.839  0.1887 -0.4621  0.2093
11375W        W27849  17.353   6.492   5.019 -0.0723 -0.0975  0.0981
11376W        W27850   0.175  17.673  13.974  0.3142 -0.3648 -0.0913
11377W        W27851  13.401   5.687   4.611 -0.0023 -0.5742 -0.0328
11378W        W27852   4.504   7.455  12.180 -0.2537  0.4842 -0.1304
11379W        W27853   3.527  13.701  15.130 -0.1592 -0.1406  0.2695
11380W        W27854  14.522  10.749  12.573 -0.0068 -0.1307  0.1399
11381W        W27855   5.944   9.506   0.604  0.0164  0.1222  0.2039
11382W        W27856   5.377  14.240   5.819 -0.0223 -0.1282 -0.2166
11383W        W27857  14.822   7.867  15.173  0.2407  0.1538 -0.1680
11384W        W27858   4.806   7.776  11.425  0.0961 -0.0096  0.0144
11385W        W27859   8.023  12.195   2.501 -0.2016  0.1757 -0.0038
11386W        W27860   5.306  17.193  15.248 -0.3051  0.1013  0.3664
11387W        W27861   2.056  10.402   1.578  0.4062  0.0872  0.0441
11388W        W27862   9.922   3.172   0.266 -0.0503  0.3442 -0.2186
11389W        W27863   7.936   8.812  15.310  0.0396  0.1299 -0.0967
11390W        W27864   2.883  13.636  13.322 -0.2112 -0.1207  0.0367
11391W        W27865   0.091   3.885  15.326  0.2396  0.1926  0.2267
11392W        W27866   1.730   1.435   5.220  0.4120 -0.2471 -0.0170
11393W        W27867   7.957   6.143  16.319  0.1871  0.0329  0.0963
11394W        W27868   3.719  15.582   2.765  0.0114  0.0851  0.0088
11395W        W27869   8.680   2.550   0.418  0.0773  0.0754 -0.0155
11396W        W27870   9.889   7.523   4.617 -0.0627  0.0458 -0.3777
11397W        W27871  13.209   0.679   5.496 -0.0224 -0.0220 -0.3934
11398W        W27872   5.931   7.689  11.991 -0.2767 -0.0190  0.2441
11399W        W27873   7.959   0.203  14.115  0.2319  0.1554  0.1739
11400W        W27874  14.572   5.304   4.925  0.2403 -0.1928  0.0880
11401W        W27875   9.608  12.149  15.684  0.0042  0.0991  0.1433
11402W        W27876   8.116   8.747   2.587  0.0046  0.0350  0.2431
11403W        W27877   5.598   3.474  11.561 -0.0584 -0.1127 -0.2002
11404W        W27878   8.420  15.097  13.568 -0.2263 -0.1648  0.1054
11405W        W27879  11.669  12.489  13.821 -0.1773  0.2143 -0.1046
11406W        W27880   4.075   9.302   3.047 -0.0936 -0.0898 -0.0559
11407W        W27881   4.511   2.056   2.349  0.0168 -0.3034  0.2071
11408W        W27882  17.282  11.708  11.297  0.0190 -0.1083  0.1452
11409W        W27883   2.528   5.759  15.132 -0.2715 -0.1418 -0.0565
11410W        W27884   7.009   3.348   0.252 -0.4930 -0.2421 -0.0963
11411W        W27885  14.689   7.072   1.205 -0.1942  0.0431 -0.0112
11412W        W27886   7.623   7.435  12.059  0.0109 -0.0504 -0.1458
11413W        W27887   2.886   6.366  13.993 -0.0288  0.2146  0.0724
11414W        W27888   3.373   1.234  14.839  0.1389  0.1070 -0.0673
11415W        W27889   5.914  17.290  15.890 -0.0878 -0.2921  0.1251
11416W        W27890  13.963   4.869   3.353  0.1827  0.1274  0.0302
11417W        W27891   9.229   2.514   1.246  0.0381 -0.3110  0.0258
11418W        W27892   4.286  11.877  12.731  0.0341  0.3352  0.0639
11419W        W27893  14.694  18.189   5.279 -0.0374  0.0692 -0.2981
11420W        W27894  11.487  11.526   0.830 -0.2678 -0.2944  0.0086
11421W        W27895   5.202   4.280  13.768 -0.0887 -0.1183  0.0190
11422W        W27896  15.964  11.348  14.488 -0.4716  0.0141  0.3990
11423W        W27897   5.260   3.803   4.494  0.2621  0.3048  0.4094
11424W        W27898  16.333  15.210   2.941  0.1278 -0.0543  0.1275
11425W        W27899   6.633  13.294   1.580 -0.0536 -0.0219  0.0330
11426W        W27900  13.123   4.888   3.088 -0.1001  0.1378  0.1251
11427W        W27901  10.263  10.595   3.233  0.0526  0.4949  0.0013
11428W        W27902   0.539  15.496  13.163  0.1370  0.0741 -0.2934
11429W        W27903  16.449  17.541  11.864 -0.0008  0.0549  0.1316
11430W        W27904   1.639   0.196  13.746  0.0739 -0.0227  0.2310
11431W        W27905  15.085  10.464   0.238 -0.1835 -0.0520 -0.1228
11432W        W27906  11.373   6.450  12.576 -0.1119 -0.1643  0.1219
11433W        W27907  10.617  10.212  15.241 -0.1744 -0.1125 -0.3385
11434W        W27908   3.043   8.389  11.380 -0.1373  0.0495 -0.4027
11435W        W27909   0.949  12.169   0.903  0.0801 -0.1632  0.0308
11436W        W27910   7.293  13.696  15.414  0.0302 -0.0802  0.3526
11437W        W27911   0.290   7.879   4.754 -0.0762 -0.0953 -0.2301
11438W        W27912  10.724   0.600  11.366  0.0158  0.1388 -0.1889
11439W        W27913   6.264  11.080  15.996 -0.2429 -0.2554 -0.0186
11440W        W27914   1.720  17.728   5.893  0.0581  0.2730  0.1002
11441W        W27915   1.825  16.418  13.215  0.1082 -0.0316  0.0123
11442W        W27916  16.771  14.708  13.320  0.0020  0.0533  0.0712
11443W        W27917   0.640  13.475   3.627 -0.0105  0.1973 -0.2849
11444W        W27918   9.678  18.181  15.782  0.1151  0.1229 -0.0051
11445W        W27919  15.099  16.423  11.506  0.0184 -0.1877  0.0870
11446W        W27920   9.570   9.109   2.564 -0.1641 -0.2011 -0.0202
11447W        W27921   9.806   4.145  12.292 -0.0440  0.2994  0.2301
11448W        W27922   4.357  17.859   5.000  0.0114 -0.1712  0.3533
11449W        W27923   8.753   5.101   4.890  0.0016 -0.3014 -0.1486
11450W        W27924  11.543   0.947  15.245  0.1327 -0.3467  0.3701
11451W        W27925  10.519   5.384  10.961  0.1529 -0.1061  0.1356
11452W        W27926  16.389   0.844  12.098 -0.0389 -0.1816 -0.1274
11453W        W27927   4.265  10.547   4.913 -0.2039 -0.0543  0.0459
11454W        W27928  17.085   8.669  10.284 -0.0131 -0.1960  0.2343
11455W        W27929   6.242   2.517  14.669  0.3390  0.0091 -0.0434
11456W        W27930  14.093   0.658   2.392  0.4262 -0.0456  0.1473
11457W        W27931   7.331   8.131  13.718  0.0135  0.0339 -0.2994
11458W        W27932  15.173  13.405   4.993 -0.2969  0.0505  0.2147
11459W        W27933   0.884  12.078  14.960  0.0700  0.0963  0.0113
11460W        W27934  18.111  15.891   3.575  0.2009 -0.0011 -0.1938
11461W        W27935  16.131   6.372  10.735 -0.0664  0.2695  0.1175
11462W        W27936   0.721   4.380   0.146 -0.1674 -0.2444  0.0256
11463W        W27937  17.598   1.395  12.459 -0.1432  0.2634 -0.4018
11464W        W27938   4.662  11.333   2.965  0.1220 -0.0433  0.1338
11465W        W27939  13.831   5.047   2.925  0.1799  0.2064 -0.2597
11466W        W27940  14.733   3.495   0.278 -0.0853 -0.2059 -0.1128
11467W        W27941   4.538   1.288   4.391 -0.2531 -0.0946 -0.2724
11468W        W27942   7.977   9.975  15.829  0.1105 -0.0387  0.0402
11469W        W27943  12.714  18.329   5.219 -0.0640 -0.0128  0.4461
11470W        W27944   7.059   9.417   4.804 -0.1890 -0.2270 -0.0964
11471W        W27945   9.329   5.938  14.692  0.1763 -0.1589  0.0389
11472W        W27946  17.352  14.196   1.689  0.0599 -0.0834  0.0370
11473W        W27947  18.221   0.079   0.799 -0.1710 -0.2275  0.0051
11474W        W27948   8.509  10.500   5.021 -0.1744  0.1792  0.0396
11475W        W27949   4.663   6.859   1.088 -0.0613 -0.2256 -0.0651
11476W        W27950   8.564  17.958  12.902  0.0618  0.0083  0.0005
11477W        W27951   8.357   3.170  14.861  0.1545 -0.2237  0.3178
11478W        W27952  14.987  11.901  14.067 -0.1602  0.0550  0.0977
11479W        W27953   6.213  14.487  15.109 -0.1019  0.1734 -0.1237
11480W        W27954  17.701   9.914  15.964  0.2453  0.0516  0.3347
11481W        W27955   3.037   0.074  15.987 -0.2458 -0.2394  0.1444
11482W        W27956   6.602   0.185   1.765 -0.0625 -0.1657  0.1131
11483W        W27957  15.598  15.286  12.205 -0.2224  0.0077  0.1380
11484W        W27958   3.668  10.023   1.824  0.3478 -0.0516 -0.0533
11485W        W27959  14.638  10.029   1.226  0.2276  0.0659  0.3488
11486W        W27960   3.440   7.768   4.846  0.1338  0.0288 -0.1538
11487W        W27961  11.054   3.835  16.250 -0.0473 -0.0476 -0.3183
11488W        W27962  17.344  10.212  16.206 -0.0562  0.2393 -0.0586
11489W        W27963   0.024  17.533   5.577 -0.4989  0.2711 -0.2740
11490W        W27964  12.590  16.431   1.884  0.2273  0.3171  0.1504
11491W        W27965   0.941   1.055  15.606 -0.0713 -0.3876  0.1030
11492W        W27966  11.171   9.802  11.640  0.0259  0.3136  0.0149
11493W        W27967   2.257  12.891   3.204 -0.0479  0.0537  0.3107
11494W        W27968  13.992  14.735  10.306  0.1270  0.2171  0.0813
11495W        W27969  11.196   4.307  14.632  0.2748 -0.2805 -0.0310
11496W        W27970  13.303   6.367  11.055 -0.0124 -0.0456 -0.0278
11497W        W27971   4.422   7.326  13.965  0.0558  0.4465  0.2594
11498W        W27972   1.281   8.963   3.746 -0.0465 -0.0134  0.1145
11499W        W27973  10.667   3.356  13.141  0.0941 -0.3775  0.1900
11500W        W27974   3.722  12.743   2.696 -0.2198 -0.1232  0.2770
11501W        W27975   8.116  13.060  13.030  0.4313 -0.0376  0.1090
11502W        W27976  15.777  14.149   1.701 -0.0990 -0.0582  0.0717
11503W        W27977  17.252   3.955   1.529 -0.0986 -0.2702 -0.0690
11504W        W27978   6.295   8.636   0.018  0.1285  0.3110 -0.3532
11505W        W27979  13.578   3.155   3.065 -0.0801 -0.0504  0.2964
11506W        W27980  14.173   3.264   1.154  0.1415  0.1507 -0.0530
11507W        W27981   9.903   3.282  12.676 -0.1727  0.0895 -0.1137
11508W        W27982  18.208   2.028   5.020 -0.0395  0.0943  0.0292
11509W        W27983   3.638   1.347  14.297  0.3255 -0.1045 -0.1570
11510W        W27984  10.969   0.813   3.444  0.0880 -0.0185  0.0567
11511W        W27985   1.194  13.272   4.286  0.1139 -0.3262 -0.1215
11512W        W27986  12.180  17.370   3.792 -0.0729  0.0293 -0.0321
11513W        W27987  12.928   5.222   1.506 -0.2240  0.2572 -0.0142
11514W        W27988  14.936   0.735   4.383  0.0054 -0.0847 -0.1072
11515W        W27989   2.002   5.875  13.014 -0.5856  0.0787 -0.1472
11516W        W27990   1.391  17.105  13.468 -0.1256 -0.0612 -0.0904
11517W        W27991   3.966   0.577   1.147  0.2726 -0.2483 -0.0851
11518W        W27992  11.056   5.772  11.573  0.0525 -0.1170  0.1613
11519W        W27993  13.368   8.444   2.630 -0.5712  0.4399 -0.0172
11520W        W27994  16.064   6.973  11.963 -0.0198  0.0460  0.2213
11521W        W27995  11.428   1.447   2.118 -0.1180 -0.1436 -0.1821
11522W        W27996  16.284   3.690  11.137  0.1862  0.0178 -0.0558
11523W        W27997  14.609   6.121   0.019 -0.2198  0.0054  0.0188
11524W        W27998  13.883  16.777  13.728 -0.0266  0.1166 -0.1581
11525W        W27999   7.763   0.760   3.268  0.0900  0.4022  0.0994
11526W        W28000   9.235  17.961  13.473  0.0121 -0.3478 -0.0850
11527W        W28001   9.464  12.298  12.022  0.0291 -0.0031  0.2905
11528W        W28002   8.210   4.057  13.394 -0.0026  0.2240 -0.0595
11529W        W28003  16.246  12.664  16.060 -0.1424  0.1305  0.1573
11530W        W28004   9.009  10.767   3.689 -0.0314  0.0835  0.0284
11531W        W28005   5.693  15.103  15.180 -0.0206  0.0575 -0.2935
11532W        W28006  13.525   0.133   3.005 -0.1683  0.0079 -0.2858
11533W        W28007   7.425  12.154  13.967  0.1987 -0.1454  0.0714
11534W        W28008  14.449   7.511   2.405 -0.3113  0.0895  0.0779
11535W        W28009  11.160   8.423  15.630 -0.4900  0.1031 -0.1412
11536W        W28010  14.951   8.498   0.215  0.0465  0.2761  0.0041
11537W        W28011   4.435   3.617  11.856 -0.2887 -0.2958  0.0001
11538W        W28012   9.375  11.873   0.143 -0.0058  0.0645 -0.1207
11539W        W28013   1.504   9.811  13.718 -0.2921  0.1294  0.2274
11540W        W28014   8.372   7.051   4.062  0.0795  0.2270  0.3878
11541W        W28015   9.899  12.209   3.829  0.1300  0.1163  0.2079
11542W        W28016  11.998   0.773   1.316 -0.3689 -0.1782 -0.1729
11543W        W28017   6.508  13.860   3.526  0.1697 -0.0522 -0.1789
11544W        W28018   8.998   4.449   3.468  0.3492  0.2469  0.0800
11545W        W28019   0.395   6.813  14.829  0.0926 -0.2516 -0.2346
11546W        W28020   2.529   9.571   2.488  0.0641 -0.0253 -0.4072
11547W        W28021   0.846   8.310   1.733  0.0414 -0.1401  0.1414
11548W        W28022  11.914   8.778  13.727 -0.0653 -0.1364 -0.0700
11549W        W28023  13.359  10.031   0.031 -0.1178 -0.0662  0.2064
11550W        W28024   8.012   4.869  10.769  0.0443  0.0156  0.0315
11551W        W28025  16.392   6.584  11.725 -0.0997 -0.3738 -0.1039
11552W        W28026  14.970   6.094   2.586 -0.0463 -0.0332 -0.0670
11553W        W28027  17.463  16.376   4.919 -0.0061 -0.0249 -0.2302
11554W        W28028  15.459  14.361   2.902  0.0059 -0.0723 -0.0244
11555W        W28029   7.992   0.655   2.787  0.0929 -0.4218  0.0621
11556W        W28030  16.250   7.579   2.487 -0.2014 -0.3165 -0.1208
11557W        W28031  17.752   1.403  15.782  0.1477  0.0313 -0.1468
11558W        W28032   8.152   8.662  13.066  0.1179 -0.1937 -0.0799
11559W        W28033  11.639   8.480   0.072  0.2535 -0.0322  0.1781
11560W        W28034   3.635   6.671  14.168  0.1670  0.3830 -0.2063
11561W        W28035   6.603  15.716   5.275  0.0366 -0.2773  0.0093
11562W        W28036   6.400  14.117  13.324  0.0902 -0.0139 -0.2745
11563W        W28037  15.513  10.701   2.527 -0.0986  0.0841 -0.0292
11564W        W28038  11.080   8.813  11.381 -0.1383 -0.0014  0.1650
11565W        W28039   4.722   9.883   2.884  0.2366  0.1899 -0.0034
11566W        W28040   3.119  15.360   3.455 -0.1381  0.1451  0.2269
11567W        W28041  14.281  17.918   0.321  0.1001 -0.0580 -0.4295
11568W        W28042   8.145  13.561   2.495  0.0941 -0.0903 -0.4069
11569W        W28043   0.440   6.166   5.261 -0.1232 -0.2074 -0.3596
11570W        W28044  17.784   8.123  14.028  0.0346 -0.2368  0.0726
11571W        W28045  14.249  13.437   2.880 -0.2377 -0.0483  0.1016
11572W        W28046   9.632   5.726  14.335 -0.0138  0.1295 -0.2099
11573W        W28047  14.727   7.341  12.340 -0.1389  0.0810 -0.0373
11574W        W28048  15.199   2.711   5.292 -0.0048 -0.1297  0.0773
11575W        W28049  15.330  15.727  12.353 -0.0336  0.0646  0.0057
11576W        W28050  17.073  15.711   3.325 -0.2177 -0.1879 -0.0844
11577W        W28051   3.210   2.477   2.788  0.0032 -0.0538 -0.1839
11578W        W28052   1.961  12.640  10.917  0.3338 -0.0110  0.1347
11579W        W28053  15.155   1.563   2.726  0.1820  0.0637 -0.1215
11580W        W28054  14.859  14.052  15.850 -0.1658 -0.2494  0.1361
11581W        W28055  12.505   7.284  14.256 -0.0235  0.0837 -0.0141
11582W        W28056   7.577   2.600  16.300 -0.0029 -0.1315  0.5133
11583W        W28057  14.385   2.764   4.722 -0.0427  0.2701 -0.0667
11584W        W28058   2.761  11.097  12.966  0.0357  0.2064 -0.1420
11585W        W28059  16.071   2.531   4.199 -0.1854 -0.0806  0.0378
11586W        W28060   6.640   9.327  10.916 -0.3339 -0.2965  0.0435
11587W        W28061   4.681   5.740  12.744  0.1465  0.0461 -0.3122
11588W        W28062   8.274   8.117  15.253 -0.0885  0.0647  0.3662
11589W        W28063   3.438  18.255   5.744  0.1200 -0.0307  0.2042
11590W        W28064   3.805  10.927   4.035  0.2402  0.0245 -0.1013
11591W        W28065   2.471   2.571   3.217 -0.1960  0.1018 -0.3135
11592W        W28066  10.712   8.789   1.684  0.0083  0.0332 -0.2340
11593W        W28067   0.966   0.079   4.170 -0.0544  0.3038 -0.1968
11594W        W28068  15.233   1.940   3.280  0.2743 -0.2709  0.2480
11595W        W28069   7.782  12.775   5.007  0.0953  0.1370 -0.0532
11596W        W28070  16.857   1.156  11.952  0.1358 -0.2863 -0.2307
11597W        W28071  11.453  13.018  14.083 -0.0185 -0.3456  0.1635
11598W        W28072  10.642  10.565  14.853 -0.3912  0.2867  0.1053
11599W        W28073   7.452  13.007   5.320  0.0315  0.0903 -0.0211
11600W        W28074   6.907   2.988  12.738 -0.3273 -0.2460  0.1188
11601W        W28075  15.395   2.759   1.017  0.1201 -0.0392 -0.1408
11602W        W28076   1.131   2.058  15.122  0.2986  0.0228  0.2592
11603W        W28077   5.931  11.963   1.296  0.1001  0.1501 -0.1715
11604W        W28078   1.662   3.336  11.579  0.0659 -0.1232  0.1746
11605W        W28079  11.931   1.460  13.679 -0.0859 -0.1162 -0.0369
11606W        W28080   7.278   5.188   3.887  0.1904 -0.3455 -0.1228
11607W        W28081  11.237  17.871   1.756 -0.0017  0.2641 -0.1228
11608W        W28082  17.224   8.191  15.784 -0.2729 -0.1017 -0.0621
11609W        W28083  13.252  12.078   2.471 -0.1042  0.3470  0.1348
11610W        W28084  17.136   8.863   4.087  0.2994  0.0730  0.1236
11611W        W28085  18.263  10.394  15.223 -0.0819 -0.0216 -0.0509
11612W        W28086   8.780   5.143   4.406  0.0640  0.0792 -0.2429
11613W        W28087  13.451   2.822   0.078  0.0175  0.0716  0.2559
11614W        W28088   2.935   5.346   1.894 -0.1630  0.1807  0.1193
11615W        W28089  17.275   9.007  12.998  0.1179  0.1606  0.0215
11616W        W28090  13.509   4.229  14.776  0.1132  0.1018  0.0650
11617W        W28091  17.992   1.435   3.439 -0.1608 -0.0625 -0.0380
11618W        W28092  18.125  10.488   4.984  0.2061 -0.0530 -0.2215
11619W        W28093   4.966  10.948   5.463  0.1493 -0.1502  0.1784
11620W        W28094   2.539  15.705  15.977 -0.0657  0.5914 -0.0209
11621W        W28095  16.612   8.083   0.505 -0.2269  0.0462  0.1724
11622W        W28096   4.070  10.184   0.976 -0.3136  0.1666 -0.2890
11623W        W28097   8.640   9.269  15.522 -0.1012  0.1684  0.2747
11624W        W28098  14.135   0.027   0.571 -0.1786  0.0655  0.1185
11625W        W28099   4.420   4.376   3.192  0.1819  0.0761 -0.2932
11626W        W28100   7.542  17.798  13.254  0.0596  0.2349  0.0593
11627W        W28101   5.020  16.905  12.580 -0.0279 -0.0582 -0.0517
11628W        W28102  17.757   4.025   1.693  0.1855  0.0804  0.2533
11629W        W28103  14.974  11.719  13.096  0.2569  0.2370  0.2353
11630W        W28104   9.141   6.841   3.077  0.1489  0.0039  0.1864
11631W        W28105  15.485  13.816  12.885 -0.0151  0.0376 -0.0266
11632W        W28106   3.780   7.622   2.830  0.0014  0.0735 -0.0111
11633W        W28107  11.942  14.181  13.038  0.3376  0.3101  0.1847
11634W        W28108  17.798   9.017  13.807 -0.1183  0.2057 -0.1120
11635W        W28109  15.235   2.275   4.584  0.1928 -0.1966  0.0309
11636W        W28110   1.221  13.796   1.390  0.0089  0.1706  0.0818
11637W        W28111   2.864  10.995  15.576 -0.2437 -0.0425 -0.2270
11638W        W28112   5.302   3.943   0.333 -0.1003 -0.2576 -0.1229
11639W        W28113  14.961   8.697  11.744  0.0224 -0.2456 -0.1558
11640W        W28114   4.071   9.729  11.172  0.0835  0.2151  0.1167
11641W        W28115   7.447   7.659  15.349 -0.0971 -0.0167 -0.1884
11642W        W28116  15.628   4.611  15.838  0.4315  0.2978 -0.5126
11643W        W28117  16.556  10.149  13.445  0.1859 -0.3218  0.4053
11644W        W28118   3.794  16.894   1.131  0.0310 -0.2375  0.3171
11645W        W28119   9.678   1.692   4.026 -0.0977  0.1799  0.1713
11646W        W28120   0.744   3.372  15.709  0.2696  0.0753 -0.2269
11647W        W28121   4.526  10.929  13.133  0.0023 -0.0284 -0.1179
11648W        W28122   0.494   4.677   1.411  0.0859 -0.0199 -0.0222
11649W        W28123   4.259   5.115   2.438  0.1363  0.1750  0.0892
11650W        W28124   1.642   8.195   2.089  0.1865 -0.0539  0.0485
11651W        W28125  13.586  13.390   2.136  0.1793 -0.1252  0.1562
11652W        W28126   5.717   6.789   4.088  0.0192  0.0263 -0.3136
11653W        W28127  13.274   0.011  12.860  0.3006 -0.1699 -0.1275
11654W        W28128   4.512  15.546  13.908  0.0024 -0.0386 -0.1768
11655W        W28129   5.654  15.690   5.469  0.1391  0.1451  0.0540
11656W        W28130  16.140   4.883  14.734  0.1026  0.2117  0.5190
11657W        W28131  15.782  17.667  12.419  0.0568 -0.1079 -0.2695
11658W        W28132   1.389   1.050   4.158  0.1191 -0.2245 -0.2052
11659W        W28133  11.101  17.867   2.586 -0.1047  0.1123  0.1689
11660W        W28134   8.464  17.456   5.162 -0.1103  0.0332 -0.0151
11661W        W28135  11.472   2.507   2.079  0.0517  0.1041 -0.1642
11662W        W28136  12.758  18.073  15.416 -0.0115  0.2253  0.3175
11663W        W28137  13.027   4.311   3.588  0.3258  0.0503  0.0709
11664W        W28138   3.573  12.384   3.101 -0.0537  0.0141  0.1789
11665W        W28139  15.427   6.356   1.331 -0.1616  0.0097  0.1167
11666W        W28140   2.057  11.816  13.952  0.1106 -0.0266 -0.1092
11667W        W28141  10.003   8.428  11.615 -0.0142  0.0559  0.2299
11668W        W28142  10.558   9.966   3.976  0.3131 -0.0578 -0.0190
11669W        W28143   9.907   1.947  15.283  0.2048 -0.1634  0.1690
11670W        W28144  15.279  11.290  16.257  0.2332 -0.0123 -0.0885
11671W        W28145  13.793   5.545  12.656  0.1191  0.1522 -0.0415
11672W        W28146  12.713  15.103  16.262  0.2068  0.2288  0.2471
11673W        W28147   2.856   4.383  13.930 -0.1119  0.2692  0.0709
11674W        W28148  16.374   8.869   2.109  0.2819  0.2166 -0.4049
11675W        W28149  15.055  10.413   5.156  0.0025 -0.2003  0.0562
11676W        W28150   6.438  12.358   3.859 -0.2767  0.0820  0.1502
11677W        W28151  16.840  14.869  13.836  0.0344 -0.2211 -0.0082
11678W        W28152   3.834   8.777   4.819  0.2181 -0.0488 -0.1354
11679W        W28153   8.904  17.857   3.742 -0.2233 -0.1027 -0.0136
11680W        W28154   3.229   8.430   3.500  0.3193 -0.0837  0.6106
11681W        W28155   4.428  13.559  11.962  0.0351  0.3248 -0.0102
11682W        W28156  15.662   7.277   4.463 -0.0739 -0.0727 -0.0399
11683W        W28157   8.849  11.002  13.961 -0.0582  0.0146  0.0031
11684W        W28158   8.312   1.290  16.058  0.3265  0.0417  0.0813
11685W        W28159  12.805   1.251  14.152  0.0133  0.0729 -0.0733
11686W        W28160   9.862   3.601   2.105 -0.0749  0.1323  0.4446
11687W        W28161   3.462   0.832  14.489  0.1498  0.2474  0.0253
11688W        W28162   6.807   0.008   5.306  0.3361 -0.1071  0.0345
11689W        W28163   6.119   7.042  13.801 -0.1506 -0.3618 -0.1264
11690W        W28164   6.543   9.197  12.643 -0.1366 -0.0063 -0.1624
11691W        W28165   6.143   6.495  15.041  0.1495 -0.0908 -0.0848
11692W        W28166   0.430   4.222  13.803 -0.1767 -0.0866 -0.3011
11693W        W28167   0.194  12.915   4.851  0.0153  0.0710  0.2374
11694W        W28168  16.116   7.083   5.195  0.3347 -0.0280  0.0375
11695W        W28169   5.954  15.439  13.034 -0.0388  0.2555  0.0254
11696W        W28170   7.195   8.417   4.710  0.0424  0.0847  0.0146
11697W        W28171   1.428   9.805   0.391  0.0973  0.3027  0.0038
11698W        W28172   4.975   9.750  11.203  0.0334 -0.0174  0.0878
11699W        W28173  16.367  17.195  13.740  0.0423  0.0778 -0.0186
11700W        W28174  10.751   7.046  16.046 -0.0964  0.0635 -0.1174
11701W        W28175  12.551   2.066   1.497 -0.0154  0.1612 -0.0057
11702W        W28176   6.177   9.708   5.322  0.3383  0.0420 -0.1515
11703W        W28177  11.870   4.318   0.160  0.0898 -0.0265 -0.2228
11704W        W28178  16.392   7.944  12.386  0.0765 -0.2882  0.0802
11705W        W28179   1.084  13.894  15.525 -0.0722 -0.1365 -0.1336
11706W        W28180   2.394  17.951  14.401  0.0548  0.3101  0.0006
11707W        W28181  12.215  16.912  15.976  0.1942 -0.0852  0.1781
11708W        W28182   0.915   2.133  14.194 -0.1160  0.0658 -0.1341
11709W        W28183   5.407  13.447   3.337 -0.1758 -0.1440  0.1687
11710W        W28184  17.314  12.034   4.399 -0.1825 -0.0384  0.0888
11711W        W28185   2.219  15.476  15.661  0.1597  0.1722 -0.0129
11712W        W28186   9.132  11.474   5.133 -0.1705  0.1008  0.2852
11713W        W28187   3.110  16.099   3.129 -0.1017 -0.0817  0.0325
11714W        W28188  10.782   5.190  14.918  0.0570  0.1221 -0.0971
11715W        W28189   8.371  14.992   4.210 -0.0295 -0.1490  0.1975
11716W        W28190  12.940   9.096   2.946 -0.1447  0.2070  0.1030
11717W        W28191   0.618  12.602   4.017  0.2714 -0.0204  0.0311
11718W        W28192   3.870  14.792   6.002  0.0781  0.0054  0.0475
11719W        W28193   2.932   2.220   5.322  0.0171 -0.0536 -0.2130
11720W        W28194  11.826   2.592  14.276  0.1204 -0.0179 -0.0887
11721W        W28195   3.232  10.416  13.022  0.5861 -0.1938  0.0280
11722W        W28196   6.215  16.501   3.252 -0.2555 -0.0823  0.1179
11723W        W28197   0.210  13.039   1.574 -0.0477 -0.0561  0.1063
11724W        W28198  13.099   5.245  10.664  0.1282  0.0704 -0.1543
11725W        W28199   5.170   5.473   3.585  0.2981  0.1471 -0.2743
11726W        W28200   6.947  14.587  14.075  0.0378 -0.1062  0.1219
11727W        W28201   1.808   3.187   4.967 -0.0305 -0.1633  0.1926
11728W        W28202   3.432  13.666   4.579  0.0927 -0.2449  0.3430
11729W        W28203   3.550   5.626   5.435 -0.3279  0.0905 -0.0030
11730W        W28204  18.330   2.340   1.844 -0.0159 -0.1558 -0.0549
11731W        W28205   5.380  13.992   1.193  0.4692  0.2183  0.1215
11732W        W28206  11.973   1.414  12.588  0.1698 -0.2196  0.2413
11733W        W28207  15.243   8.043  15.859  0.0838  0.3975 -0.1038
11734W        W28208   0.906   3.046  11.843  0.1121  0.0385  0.1503
11735W        W28209   2.105   8.920   3.211 -0.0310  0.2268  0.1869
11736W        W28210  11.235  12.162  13.863  0.0239 -0.0834 -0.1122
11737W        W28211  17.441  10.769   4.597  0.0235  0.1388  0.1244
11738W        W28212  18.255  13.320  15.249 -0.0463  0.1645  0.0389
11739W        W28213   7.205  11.759   3.912  0.1629  0.0165  0.0732
11740W        W28214  17.633  10.715  13.456  0.1688 -0.0919 -0.3382
11741W        W28215  10.215   6.622  13.859 -0.0207  0.0111 -0.0291
11742W        W28216   3.915  18.097   1.080  0.0226  0.0893 -0.0769
11743W        W28217   4.626  11.562  13.608  0.3146  0.1548  0.1309
11744W        W28218  15.833  14.254  14.524 -0.0942  0.1470 -0.2884
11745W        W28219   0.762  12.451  11.357 -0.0116 -0.1925 -0.2912
11746W        W28220   3.155   9.535   0.409 -0.0728 -0.1303 -0.1737
11747W        W28221  12.216   5.076   0.800  0.1670  0.1188  0.0463
11748W        W28222   1.967  15.866  11.793  0.2020  0.2056 -0.0170
11749W        W28223  11.318   5.245  13.211 -0.0513  0.2468 -0.0612
11750W        W28224  17.927   2.731  10.509 -0.0922 -0.0598 -0.0957
11751W        W28225   0.136   3.061   0.687 -0.0126 -0.1002 -0.0054
11752W        W28226  13.146  16.367   0.969  0.1048 -0.3567  0.4487
11753W        W28227  17.704   0.209   3.210 -0.1577 -0.2588  0.1854
11754W        W28228  16.900  11.437  13.534  0.0303  0.0566 -0.0057
11755W        W28229   2.514  16.558   6.263 -0.2949  0.0888  0.0314
11756W        W28230   1.353   7.693  14.450  0.0073 -0.1150 -0.1813
11757W        W28231  13.959  15.604   2.369 -0.2383 -0.1046  0.1788
11758W        W28232  12.294   0.611  14.261 -0.2786 -0.0993  0.3838
11759W        W28233  11.618   4.120  12.435  0.0849 -0.2766  0.1400
11760W        W28234  14.977  13.386   2.196  0.4412  0.1571  0.0628
11761W        W28235   7.227  14.657   0.887  0.0837 -0.3637  0.0579
11762W        W28236  16.811   0.020  11.780  0.1288 -0.3035  0.2118
11763W        W28237   9.822   9.894   4.131  0.2568 -0.2356  0.0440
11764W        W28238   6.510   7.514  13.281 -0.0022  0.0496 -0.0952
11765W        W28239   3.345   3.259   0.911 -0.2516 -0.0708  0.0662
11766W        W28240  12.110  12.176   0.684  0.1330 -0.1561 -0.2488
11767W        W28241   2.785  16.243  13.014  0.1469  0.0042  0.1481
11768W        W28242  13.195  11.535   4.046 -0.2693  0.3699 -0.1664
11769W        W28243  13.209   4.337   2.082  0.1494  0.1757  0.2268
11770W        W28244   3.094   7.232   3.536  0.2507 -0.0151  0.0754
11771W        W28245  10.930   1.704   2.479 -0.0843  0.0777 -0.0924
11772W        W28246   8.599   1.471   5.142 -0.2839 -0.0916  0.2517
11773W        W28247  13.385  16.790   4.462 -0.1899 -0.1950  0.0469
11774W        W28248   0.541  11.593  15.004 -0.2485 -0.3884  0.2045
11775W        W28249   2.064   7.070  12.766  0.0165 -0.1009 -0.0731
11776W        W28250   8.368   9.296  14.120  0.1083  0.1014  0.0067
11777W        W28251  13.416   7.652  11.582 -0.1829  0.1253  0.0234
11778W        W28252   0.334  11.538  15.847 -0.2566  0.1054  0.0644
11779W        W28253  12.634   8.128   0.283 -0.2206  0.0764  0.1814
11780W        W28254   1.173  13.790   3.478  0.1257  0.0595  0.0250
11781W        W28255  16.824  13.612  12.512 -0.1096  0.2479 -0.0813
11782W        W28256   5.053   9.119   3.232  0.0093 -0.4360 -0.1199
11783W        W28257   6.943   7.008  11.312 -0.0397  0.0749  0.0676
11784W        W28258   9.428   6.851  11.230  0.0210  0.0585 -0.3382
11785W        W28259  13.900  10.384   4.496 -0.0483  0.0373  0.3049
11786W        W28260   3.739   0.631   2.919  0.0304 -0.3495  0.0677
11787W        W28261  16.627  12.324   3.001  0.1347  0.1946 -0.0796
11788W        W28262  14.923   9.074   5.045  0.2994  0.0035 -0.0222
11789W        W28263  16.560   5.555  10.924 -0.2799 -0.2441 -0.1306
11790W        W28264  10.980   6.438  15.439  0.0231 -0.0257  0.0913
11791W        W28265  11.913  17.876   2.392  0.2962 -0.0821 -0.2538
11792W        W28266   4.107  14.336   5.745  0.1136  0.4321  0.1083
11793W        W28267  12.195  15.499  14.078  0.3092  0.3094 -0.1826
11794W        W28268   8.335  14.822   1.352  0.1190  0.1692 -0.4064
11795W        W28269  12.971   3.592   2.843 -0.1373 -0.1553  0.1092
11796W        W28270   8.987   5.582  14.715 -0.1384  0.2559 -0.1636
11797W        W28271  13.466  16.711  14.893  0.3619  0.0455  0.3030
11798W        W28272   9.893   1.305  14.160 -0.1511 -0.0489  0.4164
11799W        W28273  17.606   8.709   5.808  0.2833 -0.0056 -0.3431
11800W        W28274   1.198   7.383  13.009 -0.1741 -0.0029  0.0083
11801W        W28275   3.478  16.187   5.874 -0.1859  0.0604  0.0368
11802W        W28276  14.457   8.322  15.254  0.3716  0.0407  0.1592
11803W        W28277  14.134   0.201   4.668 -0.0304  0.1443  0.2563
11804W        W28278   9.321   5.241   1.530  0.2876 -0.3835  0.1571
11805W        W28279   8.862   6.034  12.340  0.2225  0.2496  0.0120
11806W        W28280  15.711   4.815  15.390 -0.1392  0.1354  0.0691
11807W        W28281   7.976   0.284   1.344  0.0369  0.0126 -0.0470
11808W        W28282  18.097  16.732   3.370 -0.2692  0.0386  0.1840
11809W        W28283   0.591   5.122  15.627 -0.1444  0.0933  0.2229
11810W        W28284   4.245  13.119  12.649  0.0771  0.3187 -0.2730
11811W        W28285   3.110   7.594   4.027 -0.1112  0.1978 -0.0269
11812W        W28286   2.623   1.478  13.215 -0.1711  0.6142 -0.0094
11813W        W28287   7.885  16.892  14.298 -0.0169  0.2531 -0.2247
11814W        W28288  10.747   4.039   4.015  0.0532 -0.4947 -0.2761
11815W        W28289  14.195   7.574  15.860 -0.0977 -0.0406 -0.0402
11816W        W28290   9.159   8.181  11.295 -0.1789  0.1792 -0.2489
11817W        W28291  13.555   9.333  13.226 -0.2263 -0.0368 -0.2303
11818W        W28292  13.570   7.715   0.425 -0.2329 -0.3893  0.2549
11819W        W28293  10.137   3.851   4.503 -0.0703  0.1511  0.0151
11820W        W28294  12.502   3.043  14.069 -0.0152 -0.1754 -0.1899
11821W        W28295  17.872   5.995   5.850 -0.0568 -0.2878  0.1470
11822W        W28296   0.594   9.360  14.955 -0.2366 -0.0564  0.1125
11823W        W28297  15.369   9.102   4.385 -0.1175  0.2528 -0.1130
11824W        W28298  18.173  11.709   2.498 -0.0275  0.0587  0.0232
11825W        W28299   3.997  11.016  15.559 -0.0024 -0.0981 -0.1067
11826W        W28300  13.939   9.759   1.432  0.1016 -0.0926  0.3390
11827W        W28301  13.359   2.537   2.429  0.0553  0.0845 -0.0281
11828W        W28302  14.811  14.345   1.536 -0.1135  0.0766 -0.1798
11829W        W28303  11.833   6.298  11.353  0.1032  0.1329  0.0215
11830W        W28304   1.497  15.038  11.215 -0.1445  0.0811 -0.1421
11831W        W28305   7.189  14.606  13.188  0.1566 -0.2118  0.1315
11832W        W28306   8.709  17.553   0.898  0.2714 -0.1071  0.1640
11833W        W28307  17.445   3.511   0.332  0.3320  0.0232  0.0754
11834W        W28308   9.767  16.697  14.076  0.1263 -0.0468 -0.0545
11835W        W28309  15.355  14.380   1.623  0.1736  0.2880  0.1852
11836W        W28310  11.440  16.925   0.416  0.0779 -0.2330  0.0607
11837W        W28311   6.014  13.016   4.562 -0.0226  0.2943  0.0795
11838W        W28312   1.596  14.140   2.108  0.2130  0.0771  0.2612
11839W        W28313   4.141   2.771  12.216  0.1164  0.0546 -0.3408
11840W        W28314  14.834  14.762   0.648 -0.1342 -0.3520  0.0424
11841W        W28315   4.086  18.298   2.308 -0.1422  0.2057 -0.0131
11842W        W28316   6.423  18.122  14.445  0.0579  0.2435 -0.0388
11843W        W28317   8.806   2.917   4.240  0.1195 -0.0489 -0.1117
11844W        W28318  14.083   8.538  13.520 -0.1280 -0.3471  0.1951
11845W        W28319   9.321   9.123   0.039 -0.0562 -0.4032 -0.1328
11846W        W28320  10.610  15.022   3.472  0.3456 -0.1320 -0.0769
11847W        W28321   3.901  11.485  12.164 -0.0104  0.0335 -0.2253
11848W        W28322   5.993  11.106  11.579  0.1774  0.1431 -0.0628
11849W        W28323  11.784  10.737   4.659  0.2570 -0.3718  0.0378
11850W        W28324  14.875  10.349   4.678 -0.2756  0.5301  0.1621
11851W        W28325  11.270   0.786   4.768 -0.4244 -0.4338  0.2023
11852W        W28326   1.217   2.727  12.015 -0.1964  0.0559 -0.0142
11853W        W28327  13.253  12.719  14.232  0.2588 -0.1006  0.1166
11854W        W28328   7.825  14.178   5.887  0.2728 -0.1257 -0.0153
11855W        W28329  17.814   8.880   2.863 -0.0479  0.2229  0.5219
11856W        W28330  10.052   7.773   0.813 -0.1482 -0.0990  0.0334
11857W        W28331  14.569   5.023  10.702 -0.1960  0.0882  0.2525
11858W        W28332   5.129  12.000  13.061  0.4109 -0.1389  0.5195
11859W        W28333   5.821  10.346   0.388  0.3150  0.1772 -0.1416
11860W        W28334   8.683   8.210  11.104  0.0387  0.3820 -0.1209
11861W        W28335   8.833   9.979   3.323  0.0784 -0.0313  0.0368
11862W        W28336   2.893   6.318   3.719  0.1989  0.0912  0.2270
11863W        W28337   0.425   3.320   1.704  0.2469 -0.0826 -0.3145
11864W        W28338  13.704  12.619   0.400  0.0547 -0.2211  0.0278
11865W        W28339  15.777   6.314   3.393 -0.3140  0.0150 -0.0426
11866W        W28340   1.420   0.235   5.921 -0.1711  0.0110 -0.1133
11867W        W28341   1.778   0.393  12.677 -0.1679 -0.0570 -0.0038
11868W        W28342   6.246   2.570   5.739  0.2118  0.0755 -0.3136
11869W        W28343   3.433  15.560  14.835 -0.0894  0.1295 -0.1097
11870W        W28344   7.758  13.760   0.888 -0.1180  0.2233  0.4453
11871W        W28345   5.402   0.662   5.165 -0.2930  0.1145  0.1101
11872W        W28346  13.236   7.402   1.790  0.2753 -0.2725  0.0326
11873W        W28347   1.366   8.165   3.994  0.3700  0.4668 -0.1375
11874W        W28348  18.035   5.527  15.491 -0.0600 -0.1329 -0.1800
11875W        W28349  12.894   7.873  14.168  0.0456  0.1180 -0.0514
11876W        W28350  14.380  11.638  14.139 -0.1628 -0.0743 -0.1400
11877W        W28351  11.471  10.225   3.328 -0.1336  0.2339  0.2741
11878W        W28352   4.443   9.501   1.351  0.1764 -0.5967  0.1826
11879W        W28353   9.718  10.502   5.582  0.2535 -0.4681  0.0582
11880W        W28354   5.698   6.786   2.631 -0.1513  0.0066  0.1546
11881W        W28355  14.508  12.291  16.025 -0.2605 -0.0164 -0.0888
11882W        W28356   5.103   8.884   5.906 -0.0910  0.1142 -0.1212
11883W        W28357   3.328   6.297   5.934  0.1255  0.2068  0.0349
11884W        W28358   6.647  10.951   2.103  0.1961 -0.0140 -0.0937
11885W        W28359  11.614  11.190   4.921 -0.0199  0.0612 -0.1241
11886W        W28360   2.020   2.585  15.353 -0.0979  0.4438  0.3645
11887W        W28361   8.835   5.558   0.399 -0.0086  0.1600  0.3274
11888W        W28362  15.197  10.990  11.183  0.1947 -0.0552  0.1631
11889W        W28363  13.347  15.326  11.362 -0.0408  0.0018  0.0123
11890W        W28364  15.879  14.109   2.217  0.5667 -0.1069  0.3462
11891W        W28365   3.174   3.367  11.244 -0.3586 -0.1996  0.0792
11892W        W28366  12.107   4.249   3.547 -0.0334  0.1929  0.2641
11893W        W28367   3.281   5.741   2.470 -0.3057 -0.1515 -0.1281
11894W        W28368   9.949   6.823   0.295 -0.0477 -0.1224  0.1894
11895W        W28369   5.807   0.813  11.595 -0.0319  0.1518  0.0491
11896W        W28370  15.632   8.339   4.115  0.0645  0.2411 -0.0294
11897W        W28371   1.048  15.488   3.613  0.1572 -0.0250 -0.1926
11898W        W28372   3.753  16.188  14.029 -0.1029  0.0188 -0.4457
11899W        W28373  17.192  12.059   0.591  0.2120  0.0645  0.4992
11900W        W28374  15.683  17.442   0.828  0.0914  0.0500 -0.4095
11901W        W28375  14.776  10.154  13.193  0.0343 -0.0054  0.0572
11902W        W28376   7.312   9.423   1.163 -0.2418 -0.0384 -0.1498
11903W        W28377   9.194  13.766  13.185  0.0945  0.0096 -0.1840
11904W        W28378   6.435   7.965  14.043  0.0792 -0.1563  0.3212
11905W        W28379  17.980   9.191   2.485 -0.2781 -0.0953 -0.0612
11906W        W28380   4.912  13.580  14.787 -0.1394 -0.0932 -0.2760
11907W        W28381   7.972  11.646   4.875  0.0866 -0.0417  0.0831
11908W        W28382   4.868  17.549  15.436  0.0133  0.1185 -0.2769
11909W        W28383  15.025   0.981   5.225 -0.0254 -0.2064 -0.2877
11910W        W28384  12.029  16.484  11.927 -0.1003  0.1847 -0.0639
11911W        W28385  10.757   9.126  12.710  0.0167  0.3169 -0.1702
11912W        W28386   0.652   7.289  13.325  0.0412 -0.1169  0.1782
11913W        W28387   9.613  10.232   0.986  0.0306 -0.0633 -0.1576
11914W        W28388   3.622   1.662   4.375 -0.2256  0.1413  0.2572
11915W        W28389   7.660   5.730  11.128 -0.1782  0.0624 -0.2879
11916W        W28390   1.719  16.547   2.151  0.0286 -0.2049 -0.1346
11917W        W28391   5.028  11.543   3.668  0.1971 -0.1245  0.1087
11918W        W28392  10.515   0.893   2.596  0.3665 -0.1450  0.4142
11919W        W28393   4.340   6.408   3.544  0.1248 -0.0639 -0.3248
11920W        W28394   4.285   9.428   5.309  0.2078  0.0666  0.1218
11921W        W28395  13.842  17.647  16.037  0.0071 -0.1981  0.1102
11922W        W28396  16.654   7.489  11.553  0.3391 -0.1422  0.1809
11923W        W28397   0.612   2.476   5.188 -0.0413  0.1631  0.0724
11924W        W28398  10.725   7.238  13.908  0.0898  0.1639  0.2035
11925W        W28399   1.796   6.459  15.512 -0.1051  0.1542  0.0103
11926W        W28400   9.085  12.055  12.372  0.2312 -0.1720  0.1431
11927W        W28401   4.553  17.508  11.803  0.4533  0.1166  0.1925
11928W        W28402   7.675   9.990  12.174 -0.0985 -0.1328  0.0995
11929W        W28403  10.242  15.597  15.766 -0.3744  0.2614  0.0823
11930W        W28404   9.140  12.576   5.159  0.0429  0.2091 -0.0740
11931W        W28405   4.480   5.516  15.914 -0.3075  0.0548 -0.2579
11932W        W28406   1.834  17.330  14.412 -0.1202  0.1061  0.1854
11933W        W28407   7.930   1.002  15.369  0.0525  0.4368  0.2652
11934W        W28408   2.001  12.113   5.932 -0.1958  0.2443  0.1676
11935W        W28409  14.613  17.990  14.572 -0.2736  0.0354  0.0251
11936W        W28410   7.650   0.395   4.109 -0.0903 -0.0287  0.1618
11937W        W28411  12.606   4.751   0.698 -0.1402  0.0685  0.1122
11938W        W28412   9.463  12.396  16.308 -0.0399 -0.0116  0.1981
11939W        W28413  15.621   3.052   0.201  0.0265 -0.4247  0.2340
11940W        W28414  12.180   9.835  13.794  0.2018  0.1839 -0.2591
11941W        W28415  11.192   7.998  11.744  0.3831 -0.0770 -0.0817
11942W        W28416   7.825   7.676   0.403 -0.3278 -0.0934 -0.0364
11943W        W28417   3.363  14.732  12.728 -0.1069  0.0260 -0.4246
11944W        W28418  12.452   9.898  14.222  0.1427  0.0787  0.3366
11945W        W28419   8.014   2.891   4.343 -0.0442  0.1375 -0.0387
11946W        W28420  12.460   5.697  11.734 -0.1363  0.1769 -0.1009
11947W        W28421   2.313   2.641   1.818  0.0345  0.4634  0.0191
11948W        W28422   1.613   9.858  14.318  0.1709 -0.0516 -0.1629
11949W        W28423  13.026  13.552   2.922 -0.0980 -0.1961 -0.1828
11950W        W28424   2.693   7.068   0.463 -0.0581 -0.1499 -0.1465
11951W        W28425  16.752  15.240  16.335 -0.1510 -0.1576 -0.0173
11952W        W28426   5.972   1.388   0.371  0.2755 -0.1645  0.1008
11953W        W28427   9.985   8.539   3.565 -0.0540  0.0958 -0.1972
11954W        W28428   2.208   0.024  15.480 -0.2790  0.0327 -0.1373
11955W        W28429   2.643  13.125   4.659  0.2586  0.0457  0.4028
11956W        W28430  10.277  15.065  13.201  0.0748 -0.0594  0.1458
11957W        W28431   2.332   4.341   3.172  0.2531  0.1323 -0.0697
11958W        W28432   3.610   8.120   0.424  0.0519  0.1536  0.0109
11959W        W28433   1.581  16.544   2.701 -0.1177  0.0882  0.2135
11960W        W28434  13.544  16.807  12.393  0.3421 -0.2881  0.2080
11961W        W28435   1.418   3.364   4.540  0.1617  0.2031 -0.0441
11962W        W28436   4.769   7.758  14.013 -0.3164 -0.1451 -0.0650
11963W        W28437   1.283  12.575  15.985  0.1756  0.4357  0.1634
11964W        W28438  16.756   2.046   3.810 -0.0720 -0.2734 -0.0134
11965W        W28439   1.936   1.389   5.677 -0.0561 -0.1147  0.3582
11966W        W28440   6.200  10.774  14.863  0.1379 -0.3888  0.1761
11967W        W28441   9.875  17.220   4.958 -0.2978 -0.4456 -0.0353
11968W        W28442  13.794  13.091  11.402  0.0169  0.2679 -0.0738
11969W        W28443  11.098  12.587  12.522 -0.3286  0.3215 -0.0625
11970W        W28444   3.987   4.640  13.443 -0.1793 -0.2127  0.3402
11971W        W28445   8.832  16.948  13.969 -0.0990  0.1029  0.0301
11972W        W28446   7.874  13.891   4.637  0.0230 -0.0676 -0.2810
11973W        W28447   6.104  12.958   1.251 -0.0845 -0.2481 -0.0170
11974W        W28448   4.326  17.361  13.681  0.0067 -0.0151  0.0855
11975W        W28449   5.525  12.795  11.616 -0.0258 -0.2039 -0.0649
11976W        W28450  16.002   3.603   0.431 -0.1185 -0.2949 -0.3020
11977W        W28451  15.303  10.888   0.896 -0.1410  0.0995  0.0031
11978W        W28452   8.445   4.923  14.057 -0.2073 -0.1657 -0.1991
11979W        W28453   5.959  14.895   0.093  0.1982 -0.1561  0.3535
11980W        W28454  11.389  12.208  12.827  0.1818 -0.2601  0.2584
11981W        W28455   4.682   2.142   1.882 -0.2039  0.1468  0.2453
11982W        W28456  10.674   5.954  12.245 -0.0461  0.1735 -0.1163
11983W        W28457   4.354  15.573  13.180 -0.0569  0.0544 -0.1303
11984W        W28458   9.363  10.225  11.085  0.2579  0.0731 -0.3480
11985W        W28459   3.539   2.563   5.137  0.0177  0.1416  0.0399
11986W        W28460   9.321  13.750   0.223  0.0669  0.4533 -0.2043
11987W        W28461   5.183   1.009  14.905  0.1307 -0.1792 -0.2391
11988W        W28462   4.856   6.374   2.583 -0.0299  0.0410  0.2063
11989W        W28463  13.873   3.274  12.778  0.1202  0.2175 -0.0039
11990W        W28464  10.980  13.682   5.298  0.0327  0.1134  0.0836
11991W        W28465  15.342   7.432  12.245  0.0449  0.0111 -0.0003
11992W        W28466   7.161   4.183  10.406 -0.1789 -0.1728 -0.0794
11993W        W28467   6.406  16.185   4.555  0.3633  0.1175 -0.0731
11994W        W28468  14.068   3.440  15.561  0.1095 -0.0735 -0.4148
11995W        W28469  17.374  16.726  12.309 -0.2495 -0.0333  0.0573
11996W        W28470  12.990  11.126   4.229 -0.1808  0.1800 -0.1229
11997W        W28471   5.190   7.453   3.618  0.4128 -0.4566  0.2495
11998W        W28472   7.949  16.563   3.783  0.1627 -0.2824 -0.0456
11999W        W28473  14.219   9.412   0.666  0.4147  0.1393  0.0382
12000W        W28474   3.038   8.258  12.728  0.0637 -0.2424  0.0122
12001W        W28475   6.921   0.510   2.814 -0.0020 -0.2705 -0.1811
12002W        W28476   8.311   6.525  11.403 -0.5015 -0.0077 -0.1681
12003W        W28477  10.309  18.142   1.623  0.4913 -0.2379  0.0940
12004W        W28478   8.648   3.799   4.707 -0.1807  0.0165  0.0769
12005W        W28479  17.013   9.904  10.611 -0.6097  0.1295 -0.0809
12006W        W28480  12.697   1.468   3.987  0.0565 -0.1048  0.1148
12007W        W28481   1.187   3.380   0.258 -0.0852  0.0416  0.1100
12008W        W28482   6.288  16.059   0.932 -0.2377  0.0738 -0.1188
12009W        W28483   1.082   9.985   3.745 -0.3750  0.0768  0.4290
12010W        W28484  16.722   1.704   5.389 -0.0264 -0.2878 -0.0263
12011W        W28485   6.328  15.708  12.050  0.0109 -0.2848  0.1547
12012W        W28486  13.650  13.703  12.196  0.4063  0.1177 -0.0630
12013W        W28487  15.628   1.166  12.639 -0.1621 -0.0993  0.0521
12014W        W28488   7.363  17.296   3.784 -0.1289  0.0458  0.3439
12015W        W28489  17.576   9.358  13.480 -0.0596  0.0404 -0.0941
12016W        W28490   6.606   3.345  16.214  0.0609  0.0503  0.3644
12017W        W28491  13.706  10.351  14.924 -0.0560  0.2014  0.2155
12018W        W28492   5.008  15.964   0.352  0.0764  0.1852  0.0964
12019W        W28493   3.127   9.352  14.605 -0.1211 -0.3657  0.2973
12020W        W28494  15.810  18.227  12.420 -0.2217 -0.0226  0.2627
12021W        W28495   0.508   9.784   3.958  0.2560 -0.1974 -0.0229
12022W        W28496  11.258  13.752   3.890 -0.0016  0.1207 -0.2541
12023W        W28497  15.917  11.985  10.083 -0.1363 -0.0543  0.2981
12024W        W28498   0.600  11.823   3.270 -0.1532  0.1587 -0.0218
12025W        W28499  15.550  11.720   0.136  0.3891  0.1638  0.0399
12026W        W28500  10.571   4.026  16.170 -0.2260 -0.0589 -0.0245
12027W        W28501   0.430  13.370  15.228  0.3166 -0.1483  0.3247
12028W        W28502  16.967   9.915   4.543  0.1927 -0.2441 -0.0731
12029W        W28503   8.777   0.219   2.685  0.0079 -0.1805 -0.0971
12030W        W28504  11.829   3.081  13.450 -0.1031 -0.2650  0.1093
12031W        W28505   5.622   6.273   2.799 -0.1314 -0.2115  0.0169
12032W        W28506   5.745  17.423   3.460  0.0133 -0.3104 -0.1433
12033W        W28507   2.989   3.505   1.169 -0.1800  0.0392  0.2181
12034W        W28508   2.887  14.502   3.693 -0.1729  0.1535 -0.3320
12035W        W28509   0.644  14.909   0.284  0.1649  0.0371  0.0198
12036W        W28510   8.697   5.223   2.122 -0.2143  0.0912  0.1235
12037W        W28511   0.020  16.822  12.675  0.0519  0.0783 -0.1051
12038W        W28512   3.842   2.937   4.525 -0.2292  0.0290  0.0100
12039W        W28513   3.625  10.979  15.017 -0.0753 -0.0361  0.1480
12040W        W28514   0.328   4.787   0.883  0.2513 -0.2382  0.2652
12041W        W28515  13.797   0.290   4.131  0.0536 -0.5026 -0.1560
12042W        W28516  11.630  18.374  13.025 -0.1383  0.3942 -0.0231
12043W        W28517  10.228  18.000  11.549 -0.1004 -0.0628 -0.1764
12044W        W28518   1.627   1.967  16.173  0.0658 -0.1504  0.0951
12045W        W28519   8.919  15.579   6.428  0.1216 -0.0873 -0.1631
12046W        W28520   4.515   8.046  12.864 -0.1381 -0.0568 -0.3106
12047W        W28521   9.334  16.470  12.960 -0.0344 -0.1721 -0.0639
12048W        W28522  15.189  10.326   5.689  0.2066  0.1609 -0.1682
12049W        W28523   4.969   7.768  12.853 -0.0740  0.1675  0.3277
12050W        W28524  17.226   5.655  11.009 -0.1283  0.0063  0.1604
12051W        W28525   2.671   6.498   1.337 -0.1220 -0.1841 -0.2330
12052W        W28526  11.393   4.114  11.223 -0.0632  0.0425  0.1605
12053W        W28527   5.441  17.158   1.851  0.1014  0.1785 -0.0850
12054W        W28528   3.392   8.516  15.389 -0.0678 -0.0644 -0.0852
12055W        W28529   8.624   6.003   1.621 -0.0579 -0.1303 -0.1543
12056W        W28530   3.950   4.172  12.340  0.2646  0.1433  0.0081
12057W        W28531   1.943  14.990   3.672 -0.0034  0.0916 -0.1984
12058W        W28532  15.971  12.547  15.644  0.0265  0.0146 -0.1662
12059W        W28533   1.795   6.127   3.873 -0.1625  0.1529  0.1283
12060W        W28534   1.293  11.767   0.785  0.0921  0.0967  0.0263
12061W        W28535  14.388  13.642  12.745 -0.1022 -0.2351  0.1866
12062W        W28536  18.351   1.150  11.770 -0.0255  0.0767  0.2552
12063W        W28537  17.212   9.683   2.976 -0.2570 -0.1877  0.3188
12064W        W28538  11.131  13.828  15.911 -0.0377 -0.0094 -0.1508
12065W        W28539  11.968  17.014  11.943  0.0847  0.0379 -0.2337
12066W        W28540   8.294   2.735  16.326 -0.1192 -0.0739 -0.1274
12067W        W28541  18.245   9.583  14.444 -0.1253 -0.1631  0.1655
12068W        W28542   5.700   8.763  14.874  0.0637 -0.0033 -0.2761
12069W        W28543   4.463   3.860  14.056  0.1487  0.1295  0.1001
12070W        W28544   3.480  14.107   0.218  0.1360 -0.0075  0.3484
12071W        W28545   1.529  15.237   4.573 -0.1832  0.2533 -0.2445
12072W        W28546  12.666  14.930   0.537  0.0099 -0.2103  0.1690
12073W        W28547   6.458   3.001  15.930  0.0577 -0.2109  0.1308
12074W        W28548   8.392   7.045  10.048 -0.0567  0.1209  0.0659
12075W        W28549  18.006   0.840   4.213  0.1460 -0.2142  0.0389
12076W        W28550  14.804  17.037   0.269 -0.0766  0.1284 -0.2523
12077W        W28551  11.140   7.355  14.212  0.1581 -0.0672 -0.0227
12078W        W28552   0.422   3.441   0.926 -0.0135 -0.0064  0.1441
12079W        W28553   7.758   8.377  14.418  0.0386 -0.0381 -0.0828
12080W        W28554   9.662  13.341   0.296  0.1020 -0.1100 -0.2051
12081W        W28555   4.722   0.677  15.581  0.0529 -0.2634  0.0597
12082W        W28556   4.390   1.326  13.846 -0.2064 -0.1541 -0.0391
12083W        W28557   9.889  15.189  14.015  0.0441 -0.1598 -0.0627
12084W        W28558  16.459  17.034  11.880  0.1930 -0.1976 -0.2887
12085W        W28559  15.299   1.371   3.137 -0.1773 -0.1763  0.1804
12086W        W28560   1.929   6.859   3.199 -0.1770 -0.1033 -0.1101
12087W        W28561   9.371  12.933  13.224 -0.3149  0.0444 -0.2840
12088W        W28562   5.871  16.646   3.726 -0.1805  0.2191 -0.1450
12089W        W28563  12.787   2.877   4.491  0.3129  0.0568 -0.1717
12090W        W28564   9.180   4.348   4.985  0.4107 -0.0974  0.1472
12091W        W28565   9.049  10.623  14.227 -0.0209  0.3635  0.0522
12092W        W28566  10.515   5.828   1.079  0.1312 -0.0385 -0.1580
12093W        W28567  14.368  18.360  14.735  0.1980 -0.1182 -0.0444
12094W        W28568  11.105   9.220   3.995 -0.0585 -0.2096 -0.1593
12095W        W28569  17.257   3.512  13.518 -0.2337 -0.1780  0.0824
12096W        W28570  15.831  10.037  14.248  0.2664  0.0699  0.2191
12097W        W28571  10.726  14.293  14.074 -0.0582 -0.0998 -0.1867
12098W        W28572   6.092  13.515   4.330 -0.1273  0.2826  0.2681
12099W        W28573  16.025   5.261   0.768 -0.0813 -0.0150  0.0209
12100W        W28574   3.248  11.046   3.848 -0.3710 -0.1714 -0.0168
12101W        W28575  10.952  13.042   0.172  0.0544 -0.2432 -0.1162
12102W        W28576   9.089  17.527   5.569 -0.2630  0.1530 -0.0225
12103W        W28577   2.120   7.820   2.054 -0.2223  0.1713  0.1796
12104W        W28578   9.241   6.746  15.821 -0.0665 -0.0697  0.0876
12105W        W28579   3.794   0.197   1.445  0.0729  0.0175 -0.1275
12106W        W28580   4.994   3.636  12.653 -0.1101  0.1448 -0.2088
12107W        W28581   6.649  18.298   0.415 -0.0624 -0.3226 -0.0398
12108W        W28582   6.142   1.748  13.586 -0.0953 -0.2831  0.2261
12109W        W28583  16.907   7.135   3.856  0.0160  0.2211 -0.1495
12110W        W28584  12.010   6.118   2.262  0.0726 -0.0484 -0.3045
12111W        W28585   7.155  13.946   3.235  0.1318  0.0008  0.0630
12112W        W28586   5.491  11.806   1.631  0.0894  0.0783 -0.0436
12113W        W28587   6.909  15.842   1.466 -0.1723  0.1971 -0.3557
12114W        W28588   9.627   3.514   0.068 -0.2066  0.0427 -0.1035
12115W        W28589  11.960  17.226  15.418 -0.1798 -0.1076 -0.1255
12116W        W28590   6.867   6.371   1.523 -0.1523 -0.0628 -0.0738
12117W        W28591   7.135  14.245   0.569 -0.1706 -0.0128  0.1367
12118W        W28592   7.966   4.234  10.996  0.1163 -0.0133 -0.1503
12119W        W28593   8.449  10.627   2.004  0.2390 -0.0301 -0.2531
12120W        W28594   8.005  15.664  11.686  0.2339 -0.0605 -0.0697
12121W        W28595   9.791  15.527  15.967  0.2232  0.0941  0.3026
12122W        W28596  14.682   7.794   3.652  0.1223 -0.0868 -0.0944
12123W        W28597   9.249  15.415   2.365  0.0501 -0.1598  0.0273
12124W        W28598  16.527  18.188   0.659  0.0652 -0.0181 -0.0476
12125W        W28599   3.198   4.928  12.414 -0.0918  0.1763  0.2319
12126W        W28600   8.191  14.339  15.134  0.1001  0.0472 -0.1377
12127W        W28601   5.797  13.321   4.887 -0.3376 -0.1217 -0.1370
12128W        W28602   1.661   1.865   0.328 -0.0106  0.0157 -0.2182
12129W        W28603  16.671   2.467  15.674 -0.0576 -0.0748 -0.2339
12130W        W28604   9.964  11.517  13.859 -0.0037  0.2201 -0.1473
12131W        W28605  15.465  11.392  15.597 -0.0055  0.3352 -0.2829
12132W        W28606  11.858   0.730  11.789  0.1113  0.1476  0.0500
12133W        W28607  10.026  17.387   1.524 -0.1163  0.3404 -0.0244
12134W        W28608  17.170  12.703   2.538 -0.1860  0.2263 -0.3090
12135W        W28609  14.636   7.061   2.280 -0.2300  0.0478  0.1262
12136W        W28610  16.223   3.135  11.997 -0.2964 -0.5115  0.1468
12137W        W28611   5.104   9.124   4.837 -0.1366  0.1253 -0.0755
12138W        W28612  10.266   6.355   3.499 -0.0787 -0.1629  0.2302
12139W        W28613  14.034  12.817   4.446 -0.1850  0.1259 -0.0296
12140W        W28614   9.608  18.327   0.010  0.3400 -0.1873  0.1060
12141W        W28615   5.220  11.617   0.484 -0.1904  0.0413  0.1300
12142W        W28616  16.889   3.749   0.186  0.1105 -0.3335 -0.0226
12143W        W28617   4.767  15.297   1.171 -0.2961  0.0291  0.0441
12144W        W28618  15.067   8.915  15.436 -0.0323 -0.2153  0.0581
12145W        W28619   1.233   7.698  11.492 -0.1383  0.0928  0.2010
12146W        W28620   2.640   2.374  12.156 -0.3364  0.0863  0.1886
12147W        W28621  13.643  13.382   1.674  0.2110 -0.0105  0.0005
12148W        W28622  11.050   8.944   4.600  0.2303  0.3277  0.0013
12149W        W28623  16.811   8.801   2.914 -0.0621 -0.1839  0.0144
12150W        W28624  16.427  16.848   6.619 -0.0228  0.2402 -0.1633
12151W        W28625  10.444  11.301   4.193  0.1829  0.0046 -0.2528
12152W        W28626   8.369  14.353   0.431 -0.0517 -0.0161  0.0098
12153W        W28627   3.413   3.045  12.866  0.0000  0.0604 -0.0056
12154W        W28628  18.058  17.964  14.899 -0.1022  0.0080 -0.2087
12155W        W28629  10.929  13.630  15.402  0.1002 -0.2526  0.0568
12156W        W28630   8.851  17.335  13.013  0.1435  0.0811  0.1501
12157W        W28631  11.435  10.233  12.570 -0.1997 -0.0069  0.1066
12158W        W28632  14.477  16.004   1.030 -0.0654 -0.1104  0.1279
12159W        W28633   6.654  14.024  14.162 -0.0573  0.2179  0.0227
12160W        W28634   6.792   9.583  13.517 -0.1576  0.1498  0.1492
12161W        W28635  15.067   0.021   3.370 -0.0835  0.1592  0.0042
12162W        W28636   7.218  11.448   0.352 -0.0733 -0.0757  0.1170
12163W        W28637  15.636  17.650  15.536 -0.0003 -0.1279 -0.2286
12164W        W28638  13.517  11.885   1.056 -0.1250  0.0462 -0.0315
12165W        W28639   5.740   2.192  16.126 -0.2006  0.0583 -0.0968
12166W        W28640  12.576  14.127  12.146  0.1388 -0.1524  0.0646
12167W        W28641   5.078   9.631  11.667  0.2097 -0.1036 -0.0126
12168W        W28642   7.832  11.563   0.547 -0.0185  0.1868  0.2663
12169W        W28643  13.689  16.373   3.551 -0.0892 -0.1476 -0.0637
12170W        W28644  17.550   3.342   4.175 -0.2533  0.1543  0.0410
12171W        W28645   5.543  17.545   0.510 -0.1220  0.1941 -0.0862
12172W        W28646   0.395  10.475   5.528 -0.1385  0.0503 -0.1033
12173W        W28647  11.310   3.603  14.041 -0.0154 -0.3081  0.2436
12174W        W28648  10.556  14.910   5.148  0.0735  0.0121 -0.0582
12175W        W28649  13.553   9.520  16.152  0.3350  0.0185  0.0831
12176W        W28650  15.763   6.144  14.898 -0.0863  0.1245 -0.3305
12177W        W28651   7.210   0.275   5.857  0.2371  0.3044  0.0321
12178W        W28652   8.417  13.670   4.283 -0.3440  0.0835  0.0335
12179W        W28653  18.112  14.365  15.450 -0.5024  0.4894  0.0096
12180W        W28654   5.499   1.058  12.400 -0.2016 -0.2558 -0.1846
12181W        W28655   8.202  12.938   1.292  0.0447  0.0203  0.4376
12182W        W28656  17.538   0.793  15.899 -0.1127  0.1328  0.2338
12183W        W28657   1.811   3.192  14.666 -0.1700  0.1550 -0.1043
12184W        W28658   5.522  11.019  15.184  0.1536 -0.2246 -0.2861
12185W        W28659  12.634  14.358  15.506  0.2914  0.0411  0.2305
12186W        W28660   0.758   7.583  15.043 -0.0501  0.1655 -0.1184
12187W        W28661  14.522   7.793  13.855  0.2301 -0.4704  0.0718
12188W        W28662   6.476  13.521   2.491  0.2290  0.0927  0.0119
12189W        W28663  15.776  12.038  13.483  0.0098  0.1516 -0.0564
12190W        W28664  16.749   4.669  16.253 -0.1406 -0.0298  0.0542
12191W        W28665  11.624   0.219  14.506  0.1461  0.1415 -0.0921
12192W        W28666   9.771   1.821  14.343  0.2937 -0.0945  0.1296
12193W        W28667   2.227  14.386  15.372  0.1551  0.0489  0.1815
12194W        W28668   9.168   4.134  14.568  0.0903  0.1164  0.1761
12195W        W28669  17.761  10.901   3.153 -0.0507  0.1981 -0.0020
12196W        W28670  16.811   5.380   4.314 -0.1289  0.2908  0.0095
12197W        W28671   2.355   7.911  13.967 -0.0608  0.2159 -0.2325
12198W        W28672   6.299  10.294   2.823 -0.2445 -0.2479  0.0941
12199W        W28673  17.884   3.459   4.741 -0.0783  0.0530 -0.0235
12200W        W28674  10.803   6.730  13.829  0.0844  0.0534 -0.1205
12201W        W28675  16.968  14.706   0.261 -0.1414  0.2878  0.1483
12202W        W28676  11.378  16.975  14.107 -0.1085 -0.2514  0.0665
12203W        W28677   2.499   9.275   4.430  0.0595 -0.0257  0.1847
12204W        W28678   4.632   0.641   2.964 -0.1836  0.0698 -0.3334
12205W        W28679   1.256   4.446   3.340  0.0486 -0.0141  0.1215
12206W        W28680   5.786   7.177   2.005  0.1791 -0.2577  0.2617
12207W        W28681  16.523   8.369  14.423 -0.2091  0.1434 -0.1450
12208W        W28682  18.015  14.619   1.381  0.0394 -0.2064  0.1888
12209W        W28683  18.306  13.210   0.418 -0.1601 -0.0366 -0.1436
12210W        W28684   8.496  13.185  15.577  0.0645  0.2011 -0.2391
12211W        W28685  13.704  12.885   2.438 -0.0154  0.0377  0.0115
12212W        W28686  17.322   9.769  14.877 -0.2724 -0.0980  0.0577
12213W        W28687  14.447   3.874  11.005 -0.0093 -0.2307  0.0500
12214W        W28688  15.002   7.723  12.041 -0.3009  0.0834 -0.1280
12215W        W28689  15.958  10.845  16.251  0.2006 -0.0948 -0.0750
12216W        W28690  14.756  17.465  12.258 -0.2921 -0.3553 -0.2515
12217W        W28691  15.380  17.292   1.255 -0.1922  0.0641  0.5157
12218W        W28692   7.634   4.313   4.799 -0.0607 -0.0787  0.1805
12219W        W28693   6.417   8.795   0.658  0.0107  0.0039  0.0624
12220W        W28694  11.867  10.181  11.084  0.0302 -0.0971  0.1308
12221W        W28695  14.568   6.836   3.848  0.1736 -0.0197 -0.0631
12222W        W28696  17.388   2.326  12.625 -0.2048  0.0836 -0.2138
12223W        W28697  14.315   5.979  11.024  0.4082  0.1072 -0.4759
12224W        W28698  16.241   1.839   5.110 -0.1270  0.0959  0.0577
12225W        W28699   2.435  16.425  15.293 -0.1026 -0.1628 -0.0765
12226W        W28700   6.548   5.010   6.049 -0.2755 -0.0434 -0.0090
12227W        W28701   7.362   0.159   5.183 -0.1337  0.1134  0.1605
12228W        W28702  16.632   8.100   5.005  0.3911  0.0863 -0.1441
12229W        W28703   2.841   0.410   5.345 -0.0699 -0.3269 -0.0952
12230W        W28704  12.929  13.453   3.924 -0.0163 -0.0841 -0.1670
12231W        W28705   8.665  14.378  16.246  0.0422  0.2152 -0.0088
12232W        W28706  16.121  12.543  11.130  0.0562  0.0049  0.1742
12233W        W28707  17.690   3.126  13.067 -0.0827  0.1911  0.3297
12234W        W28708  17.176  11.645   2.361 -0.2740  0.0824 -0.3341
12235W        W28709   7.963   6.483   1.318 -0.0171  0.0108  0.0769
12236W        W28710   6.846  11.375   3.693  0.0432  0.2720  0.1442
12237W        W28711  15.506   7.770   4.213  0.2311 -0.0023 -0.0889
12238W        W28712   3.297  14.343   3.950 -0.0806 -0.0213  0.1226
12239W        W28713  16.409   5.739  12.893  0.3140  0.2981 -0.2794
12240W        W28714   9.481   0.336   6.002 -0.0251  0.2019 -0.2268
12241W        W28715  15.413   9.560   4.520 -0.1610 -0.1682  0.0494
12242W        W28716   2.138   9.924   2.153  0.3205  0.0573  0.1383
12243W        W28717  12.854  17.266   0.811 -0.1517 -0.1631 -0.2290
12244W        W28718  12.636  14.600  13.548 -0.0618  0.1495 -0.4722
12245W        W28719   6.443  13.306  13.449  0.1482 -0.1676  0.0121
12246W        W28720  16.306  15.021  16.036  0.0790  0.1145  0.2339
12247W        W28721  18.074   6.695   3.599 -0.0951 -0.4990 -0.3301
12248W        W28722   0.760   5.585   3.749  0.0835  0.0867 -0.2066
12249W        W28723  17.438  10.090   3.751  0.0303  0.0502  0.0415
12250W        W28724  13.883   8.429  11.810  0.0700 -0.0674  0.0696
12251W        W28725  16.739  15.133  12.479 -0.1335  0.0676  0.1314
12252W        W28726  14.178  16.704   6.037  0.2027 -0.2321 -0.3686
12253W        W28727   6.771   8.209   5.062 -0.0703  0.2803  0.3292
12254W        W28728   2.014   8.762   2.275  0.0780  0.1733  0.0563
12255W        W28729  15.759   7.175   1.516  0.1631  0.2035 -0.2286
12256W        W28730  12.934  17.989  16.059  0.0438 -0.2463  0.0621
12257W        W28731  17.773   8.425  14.965  0.0129  0.0104  0.0012
12258W        W28732   4.759   8.264   4.288  0.0376  0.1451 -0.0851
12259W        W28733   3.124   5.657  13.289 -0.0088  0.3768  0.1843
12260W        W28734   4.720  10.443  15.157  0.1526 -0.1230 -0.3235
12261W        W28735  16.732   7.306  15.791  0.1617  0.0165  0.1082
12262W        W28736  10.868   7.354  12.325 -0.0275  0.2821  0.4393
12263W        W28737   1.049  12.518   1.283  0.1296 -0.1635  0.3925
12264W        W28738  11.121  12.169  11.634  0.0042 -0.2597 -0.1499
12265W        W28739   7.972   2.872   5.840 -0.1111 -0.0669 -0.0987
12266W        W28740  10.338  12.143  16.208 -0.1062 -0.1683 -0.0366
12267W        W28741   9.257  17.647   2.478  0.1034  0.1542  0.2003
12268W        W28742  11.811   3.892   4.261 -0.2428  0.2098  0.2611
12269W        W28743  12.985  10.581   2.468 -0.1297  0.2409  0.1558
12270W        W28744   9.001  11.981   2.013  0.0584  0.2575 -0.0641
12271W        W28745   6.610   1.791  12.261  0.1070 -0.0043 -0.0310
12272W        W28746  12.027   5.989  16.239  0.0404  0.0308  0.3528
12273W        W28747   7.917   4.066   4.369 -0.0441 -0.0590 -0.0918
12274W        W28748   7.009   2.776  11.742  0.0575  0.1592  0.2727
12275W        W28749  10.759   8.147   0.753 -0.0510 -0.1801 -0.0339
12276W        W28750   0.241   6.935   4.707  0.1090  0.2393  0.2171
12277W        W28751   8.386  11.371   4.720 -0.1607 -0.2153 -0.2964
12278W        W28752   2.405  10.614   2.795  0.1140 -0.1683 -0.0828
12279W        W28753  14.333   1.362   5.612 -0.0445 -0.0138  0.2966
12280W        W28754  17.218   2.750  11.966  0.0949  0.2111  0.0679
12281W        W28755   5.277   6.107  13.616  0.1033 -0.1095 -0.0070
12282W        W28756  13.942  17.513   1.067 -0.0338 -0.0108 -0.1094
12283W        W28757   1.173   1.029   4.594  0.0934 -0.0279  0.2046
12284W        W28758  16.201  11.104  14.073 -0.1549  0.0848 -0.2179
12285W        W28759   9.782  11.897  11.783  0.1673  0.1573  0.3330
12286W        W28760   2.887   6.582  13.077 -0.1239  0.1673  0.0230
12287W        W28761  12.820   0.904   6.074 -0.0418  0.0224  0.0043
12288W        W28762   5.222  15.482   1.849 -0.1112 -0.0283  0.2084
12289W        W28763  14.874   0.894  15.453 -0.2899 -0.0602  0.2802
12290W        W28764  11.889   2.120   1.707  0.2454  0.0343 -0.1177
12291W        W28765   0.230  11.471   2.581 -0.0589 -0.1548 -0.1318
12292W        W28766  11.924   7.218   1.140  0.0029 -0.1823  0.1019
12293W        W28767  12.860  17.207   5.625  0.2179  0.0225  0.1832
12294W        W28768  10.142  15.001  14.472 -0.0886 -0.0912 -0.0589
12295W        W28769   5.143   9.926   0.811 -0.0685  0.0361  0.2762
12296W        W28770   7.290   7.468  12.923  0.2783 -0.1459 -0.3141
12297W        W28771   4.789   6.211  14.224 -0.0977 -0.0946  0.2156
12298W        W28772  13.362  12.315   0.033  0.2740  0.1817 -0.1619
12299W        W28773   7.832   2.260   0.633 -0.0312  0.1843  0.0492
12300W        W28774  11.968  15.173   3.004 -0.3123 -0.0217  0.3029
12301W        W28775   1.508  18.134  14.797  0.0976  0.3880 -0.1687
12302W        W28776   7.688  12.908  14.041  0.0122 -0.2850 -0.1227
12303W        W28777   4.123   5.321  11.923 -0.1153 -0.0047 -0.2127
12304W        W28778  18.262  14.831  11.091  0.7058 -0.1073 -0.1237
12305W        W28779   4.481   5.967   1.269  0.1012 -0.0916 -0.1019
12306W        W28780   7.237  14.647   5.404 -0.2610  0.0506 -0.0296
12307W        W28781   4.207   5.610   2.192  0.1417  0.0731 -0.1984
12308W        W28782  10.724   4.492  15.321 -0.0908  0.0577  0.1116
12309W        W28783  11.080  10.527   1.090 -0.3258 -0.2396  0.0429
12310W        W28784  13.104  13.462  12.065 -0.0738 -0.2233  0.1515
12311W        W28785   6.156   2.782  15.501 -0.3692  0.3855  0.0723
12312W        W28786  11.227   5.984  12.353  0.2243  0.0395  0.3815
12313W        W28787  12.405   7.809  14.094 -0.3382 -0.0140  0.0865
12314W        W28788  14.047  12.826  10.904  0.0013 -0.1614  0.0072
12315W        W28789   5.956   7.872  12.521 -0.0160 -0.0808  0.1643
12316W        W28790   9.065   8.226   3.624  0.0436 -0.2040  0.0389
12317W        W28791  14.520  13.240   2.120 -0.1580 -0.1936  0.1251
12318W        W28792   4.395  10.598   3.441  0.1760  0.1053 -0.1133
12319W        W28793  11.808  11.487   4.323 -0.2019  0.1665  0.0639
12320W        W28794  16.608   0.477   0.639 -0.0937  0.0252  0.1584
12321W        W28795   2.883  16.688  16.261  0.0830  0.0688  0.0139
12322W        W28796   5.111   7.371  11.524  0.0081  0.3012 -0.3800
12323W        W28797  12.422  15.781   1.176  0.1148 -0.0402  0.0223
12324W        W28798  13.885   9.824   2.323  0.2869  0.1149 -0.0873
12325W        W28799  10.976   4.880  12.512 -0.1479 -0.1933 -0.1840
12326W        W28800  12.528  15.857   3.698 -0.1630 -0.1408 -0.1496
12327W        W28801   1.952   4.531   1.237 -0.2893 -0.1382  0.2927
12328W        W28802  14.348   1.944  11.985  0.0499  0.0961  0.1642
12329W        W28803  18.073   1.449  12.984 -0.1863 -0.1654  0.0677
12330W        W28804  14.332   2.421  14.576 -0.0353 -0.2010  0.4016
12331W        W28805   6.644   5.148   0.785 -0.1483  0.1090  0.1941
12332W        W28806   8.539  10.477  11.161 -0.1737  0.4971 -0.0712
12333W        W28807   6.127  12.514  14.097 -0.4581 -0.2895 -0.1930
12334W        W28808  10.085   7.489  12.673  0.3115 -0.0292 -0.1523
12335W        W28809   8.962  10.336  11.489 -0.1258  0.0016  0.1779
12336W        W28810   0.718   9.138  13.513 -0.1793 -0.1654  0.2193
12337W        W28811  16.770  12.614  14.924 -0.1517 -0.2070 -0.0563
12338W        W28812  13.021  10.853   0.649  0.3109  0.1184  0.0738
12339W        W28813   8.488   4.760  14.607  0.0940  0.2339  0.3685
12340W        W28814   6.283   1.293  13.375 -0.1320  0.1192 -0.0672
12341W        W28815   7.019  17.892  13.764  0.1688  0.0677 -0.1639
12342W        W28816  16.932  15.861   0.969 -0.2228 -0.0324  0.1925
12343W        W28817   6.103   2.209   1.685  0.0882 -0.3340  0.2347
12344W        W28818  17.932  17.278  15.094 -0.3185  0.0698  0.1898
12345W        W28819   2.389   6.705   1.716 -0.0143  0.1527  0.2148
12346W        W28820   4.576  12.623  14.296 -0.0099  0.0746 -0.4477
12347W        W28821   2.412   1.585  15.020 -0.2586  0.0934  0.3032
12348W        W28822   5.602  15.518  13.963 -0.0110  0.0488 -0.3514
12349W        W28823   3.456  16.081   0.422  0.0203  0.0115 -0.3207
12350W        W28824  17.954   5.847  12.900 -0.0760 -0.0685  0.1561
12351W        W28825  10.623  15.024  15.196 -0.4898  0.2309 -0.1396
12352W        W28826   7.163  12.640   4.999 -0.0865 -0.1370 -0.0554
12353W        W28827   3.295  15.056  15.208  0.0412 -0.0603  0.3418
12354W        W28828   0.220   4.845  13.433 -0.2273  0.0672 -0.3253
12355W        W28829  16.488   2.619   0.672  0.0054  0.3626  0.0416
12356W        W28830  16.007   2.583  12.577 -0.0959  0.0345  0.0312
12357W        W28831   6.463  14.367   4.496  0.1149  0.1569  0.2971
12358W        W28832  13.933  16.032  12.467  0.0285 -0.3305  0.2956
12359W        W28833   5.725   4.105  15.536  0.1857 -0.3080 -0.1023
12360W        W28834   7.541   4.848  13.159 -0.2496 -0.0585  0.1710
12361W        W28835   3.530   4.023   1.713  0.1006 -0.0083  0.3010
12362W        W28836   7.885   1.136   1.355  0.1187 -0.2244 -0.0298
12363W        W28837  16.095   8.214   3.316 -0.1142 -0.1318 -0.1509
12364W        W28838   0.767   7.158   4.418 -0.2101 -0.2004 -0.4591
12365W        W28839  18.268   7.392   2.377  0.0289  0.0323  0.2464
12366W        W28840   8.383  12.107   4.119  0.0010  0.2764 -0.4135
12367W        W28841  17.167   0.748   2.752  0.1130 -0.0395 -0.2072
12368W        W28842   7.506   5.024  13.598 -0.2987 -0.1877 -0.4594
12369W        W28843  18.093  13.312   3.317  0.1587  0.3326  0.0184
12370W        W28844  14.744  16.650   1.615 -0.1628 -0.2521 -0.1788
12371W        W28845   9.363   2.018  13.962 -0.2518  0.2222  0.0914
12372W        W28846   3.571  15.957  16.315  0.2834  0.3238  0.0654
12373W        W28847   2.398  13.794   5.268  0.0912 -0.0970  0.2467
12374W        W28848  13.225  14.439   5.048  0.2273  0.2544  0.0288
12375W        W28849   3.374   2.618  14.128  0.1347 -0.0592  0.1130
12376W        W28850  13.958   6.626  11.827 -0.1557 -0.1385 -0.2512
12377W        W28851  15.780   1.928  15.915  0.3269  0.0741  0.1348
12378W        W28852   4.526   3.648  12.792  0.0828  0.0154 -0.0019
12379W        W28853   9.545   5.131   3.265  0.1868 -0.0049  0.3146
12380W        W28854   7.679  12.090  10.727  0.0034  0.0282  0.0894
12381W        W28855   0.051   8.561   4.411 -0.2132 -0.0887  0.0942
12382W        W28856  17.862  13.517   0.376 -0.0618  0.1088  0.2454
12383W        W28857  15.332  17.802   0.525 -0.0156  0.0036 -0.1993
12384W        W28858   0.070   9.742  15.906  0.0038 -0.1668  0.1406
12385W        W28859  14.753  15.302   3.005  0.1863 -0.3859 -0.3910
12386W        W28860  18.135   4.983   2.767 -0.0806 -0.0005 -0.0590
12387W        W28861   7.475   0.222  12.807  0.1013 -0.1229  0.1837
12388W        W28862   8.305   9.585   9.855 -0.0379 -0.2461 -0.0137
12389W        W28863   0.675  18.136   1.839 -0.1253 -0.0845  0.1136
12390W        W28864   9.114  16.921  14.817  0.1794  0.1035 -0.6458
12391W        W28865   1.803  13.185   1.987  0.0659 -0.2959 -0.1808
12392W        W28866  15.813  11.552   4.793 -0.1741  0.0328 -0.0169
12393W        W28867  10.872  10.865   2.879 -0.1030 -0.1125  0.1597
12394W        W28868   5.639   8.541   0.097  0.1597 -0.2833  0.2585
12395W        W28869  10.412  11.961  12.333 -0.0102 -0.0331  0.2179
12396W        W28870  15.516  18.202  15.634 -0.0120 -0.1063  0.1962
12397W        W28871  17.901   1.131  14.525 -0.4935 -0.4554 -0.1335
12398W        W28872  14.944   3.879   5.332 -0.0905 -0.0670  0.0136
12399W        W28873   3.913   3.911   4.489 -0.1678  0.1420 -0.4222
12400W        W28874   7.497  11.165   2.035  0.1617  0.2500  0.1411
12401W        W28875  15.721  15.323   3.265 -0.2101  0.0860 -0.2552
12402W        W28876  18.172  10.854  13.504  0.2440 -0.0875  0.0056
12403W        W28877  15.261   7.830   5.851  0.1746 -0.0686  0.3091
12404W        W28878   5.889   4.684  12.118  0.2728  0.0130  0.2563
12405W        W28879  12.962  13.296   3.415  0.0524  0.1274 -0.0659
12406W        W28880   2.862  14.674   1.556  0.0724  0.1627  0.1473
12407W        W28881  11.242  13.198   3.284 -0.0066  0.1480 -0.0219
12408W        W28882   1.892  14.465   3.673 -0.1383 -0.0872  0.1915
12409W        W28883  16.195  13.547   4.578 -0.0080 -0.1432 -0.0297
12410W        W28884  17.370   7.236  12.057  0.0978 -0.0671  0.4288
12411W        W28885  15.504  11.429  14.233  0.2230  0.2250  0.2787
12412W        W28886  10.585  16.172   5.416 -0.2177 -0.2434  0.0713
12413W        W28887  12.265   5.398   5.081  0.1267 -0.3902 -0.0695
12414W        W28888   4.930  14.715   2.435  0.0908  0.2184  0.2480
12415W        W28889   1.359  14.267   3.977 -0.1491 -0.0885 -0.0572
12416W        W28890   6.476   5.358   3.212  0.3116  0.2103  0.2202
12417W        W28891   3.705  14.919   3.620 -0.0366 -0.5143 -0.2591
12418W        W28892   3.702   5.279   1.273 -0.1495 -0.1774  0.1547
12419W        W28893   4.038   7.276   1.558 -0.0634  0.0833 -0.1109
12420W        W28894  15.434  13.933   1.974 -0.4697 -0.2292 -0.3331
12421W        W28895   7.633   9.182   1.554  0.0713 -0.3035 -0.0431
12422W        W28896   4.568   4.058  12.420  0.0727 -0.0976  0.0166
12423W        W28897   2.584  16.034  13.535 -0.1733 -0.2852 -0.1624
12424W        W28898   3.556   9.102  15.966  0.2450  0.3214 -0.0122
12425W        W28899  17.899   7.852  13.347  0.2070 -0.1809  0.0937
12426W        W28900  10.784  14.180  16.146 -0.0768 -0.3440 -0.1360
12427W        W28901   2.459  16.571   0.206 -0.2419  0.5946  0.0789
12428W        W28902   6.409  11.157  11.298  0.2948  0.2544  0.4856
12429W        W28903   9.986   1.351   3.545  0.1663 -0.1830  0.0413
12430W        W28904  13.485  12.972   1.302 -0.1941 -0.2563 -0.0934
12431W        W28905   2.225   2.391   2.768  0.2136 -0.1426 -0.0653
12432W        W28906   8.093  15.546   0.427  0.2548  0.1793  0.1064
12433W        W28907   3.673  15.293  14.435 -0.0812  0.2494  0.0819
12434W        W28908  12.979   8.538   3.424  0.1969  0.0212 -0.0325
12435W        W28909  11.291   8.731  13.399  0.1008  0.1705 -0.1892
12436W        W28910   2.455   2.155   1.880 -0.0055  0.2155  0.0595
12437W        W28911  12.511  10.825   2.458  0.1292  0.2185 -0.2166
12438W        W28912   9.262   5.022  13.146 -0.1055  0.0662 -0.1459
12439W        W28913   1.497  12.662   2.128  0.2179  0.0287  0.1726
12440W        W28914  11.160  10.581   0.268 -0.0258  0.0385 -0.0677
12441W        W28915  14.908   9.142  12.663  0.0774  0.0538  0.0355
12442W        W28916  15.764  11.138  12.142  0.3639 -0.0151 -0.2530
12443W        W28917   6.550   7.109  14.897  0.0612 -0.2659  0.0300
12444W        W28918   3.441  15.434  12.150 -0.3644 -0.2507 -0.1377
12445W        W28919   4.628   2.477  14.571  0.0121 -0.1211  0.1121
12446W        W28920   2.707   9.297   5.215  0.1242  0.0962 -0.1045
12447W        W28921  13.088   4.445   2.577  0.2420  0.0533  0.2509
12448W        W28922   6.625  16.708  14.505 -0.0310  0.0437  0.2378
12449W        W28923  11.619   0.169   2.119  0.1992 -0.2750  0.0191
12450W        W28924   6.661  17.843   3.932  0.0777  0.1450 -0.0120
12451W        W28925   3.400  12.620   4.319 -0.1957 -0.2085 -0.2958
12452W        W28926  14.424  17.377   2.200 -0.1820  0.0280 -0.0241
12453W        W28927   6.453  15.593   1.680 -0.0570  0.3134 -0.1061
12454W        W28928  10.763  14.059   0.447 -0.1595  0.1559  0.1515
12455W        W28929  17.231  11.156   4.835 -0.0736  0.2176 -0.0519
12456W        W28930   5.665   7.188   0.288 -0.1516  0.0570 -0.0277
12457W        W28931  17.581  15.470   2.477 -0.3527  0.1479  0.1262
12458W        W28932   1.914  17.500   4.750 -0.3328 -0.0270 -0.0072
12459W        W28933   0.283  13.664   5.370 -0.1026  0.0353 -0.2251
12460W        W28934  15.877   8.796  15.740  0.1395 -0.0624 -0.0007
12461W        W28935  16.916   8.446   4.245  0.3677 -0.1442  0.1069
12462W        W28936   0.175  16.885   4.237 -0.1587 -0.3113 -0.5231
12463W        W28937  16.066   9.249   3.730  0.3855  0.0054  0.1500
12464W        W28938  14.497   1.870   5.369 -0.1834  0.4458  0.4136
12465W        W28939  16.194   4.384   0.632 -0.0123 -0.1859  0.0096
12466W        W28940  16.824  11.453   4.190 -0.1963  0.0659  0.0980
12467W        W28941  14.977   4.419  14.694  0.1119 -0.4168 -0.0609
12468W        W28942  13.539   4.169   0.305  0.2634  0.0613 -0.2645
12469W        W28943  16.061  15.826   4.291  0.0974 -0.2135 -0.0823
12470W        W28944   3.509  13.293   3.601 -0.0324  0.4205  0.0041
12471W        W28945  10.176   6.663   3.054 -0.2216 -0.0194 -0.0377
12472W        W28946  10.326   5.658  14.651  0.0601 -0.2009  0.2226
12473W        W28947   3.804  18.140  16.340 -0.0069  0.0927  0.2411
12474W        W28948  12.967   8.824  12.561  0.1292 -0.1228  0.0790
12475W        W28949  14.211  13.344   1.757  0.2562 -0.1571  0.1532
12476W        W28950   2.749   4.321  11.188  0.0173  0.1387  0.1810
12477W        W28951  11.035   0.318   0.168  0.1618 -0.0374 -0.0779
12478W        W28952   1.478  11.446  15.587  0.1453  0.2883 -0.0517
12479W        W28953  15.189   0.513   3.467  0.1941 -0.1453  0.2915
12480W        W28954   0.012  13.849  15.446 -0.3330 -0.5198 -0.0553
12481W        W28955  15.257  12.626  16.107 -0.2998  0.0804  0.1944
12482W        W28956  15.493   5.446  10.404  0.1056 -0.2353 -0.0460
12483W        W28957   4.682   9.516  13.773  0.2910  0.0314 -0.1059
12484W        W28958   9.092   4.954  14.111 -0.0034  0.2931 -0.0670
12485W        W28959  13.720   7.312   0.949  0.1267  0.1266  0.0966
12486W        W28960  17.620   3.350   5.109  0.0156  0.2898  0.0099
12487W        W28961  18.222  12.416   2.244 -0.0107 -0.4049  0.5204
12488W        W28962   5.573   8.973   3.230 -0.0914  0.4301 -0.0428
12489W        W28963  16.121  14.001  15.763 -0.4171 -0.2418  0.2300
12490W        W28964  13.155  15.469  14.416 -0.1293  0.0355 -0.0550
12491W        W28965  10.417  16.963   0.735  0.1709 -0.4632  0.2090
12492W        W28966   5.243   6.323  12.977  0.0764 -0.1370 -0.2519
12493W        W28967  14.495  11.204  10.658  0.0798  0.1074 -0.2573
12494W        W28968   2.306   7.110   0.839 -0.1838 -0.0026  0.1975
12495W        W28969   1.596   6.828  11.134  0.1248 -0.3339 -0.2885
12496W        W28970  12.276   3.565  12.180 -0.1255 -0.0340  0.1084
12497W        W28971  15.286   6.777  15.725 -0.3264  0.0838 -0.0112
12498W        W28972   5.110   8.318   1.440 -0.0841 -0.0436  0.1108
12499W        W28973  17.361   2.504  14.958 -0.0287  0.2283 -0.1274
12500W        W28974  15.156  13.814   3.923 -0.2887  0.1994 -0.0194
12501W        W28975  13.308   5.371  11.694 -0.0362  0.1533 -0.2594
12502W        W28976  15.081  12.567  15.648 -0.1756 -0.4947  0.0683
12503W        W28977   4.265  10.038  13.399  0.0506  0.1540  0.3074
12504W        W28978   0.883   4.044   3.675  0.1768  0.0834  0.2762
12505W        W28979  15.923  10.205   4.345  0.1670 -0.1687 -0.1112
12506W        W28980  17.010   9.766   0.664 -0.0161  0.1015  0.3089
12507W        W28981  10.384   0.145   2.073  0.3610 -0.0993  0.2515
12508W        W28982  12.393   4.125  14.352 -0.3030  0.0483  0.2978
12509W        W28983  10.864   3.587  15.077 -0.4115  0.1880 -0.1737
12510W        W28984   0.414  15.547   1.157  0.3084 -0.0934 -0.0922
12511W        W28985  13.155   6.177  14.934  0.3021 -0.0749  0.0185
12512W        W28986   9.286  16.524  16.211 -0.3279  0.1683  0.0420
12513W        W28987   4.498  17.188  12.709 -0.0307 -0.2819 -0.0842
12514W        W28988  17.649   4.963   1.258  0.2881 -0.2000 -0.2094
12515W        W28989  10.135  14.799  15.162  0.1887  0.3889 -0.0804
12516W        W28990  17.734   8.885  15.996  0.1888  0.1992  0.0211
12517W        W28991   7.085   1.787  12.051  0.1092  0.1943  0.0842
12518W        W28992   1.374  11.230  11.925 -0.0333  0.1811 -0.1916
12519W        W28993   6.634   6.365   2.052 -0.3551 -0.0530  0.2354
12520W        W28994  15.296  13.015  13.503  0.0228  0.0933 -0.2220
12521W        W28995   5.808   3.077  12.896 -0.0495  0.1215  0.1391
12522W        W28996  15.517  15.674   2.929  0.2232 -0.0990  0.1793
12523W        W28997  13.130  17.686   3.813  0.3755 -0.1546 -0.1883
12524W        W28998   0.788   6.483   2.153 -0.1846  0.2512 -0.0234
12525W        W28999   0.767  15.930   3.437  0.3451  0.1416 -0.0174
12526W        W29000  10.560   5.267  13.693  0.0781 -0.1281  0.2665
12527W        W29001  16.645  10.281   4.795 -0.0247 -0.0054 -0.1361
12528W        W29002   9.381   6.926  14.331  0.3893  0.3369  0.0754
12529W        W29003  17.632   2.183  13.555  0.0224 -0.1071 -0.2868
12530W        W29004   8.416  11.346  12.944 -0.3478  0.0833 -0.3374
12531W        W29005  10.681   3.534   1.282  0.2342 -0.2486  0.1317
12532W        W29006   1.373   9.719  12.969  0.1310  0.2126 -0.0820
12533W        W29007  16.344  15.630  15.937  0.0683 -0.2082  0.0780
12534W        W29008   0.519  15.234   3.527  0.0445  0.0488  0.0544
12535W        W29009   4.243   2.302   5.369  0.0080 -0.0473  0.1059
12536W        W29010   2.782   2.713  14.859 -0.1109  0.0855  0.2376
12537W        W29011  11.216  15.696  13.654 -0.2197 -0.0339 -0.0073
12538W        W29012  15.767   1.746   0.039  0.1067 -0.2089  0.3627
12539W        W29013   9.830   6.780  11.543 -0.0129  0.0926 -0.0987
12540W        W29014   6.931   6.364  15.467  0.3188  0.1752 -0.1256
12541W        W29015   1.560   3.036   0.393 -0.1012  0.0872  0.0991
12542W        W29016  14.131   5.373  16.078 -0.0615 -0.2162 -0.0654
12543W        W29017   0.786   3.153   3.599  0.0423  0.0280  0.2324
12544W        W29018   8.536  17.393  13.883  0.0409  0.2226 -0.3297
12545W        W29019  10.897  13.419  14.274  0.1276  0.4284  0.1228
12546W        W29020   6.817   7.283   1.705  0.1368 -0.0377  0.3097
12547W        W29021   6.083  14.114  14.149 -0.0981 -0.0965  0.0084
12548W        W29022  17.129   0.000   1.608  0.0580  0.1317 -0.1795
12549W        W29023  12.428   6.720  11.227 -0.1420 -0.1465  0.0096
12550W        W29024  17.247   8.517  15.170 -0.0262 -0.1146  0.3261
12551W        W29025   9.792   9.416   3.972 -0.3043 -0.3352  0.0582
12552W        W29026   6.699   9.993   0.119  0.2473 -0.0768  0.1684
12553W        W29027  11.466   0.265   2.664 -0.2414 -0.3392 -0.2589
12554W        W29028   5.699  16.729   1.869 -0.1450 -0.0329 -0.0578
12555W        W29029  18.287   0.711   6.122 -0.0364  0.2454  0.0127
12556W        W29030  16.496   7.433  14.742  0.2322  0.3193 -0.1294
12557W        W29031   2.741   8.741  12.377  0.1136 -0.2817  0.4736
12558W        W29032  17.904   7.200   2.116  0.0674 -0.2960  0.1075
12559W        W29033  13.328  14.527  13.307 -0.0217 -0.0535 -0.2002
12560W        W29034   6.482  13.115  11.550 -0.0796  0.2532  0.1271
12561W        W29035  17.273  15.939  15.278 -0.0434 -0.3448 -0.1067
12562W        W29036   7.075   9.588  10.825 -0.3442  0.2127  0.0729
12563W        W29037   0.816  13.678  15.068  0.2876 -0.0399 -0.1579
12564W        W29038   6.911  13.657  15.080  0.2890  0.1311 -0.0557
12565W        W29039   3.760  18.299   4.324 -0.2495  0.3716 -0.0597
12566W        W29040  16.164  17.679  15.267 -0.0323 -0.0773 -0.0022
12567W        W29041  16.586  14.029   4.443 -0.3223  0.0400  0.0090
12568W        W29042  10.039   4.164  11.151  0.1191  0.0052 -0.0893
12569W        W29043   8.109  13.953   2.165  0.0209 -0.2027  0.0157
12570W        W29044   4.584  13.911   2.050 -0.0371 -0.1080 -0.2013
12571W        W29045  15.988  11.640   2.631 -0.3197 -0.0986  0.0898
12572W        W29046   3.898   1.612  15.146 -0.0505 -0.1822  0.1485
12573W        W29047   6.599  17.869   0.129 -0.0587 -0.1205 -0.0584
12574W        W29048  12.015  17.962  14.335 -0.0475 -0.0867 -0.0342
12575W        W29049  17.537  13.900   0.359 -0.1448 -0.1964 -0.3466
12576W        W29050  11.833   1.941   4.136  0.1912 -0.1665  0.3636
12577W        W29051   9.881   4.741  13.762 -0.0317  0.1698  0.4002
12578W        W29052  13.932  16.269   0.020  0.0423  0.2702 -0.1259
12579W        W29053   9.020   3.560  14.421 -0.0385 -0.0356 -0.0506
12580W        W29054   7.174   1.250   5.322  0.2391 -0.1030  0.1395
12581W        W29055  10.736   1.738   1.273 -0.1590 -0.1171 -0.0797
12582W        W29056   6.333   0.991   4.346  0.0176 -0.1100 -0.2123
12583W        W29057   7.172   2.034   0.705  0.0747  0.0697  0.1590
12584W        W29058  12.402   0.477  16.060  0.1793 -0.2264 -0.2257
12585W        W29059   0.888  12.310  16.280 -0.0433  0.1218  0.0526
12586W        W29060   9.449  13.490   4.014 -0.2367 -0.0592  0.0069
12587W        W29061  13.076   4.990   0.718  0.0387 -0.0212 -0.3639
12588W        W29062   2.525  16.170  16.181  0.2594 -0.1560  0.1529
12589W        W29063   7.032  16.578   5.451  0.0602 -0.3787 -0.0333
12590W        W29064   7.771  13.604  15.360  0.0497  0.1171  0.0128
12591W        W29065   1.579  10.018  10.997 -0.1198 -0.2482 -0.0937
12592W        W29066   3.016   1.230   5.005  0.0334 -0.0943  0.1052
12593W        W29067  13.273   4.523   4.729  0.1534 -0.0844  0.0098
12594W        W29068   8.398   5.793   5.408  0.0604  0.0494 -0.2522
12595W        W29069  13.023   7.815   4.192  0.0231 -0.0751 -0.1611
12596W        W29070  18.174   4.220   5.073 -0.4814  0.1792 -0.2187
12597W        W29071   2.958   4.607   0.275  0.0268 -0.0874  0.1874
12598W        W29072  14.099   4.501  15.356  0.0031 -0.2055 -0.1333
12599W        W29073   6.719  17.655  15.771  0.2298  0.2937 -0.3305
12600W        W29074  18.184  10.916  15.231 -0.2707 -0.2819  0.2075
12601W        W29075   2.989  12.113   1.835 -0.2768  0.0331 -0.1171
12602W        W29076  15.221  14.127   1.245  0.0325  0.0187  0.0598
12603W        W29077  10.802   9.440  13.848  0.0338 -0.1791  0.0518
12604W        W29078   7.567   8.132   4.576 -0.0210 -0.1092  0.1904
12605W        W29079   9.369   6.216  13.632 -0.1785 -0.0570 -0.0211
12606W        W29080  10.294  10.577  16.336 -0.2213 -0.2513 -0.4192
12607W        W29081  10.700   9.041  11.503  0.3070 -0.1149  0.0582
12608W        W29082  15.019   8.828  13.772  0.0229 -0.0444  0.0930
12609W        W29083  13.458   1.050  11.764  0.4439 -0.0241  0.1762
12610W        W29084   7.140   9.377  15.326  0.0885  0.1304 -0.0138
12611W        W29085  14.990  13.592   3.182 -0.0660  0.0491 -0.0650
12612W        W29086  10.724   0.140  13.012 -0.1581  0.0658  0.3246
12613W        W29087  11.204  12.380   3.421 -0.2098 -0.1401  0.0943
12614W        W29088   1.727   3.145   2.688  0.0510 -0.2652 -0.1778
12615W        W29089   4.111   6.846   1.209 -0.2211  0.3743 -0.1347
12616W        W29090   0.098   3.904  12.868 -0.2504 -0.3736 -0.0165
12617W        W29091   3.798   9.752   3.775  0.3484 -0.2408 -0.0053
12618W        W29092   2.203   5.421   5.674 -0.4327 -0.3114 -0.1067
12619W        W29093   1.097   4.775  15.376 -0.2077 -0.0487 -0.1196
12620W        W29094   0.525   6.317   3.867 -0.3028  0.0661 -0.0620
12621W        W29095   3.951   9.489   2.240  0.0317 -0.0893 -0.0322
12622W        W29096   8.173   6.259   4.549  0.2427  0.0042 -0.1465
12623W        W29097   4.514  17.107   5.486  0.1269  0.2550 -0.1039
12624W        W29098   7.441   2.848  15.913 -0.2079  0.1184  0.3889
12625W        W29099   5.326   3.587   0.694  0.0461 -0.1709  0.3211
12626W        W29100  10.466   1.051   5.850 -0.0671  0.2769 -0.2184
12627W        W29101  10.720   6.297  15.030 -0.2818  0.1048 -0.2561
12628W        W29102   4.983   1.545   1.871  0.0244 -0.1732 -0.0432
12629W        W29103  17.374  15.927   4.692  0.1182 -0.0509  0.0818
12630W        W29104  11.135   3.466   2.386  0.0860 -0.0768 -0.2055
12631W        W29105   1.299   1.674   4.995  0.0025  0.0649  0.0815
12632W        W29106   0.648  14.527  14.983  0.3752 -0.0087 -0.0303
12633W        W29107   9.576  16.913  15.231  0.0282  0.1568  0.0729
12634W        W29108   3.619   9.619  15.351  0.0573  0.0755 -0.0704
12635W        W29109   1.626  10.733   0.833 -0.0303 -0.1872 -0.0467
12636W        W29110   5.918   4.442   4.877  0.1475  0.1021  0.6033
12637W        W29111  15.267   5.368   9.359 -0.0853  0.1938 -0.1168
12638W        W29112  14.689   1.542   2.493  0.3083  0.0998  0.0003
12639W        W29113   4.538  16.072   0.761  0.1597 -0.2307 -0.1460
12640W        W29114   4.916  16.179   4.314  0.1808 -0.0614  0.3718
12641W        W29115   4.220   0.121   1.202  0.1289  0.2098 -0.1223
12642W        W29116   7.118   4.269   4.172 -0.0054  0.1052  0.2085
12643W        W29117   3.470  10.444   3.821  0.0672 -0.1242 -0.0232
12644W        W29118   0.205  10.724  13.820 -0.2799  0.2088 -0.0066
12645W        W29119   1.297   7.775   0.131 -0.2851  0.0963  0.1974
12646W        W29120   5.144   2.774  15.417  0.2759  0.2073  0.1103
12647W        W29121   8.466   0.083   6.079 -0.1829 -0.0102 -0.0629
12648W        W29122   7.131  10.942   0.211  0.1557 -0.3763 -0.1814
12649W        W29123   3.320  11.433  14.380  0.0533 -0.1444 -0.1922
12650W        W29124   3.572   6.483   4.882  0.2186  0.0614 -0.0740
12651W        W29125  10.030   0.582   4.940  0.0499  0.0810  0.2140
12652W        W29126  15.097   7.009   5.392 -0.0204 -0.2587  0.0755
12653W        W29127  11.473   2.340  14.023  0.0891 -0.0969  0.0907
12654W        W29128  10.369   7.497  12.239  0.2135  0.3221 -0.1043
12655W        W29129   4.173  13.870   3.888  0.0025  0.2455 -0.4040
12656W        W29130   6.537   3.340   2.268 -0.0081 -0.1939  0.2915
12657W        W29131   0.193   8.334  16.289 -0.2049  0.1951  0.1308
12658W        W29132  16.104  11.762   3.487 -0.1368 -0.0599 -0.1677
12659W        W29133   5.186   6.603  11.511  0.3806  0.1098  0.0045
12660W        W29134  14.964   1.514   5.361 -0.2811 -0.3143  0.3522
12661W        W29135  18.021  16.520   1.582  0.2313 -0.0295  0.3577
12662W        W29136  10.475   7.006  14.259  0.1320 -0.2087  0.0084
12663W        W29137  16.371  14.214   0.932  0.0231 -0.5732  0.0692
12664W        W29138   6.769  17.393   1.390  0.1912 -0.3439 -0.1138
12665W        W29139  11.576   0.224   4.342 -0.4349 -0.2825 -0.2156
12666W        W29140   5.368  12.436   5.061  0.0507  0.3520  0.0087
12667W        W29141  15.501  11.249  11.766 -0.2696  0.0128  0.0069
12668W        W29142  13.080  15.136  14.884 -0.1626 -0.0552 -0.0623
12669W        W29143  10.650  18.104   4.074 -0.0737 -0.1001  0.0968
12670W        W29144  17.676  10.214  12.662  0.0274 -0.0999  0.3956
12671W        W29145  18.055  12.590  15.256 -0.0014 -0.1558  0.3525
12672W        W29146   3.975  16.114  13.223 -0.3097  0.2547  0.2566
12673W        W29147   2.054  11.801   1.880  0.1999 -0.5487  0.1458
12674W        W29148  17.782  13.234   3.793  0.0894 -0.3463 -0.1325
12675W        W29149  17.045  17.710  15.453 -0.0255 -0.1679 -0.2194
12676W        W29150   7.619  11.592  14.057 -0.0010  0.1800  0.4448
12677W        W29151   7.753  16.928   2.926 -0.1981 -0.2456 -0.5428
12678W        W29152   1.371   9.481   0.902  0.4509  0.2486 -0.1197
12679W        W29153  16.202   0.689   2.324  0.4335  0.0139 -0.0632
12680W        W29154   1.707  17.991   2.458 -0.0588  0.1355  0.0177
12681W        W29155  10.724   6.294   0.802  0.2401 -0.1758  0.0812
12682W        W29156   8.184   2.724   2.256  0.0981 -0.0731 -0.0596
12683W        W29157  14.313   3.404   2.779  0.1206  0.3302  0.1639
12684W        W29158   5.627  15.265   5.793 -0.0357 -0.2129 -0.2117
12685W        W29159   5.658   8.621  11.566  0.1951 -0.0346 -0.1043
12686W        W29160   8.762   2.069   3.521  0.0956  0.1709  0.1903
12687W        W29161  15.913  17.259  15.373 -0.2399  0.4291  0.0493
12688W        W29162  16.747  10.682   4.021  0.2844  0.1993  0.4007
12689W        W29163   3.868   9.063   5.601  0.0833  0.1168  0.1061
12690W        W29164   6.620   8.676  15.206  0.0436  0.3544  0.0726
12691W        W29165  12.425  16.411  12.636 -0.0341 -0.2376 -0.0196
12692W        W29166   4.202  15.565   4.527  0.0985 -0.1918  0.3568
12693W        W29167   7.581   9.407   2.056 -0.0820  0.2399 -0.2416
12694W        W29168   1.973   3.809  11.570  0.3859 -0.0416 -0.2282
12695W        W29169  16.122   9.606   2.279 -0.1224 -0.0658 -0.0116
12696W        W29170   0.014  15.553   3.040  0.1623 -0.1450 -0.1487
12697W        W29171   1.529   7.371   5.727  0.0502  0.1829  0.0105
12698W        W29172   8.085  10.481  14.907 -0.0065 -0.2019 -0.0980
12699W        W29173  11.923   4.807   9.575  0.0579 -0.3352 -0.2831
12700W        W29174   7.920   8.068   4.900  0.1735 -0.2792 -0.2419
12701W        W29175   1.684   3.313   5.476 -0.0087  0.0626 -0.0843
12702W        W29176  17.992   2.981  11.538  0.0293 -0.0911 -0.1745
12703W        W29177  14.633  15.975   0.083  0.0560 -0.2382 -0.2423
12704W        W29178   4.285   1.939  15.098 -0.2256  0.1808  0.0482
12705W        W29179  16.711   3.453   4.679 -0.0655 -0.3242  0.3703
12706W        W29180  14.741   5.938   1.833  0.0350  0.0238 -0.0469
12707W        W29181   0.807   2.752   4.041 -0.0003  0.1471 -0.0943
12708W        W29182   5.968  16.107  12.008 -0.0208 -0.1855  0.4744
12709W        W29183  11.806   0.412  14.016  0.3739 -0.1715 -0.0975
12710W        W29184  14.185   8.933   5.637 -0.0049 -0.1764  0.4454
12711W        W29185   5.787  14.152   5.527  0.2568 -0.4653  0.0927
12712W        W29186   2.083   8.999  10.323  0.0664  0.2305  0.2047
12713W        W29187  16.108  11.611  11.974 -0.5024  0.1379 -0.0647
12714W        W29188  14.659  10.324  14.944 -0.2301 -0.2312 -0.4689
12715W        W29189  10.678   3.122   5.597  0.0629  0.0397  0.0605
12716W        W29190  17.097  12.145   3.015 -0.0226  0.0624 -0.3382
12717W        W29191   8.573   6.932  13.160 -0.2908 -0.0040 -0.0151
12718W        W29192   6.329   5.166   1.270 -0.4183  0.2237  0.0225
12719W        W29193   4.306   1.755  12.638  0.2380  0.0663 -0.0226
12720W        W29194  10.042   7.374  13.436 -0.2265 -0.0541  0.1564
12721W        W29195   1.751   9.067  11.305 -0.1669  0.0212  0.0796
12722W        W29196  17.521   2.200   6.251 -0.0275 -0.4365 -0.0590
12723W        W29197   6.910  14.283   5.902  0.1908  0.1684 -0.1522
12724W        W29198   4.120  13.574  12.900 -0.4961 -0.2407  0.0824
12725W        W29199   5.646  16.195   2.791 -0.1047  0.3037 -0.0436
12726W        W29200   2.870   4.361  15.769 -0.0355  0.2127 -0.1102
12727W        W29201  12.679   4.577  12.333 -0.2985 -0.2961  0.1048
12728W        W29202   9.281  13.938  13.744 -0.0133  0.0505 -0.0294
12729W        W29203  16.639   1.501  14.926  0.0040 -0.3726  0.1607
12730W        W29204   5.715  14.967  15.944  0.0926  0.0870 -0.0964
12731W        W29205  13.494  15.628  13.312  0.0725 -0.0171 -0.1028
12732W        W29206  17.714  13.076  15.125 -0.0721  0.2902 -0.0455
12733W        W29207  11.611  16.693  15.096  0.2179  0.2685  0.0537
12734W        W29208   1.940  18.197   4.277 -0.4543 -0.0924  0.1099
12735W        W29209  17.320   3.684   3.964 -0.2807  0.2393 -0.0441
12736W        W29210  16.372   0.782   5.504  0.1251  0.0421 -0.1015
12737W        W29211  15.513   0.050  11.820  0.0042  0.2328  0.4355
12738W        W29212   4.887  15.846  11.975  0.1416 -0.1554 -0.3271
12739W        W29213   5.487   1.003  12.900 -0.0274  0.0310  0.1192
12740W        W29214  12.134   2.215   1.196  0.0944 -0.1735 -0.1037
12741W        W29215  10.327   9.711  13.197  0.0408  0.2731 -0.1315
12742W        W29216   9.689   2.751  14.492 -0.0912  0.0677 -0.0970
12743W        W29217   3.887  13.650   3.422  0.1702  0.0051  0.4241
12744W        W29218  10.208   2.915  15.204 -0.0324  0.1498 -0.0217
12745W        W29219   8.938   3.143   1.181  0.1940  0.0813  0.0129
12746W        W29220   2.168  18.380   2.259 -0.0481  0.3029 -0.1360
12747W        W29221   7.364   9.396   2.926  0.1178 -0.1584  0.0374
12748W        W29222   2.225   9.812   2.806  0.1190  0.0931 -0.1299
12749W        W29223  15.892   0.341   2.251  0.2194 -0.1365 -0.0622
12750W        W29224   8.908  17.473   1.627 -0.1213 -0.0970 -0.2427
12751W        W29225  17.754  13.110  13.891 -0.0028  0.2391  0.4742
12752W        W29226   1.538   4.933  13.486 -0.0582 -0.2291  0.0117
12753W        W29227  15.544   8.675   4.511 -0.2920 -0.3084  0.0158
12754W        W29228   2.586  14.034   6.123 -0.1121 -0.1507 -0.0710
12755W        W29229   6.287   4.398   0.547 -0.1375  0.0756 -0.0181
12756W        W29230  14.853   2.067  13.192  0.2685  0.0617 -0.1103
12757W        W29231   0.803  16.365   6.088  0.2964  0.2812 -0.3344
12758W        W29232  18.352  14.608   3.210 -0.0599 -0.2471 -0.2095
12759W        W29233   6.523  17.018   0.619 -0.0177  0.0662 -0.2245
12760W        W29234   1.848   3.027  15.157  0.0651 -0.0611 -0.0087
12761W        W29235  17.084   6.182   2.142 -0.2834  0.1729  0.0211
12762W        W29236   5.041   6.605  12.588  0.1867  0.4502 -0.2152
12763W        W29237  11.566   4.855  11.854  0.0091  0.2299  0.0224
12764W        W29238  10.242  16.709   2.168  0.2458  0.1345 -0.0610
12765W        W29239  13.127   5.417   2.202 -0.0065 -0.3856 -0.0472
12766W        W29240   2.713   0.371   1.051 -0.0555  0.0444 -0.1066
12767W        W29241  12.806  17.459   2.465 -0.1141  0.1356 -0.0062
12768W        W29242  13.800  10.679  10.275 -0.1149 -0.1920 -0.1266
12769W        W29243   0.115  14.817  16.213 -0.1200  0.0334 -0.0603
12770W        W29244   5.062   6.635   1.562  0.1771 -0.2998 -0.2224
12771W        W29245   2.032  13.390   0.273 -0.1301  0.3139  0.1164
12772W        W29246  10.458  13.128  12.046 -0.0650  0.0929  0.2812
12773W        W29247  17.380  16.713   5.427 -0.1221  0.1111 -0.1226
12774W        W29248   9.894  13.651  11.577 -0.0513 -0.2663 -0.0848
12775W        W29249  15.032  13.088  15.989  0.0149 -0.0678  0.0698
12776W        W29250   7.574   1.733  12.316  0.3050 -0.2561 -0.3131
12777W        W29251   7.630  15.662  14.664  0.1754  0.1694  0.0962
12778W        W29252  11.103  11.388   1.518 -0.3227  0.0950  0.2070
12779W        W29253   1.278   9.219  15.412 -0.3253 -0.0544 -0.2138
12780W        W29254  12.812  14.466  14.208  0.0838  0.0500  0.0761
12781W        W29255   7.148   9.047  10.806  0.0173  0.1979  0.0452
12782W        W29256  14.134   0.050  12.114 -0.2039 -0.0929 -0.2125
12783W        W29257   6.771   4.874   3.200 -0.2571  0.3108 -0.1475
12784W        W29258   0.059   2.207   0.706  0.3995 -0.1931 -0.2906
12785W        W29259   7.192  15.081  12.291  0.1528 -0.4361  0.1776
12786W        W29260   1.575   3.584   2.980 -0.0957  0.0367 -0.0310
12787W        W29261  14.129  16.385   0.923 -0.0147 -0.0443 -0.3190
12788W        W29262   1.613   4.360   3.815  0.2745  0.0535  0.1708
12789W        W29263  18.331  18.221  14.303 -0.1492  0.2629  0.1665
12790W        W29264  10.961   0.986  11.640  0.1457  0.2033 -0.2730
12791W        W29265  11.455  17.628  11.321 -0.0116  0.0495  0.0048
12792W        W29266   4.531   7.231  14.913 -0.1943 -0.0020  0.0473
12793W        W29267  13.765   7.295   2.027  0.0736  0.1239 -0.3087
12794W        W29268   3.089  10.976  12.022 -0.0311 -0.0443 -0.2754
12795W        W29269  11.121  12.413  12.059 -0.1675  0.0742 -0.2093
12796W        W29270   8.591  13.173   4.066  0.1293  0.1860  0.0342
12797W        W29271  13.186   7.173   3.030 -0.0010 -0.1675 -0.0719
12798W        W29272   8.202   2.585  13.063  0.0359  0.0797  0.1778
12799W        W29273   4.946  15.862   1.577  0.1411 -0.2220  0.1215
12800W        W29274   0.475   0.916  15.739 -0.0338 -0.1511 -0.0262
12801W        W29275  15.361   6.456  13.104 -0.1958 -0.0806  0.0544
12802W        W29276   5.756  13.078  13.499 -0.0312 -0.1653  0.4060
12803W        W29277  10.354  14.702   1.534  0.0551  0.0146 -0.1697
12804W        W29278   0.695  17.582   2.325  0.1637  0.1249  0.1407
12805W        W29279  16.352   2.358   2.727 -0.1938  0.3231  0.1994
12806W        W29280  12.626   5.975   4.214 -0.2733 -0.1215 -0.1090
12807W        W29281  11.476   4.936  13.574 -0.0136  0.2250  0.1100
12808W        W29282  15.759   5.955   1.395  0.4041  0.2295  0.0381
12809W        W29283  16.006   2.229   0.053  0.0864  0.2181 -0.0688
12810W        W29284  10.677   2.416   3.263 -0.2406 -0.0290  0.0254
12811W        W29285  10.901  15.424  13.398 -0.2439  0.0668  0.0650
12812W        W29286   7.222   8.953   5.002  0.1689 -0.1867  0.0699
12813W        W29287  14.140   9.090   2.328 -0.1643 -0.0869 -0.2288
12814W        W29288   0.541  15.944   5.246 -0.1175 -0.2139 -0.2830
12815W        W29289   7.113  15.632   5.159 -0.3313  0.1045 -0.1677
12816W        W29290   5.169   6.056   0.246  0.0554 -0.0591 -0.0023
12817W        W29291   2.037   5.088   2.615 -0.4033 -0.1155  0.1381
12818W        W29292  17.023   5.972  12.177  0.0862 -0.0652 -0.1894
12819W        W29293  15.213  18.264   2.891  0.1615 -0.0472 -0.0056
12820W        W29294   4.220   1.130  12.584 -0.0589  0.1780  0.0104
12821W        W29295  18.250  11.681  15.507 -0.0694 -0.4356  0.2657
12822W        W29296   5.421   2.630   6.268  0.1826 -0.0692 -0.1069
12823W        W29297   8.159   0.391  13.659  0.2877  0.0217  0.2678
12824W        W29298  13.115   2.868  11.203  0.1733  0.2220 -0.2638
12825W        W29299   9.981  10.653   3.629  0.1407 -0.0654 -0.2122
12826W        W29300   7.255   8.357   0.982 -0.0274 -0.3737 -0.0841
12827W        W29301  16.584  17.205   2.037  0.0497  0.2076 -0.1997
12828W        W29302   9.378  11.619   4.280 -0.0626 -0.0886 -0.1538
12829W        W29303   1.665   2.792   5.296  0.1145  0.2524  0.1330
12830W        W29304  11.883   2.110   4.576 -0.3400  0.3121  0.1006
12831W        W29305  12.853  11.329   3.056  0.0047  0.2401  0.0675
12832W        W29306   3.217  11.993   6.320 -0.2192  0.1372 -0.0147
12833W        W29307  12.949  14.861   3.400 -0.2738  0.0728 -0.1764
12834W        W29308  15.810   9.696  13.840 -0.2348 -0.0860 -0.0201
12835W        W29309  15.453   6.813   4.105 -0.0604 -0.2965 -0.2685
12836W        W29310   5.214  12.636   3.681 -0.1713  0.1739  0.0888
12837W        W29311   1.369  12.895  15.630  0.2987  0.1308 -0.0114
12838W        W29312   1.490  13.351   2.303  0.2373 -0.2426  0.0603
12839W        W29313   2.540   9.095  13.211  0.1852 -0.0082 -0.0068
12840W        W29314  13.775   1.154   4.403 -0.1285  0.1496  0.3213
12841W        W29315   1.879  17.484   3.718  0.0184 -0.0798 -0.1312
12842W        W29316   8.866  10.115  14.646  0.2268 -0.1732 -0.0648
12843W        W29317   1.016   5.973  15.574  0.2838  0.1814  0.1491
12844W        W29318   5.200  13.103   1.425 -0.0402  0.1971  0.0564
12845W        W29319   1.757  13.936  14.351  0.3010 -0.2170 -0.2790
12846W        W29320  10.889  14.386  13.199 -0.0912  0.0320 -0.0460
12847W        W29321   9.283  15.863  11.397  0.2509  0.3204 -0.0485
12848W        W29322   2.594  10.533  15.259  0.2653  0.1372 -0.1366
12849W        W29323  14.753   3.474   3.834 -0.2382  0.0202 -0.1283
12850W        W29324  14.321  15.442  15.907 -0.3197  0.4049  0.2948
12851W        W29325   8.110   2.801  13.800 -0.1576 -0.2917 -0.3583
12852W        W29326  10.716   7.049  15.538 -0.1547 -0.2701 -0.0884
12853W        W29327   5.863   8.531   2.301  0.1704 -0.0374 -0.1979
12854W        W29328  15.836   1.004   2.398  0.2841 -0.1805 -0.0743
12855W        W29329   2.681   3.136   0.066  0.0063 -0.0981 -0.1137
12856W        W29330   4.718  13.363  13.419  0.1018  0.0736 -0.0895
12857W        W29331   5.914  13.836   0.749 -0.0556  0.2116 -0.0590
12858W        W29332   0.940   4.114   1.460  0.1409 -0.0680 -0.1033
12859W        W29333   2.910  14.850   5.688 -0.2575 -0.2200 -0.1486
12860W        W29334  15.108   7.313  11.333  0.1285  0.1923  0.0964
12861W        W29335  15.424   6.488  12.255  0.1326  0.2514 -0.1467
12862W        W29336   9.889  11.250   4.908 -0.0325 -0.0318 -0.0780
12863W        W29337  17.289  10.931   0.957 -0.0542  0.1394  0.0451
12864W        W29338   9.013  14.898  13.727 -0.1410  0.0553 -0.2793
12865W        W29339  10.603   5.432   4.145 -0.2405 -0.2665 -0.0196
12866W        W29340   2.700  16.052   0.630  0.2675 -0.2183  0.2197
12867W        W29341   6.092   2.689  14.184 -0.2225 -0.1248  0.2741
12868W        W29342  10.533  10.630  12.245 -0.0704 -0.2282  0.3355
12869W        W29343   2.653   0.496  12.353 -0.0574  0.0376  0.0394
12870W        W29344   1.457   1.552   5.698  0.3508 -0.2675  0.3755
12871W        W29345   4.543   6.122   4.538  0.2624  0.1222  0.2372
12872W        W29346  11.571  16.874   5.146 -0.2859  0.0625  0.2475
12873W        W29347   7.107   6.518   4.209 -0.2561 -0.3466  0.0990
12874W        W29348   5.876  13.309   3.075  0.0488 -0.2733 -0.1741
12875W        W29349   3.754  11.550  11.607 -0.1936  0.6392 -0.1385
12876W        W29350  11.972  13.421  15.077 -0.0935 -0.0521  0.0464
12877W        W29351   2.724  11.508   2.498 -0.0054  0.0134 -0.0345
12878W        W29352  18.184   5.850   3.834  0.0283 -0.1364 -0.0768
12879W        W29353   8.551  15.518  12.073  0.0007  0.3149  0.1609
12880W        W29354  16.849   5.790   3.410  0.3814  0.0785 -0.2436
12881W        W29355   5.897   5.446  11.355  0.0753  0.1301 -0.0752
12882W        W29356   8.326  10.229   2.894 -0.2165  0.0538 -0.1826
12883W        W29357  10.198   2.202   1.940  0.1279  0.0452  0.0378
12884W        W29358   6.466  15.714  13.696 -0.1566  0.1240 -0.0546
12885W        W29359  17.578  17.531   0.674  0.1615  0.1054 -0.3777
12886W        W29360  16.422  13.527   5.103 -0.0763 -0.2685 -0.2724
12887W        W29361  13.315   1.546  14.192  0.1715  0.1754  0.3272
12888W        W29362   1.135  15.880  15.918  0.0240 -0.0999 -0.3047
12889W        W29363  11.129  13.714  14.758 -0.0344  0.0951  0.1471
12890W        W29364   0.567   9.858  15.120 -0.0602  0.0848 -0.1089
12891W        W29365   9.060   8.659  15.682  0.2177  0.2128 -0.2345
12892W        W29366  13.828   3.781   2.458  0.0443 -0.0542 -0.1922
12893W        W29367  17.751  17.350   4.532  0.0145  0.1654  0.1890
12894W        W29368  15.703   1.873   3.414 -0.3137 -0.0646  0.0965
12895W        W29369   8.806  10.966   3.270  0.3130  0.0342 -0.3194
12896W        W29370  12.392   7.476   1.259  0.2895 -0.1314  0.2043
12897W        W29371   6.384  17.768   6.083  0.1362  0.0241  0.0869
12898W        W29372  12.083  16.272  15.674  0.1361  0.0311 -0.2126
12899W        W29373   4.932   0.171  13.350  0.1780 -0.0097 -0.0336
12900W        W29374  10.990   9.758   4.073 -0.0881  0.0236 -0.0418
12901W        W29375   8.434   7.334  14.884  0.0525  0.1442 -0.1222
12902W        W29376   6.802  10.453   2.835 -0.1162  0.0887  0.2367
12903W        W29377   2.485  11.578   5.405  0.0571  0.0041  0.1304
12904W        W29378  11.502   2.965  15.745 -0.1107 -0.1288 -0.0981
12905W        W29379  15.532  16.789   0.897  0.0986  0.1083  0.0458
12906W        W29380   2.437   8.590   2.157  0.0800  0.2158  0.0364
12907W        W29381   1.427  11.995   2.560  0.0805 -0.2822 -0.1206
12908W        W29382   4.347   3.879   0.673  0.0433 -0.0785  0.3147
12909W        W29383   0.683   5.027   2.336  0.1246 -0.1160 -0.0088
12910W        W29384   5.549   8.576  12.107 -0.2027  0.0453  0.3680
12911W        W29385   8.662   0.460   5.248  0.2161 -0.0440  0.0496
12912W        W29386   9.461   3.870  11.798 -0.0371  0.1329  0.0155
12913W        W29387   2.368   2.134   5.314 -0.3160  0.2155 -0.2884
12914W        W29388   9.803  12.804   2.906 -0.0151  0.1674  0.2383
12915W        W29389   4.848   5.477  15.520 -0.1859  0.0231  0.5241
12916W        W29390  13.615   6.822  10.249  0.0099  0.0263  0.0090
12917W        W29391   9.661  11.913   4.644 -0.2263  0.4484 -0.4320
12918W        W29392   4.359  15.787   0.363 -0.2304  0.1667 -0.0305
12919W        W29393   0.110  11.980   4.455  0.1022 -0.1424 -0.1208
12920W        W29394   7.701  10.138  15.008  0.2548  0.0234 -0.1460
12921W        W29395   2.719   0.500  15.995  0.1351 -0.2613 -0.0910
12922W        W29396  11.461  10.538  12.064  0.0983  0.3456 -0.0480
12923W        W29397  17.660  17.757   1.080  0.0130  0.1618 -0.5806
12924W        W29398  10.535   9.730  16.183  0.3451 -0.0409 -0.1687
12925W        W29399  13.946   5.940  12.353 -0.1533  0.0979 -0.0731
12926W        W29400   3.707  12.530   5.378 -0.3625  0.1502  0.3168
12927W        W29401  10.928  15.046   2.683  0.0040  0.1601 -0.1912
12928W        W29402   9.861   6.929   2.381 -0.2274  0.0893  0.1902
12929W        W29403  10.317   6.167  10.576  0.0346  0.2421 -0.0047
12930W        W29404  14.801   4.029  15.525 -0.5688  0.0795 -0.1186
12931W        W29405   8.873  17.871   5.357  0.1108  0.1887  0.2886
12932W        W29406   2.231   6.410   3.120  0.1200 -0.1324  0.0682
12933W        W29407  14.813  15.630   2.335 -0.0465 -0.0080  0.1563
12934W        W29408  13.130  17.034  15.057 -0.0587  0.0976 -0.0965
12935W        W29409   5.270   2.273   3.555 -0.0168  0.0552 -0.0948
12936W        W29410   9.867   4.264   4.318 -0.0020  0.0648 -0.4294
12937W        W29411   4.273   2.526  13.206  0.1559 -0.1070  0.3095
12938W        W29412   5.692   5.592  15.237 -0.2951  0.1195  0.0746
12939W        W29413  14.576  18.306  16.027  0.0466 -0.1541  0.0647
12940W        W29414  18.275   8.304  11.266  0.0486 -0.2763 -0.4713
12941W        W29415   7.436  15.129   1.279 -0.1786  0.0006 -0.2698
12942W        W29416   0.741  12.392  13.762  0.3161 -0.0643  0.0312
12943W        W29417   0.610   2.658   4.566  0.2493 -0.0592 -0.2993
12944W        W29418  18.364   3.308   2.269  0.5722 -0.2797 -0.0398
12945W        W29419   6.422  13.053   1.994  0.1455 -0.1511  0.1909
12946W        W29420  11.968   4.448  10.848  0.0813 -0.0821 -0.1169
12947W        W29421  10.782   0.280  15.203  0.0944  0.0894  0.1462
12948W        W29422  17.061   3.386   1.710 -0.1746  0.1949 -0.2678
12949W        W29423   3.551   1.374  16.331  0.2529 -0.1299  0.1263
12950W        W29424   7.572  15.367  13.224  0.0648 -0.2574 -0.1374
12951W        W29425   5.143  11.427   1.543 -0.0050 -0.0323  0.2000
12952W        W29426   1.496  18.327   3.896 -0.0453  0.0271 -0.0083
12953W        W29427  16.704  15.929   5.732  0.2909 -0.1355 -0.0057
12954W        W29428   5.863  14.025   4.512  0.0997  0.4343  0.2806
12955W        W29429  16.797   0.237  15.987  0.4089 -0.1937 -0.1270
12956W        W29430   9.989   1.049   4.657 -0.0266  0.3427 -0.2158
12957W        W29431   8.374   0.526  14.111 -0.0774  0.0564 -0.2118
12958W        W29432   7.157  15.786  11.565 -0.2861 -0.3324  0.2708
12959W        W29433   5.566   2.664   3.455 -0.0480  0.0830 -0.2674
12960W        W29434  12.799   7.446  15.656 -0.4695  0.0656 -0.2832
12961W        W29435  17.681  14.492  12.489 -0.0826  0.3318 -0.2764
12962W        W29436  14.077   5.198  10.829 -0.0817  0.2328 -0.0507
12963W        W29437   6.822   3.602   3.419 -0.1970  0.1560 -0.1147
12964W        W29438   0.639   5.908  10.231  0.2634 -0.3120  0.0132
12965W        W29439  11.730   1.623   1.635  0.1065  0.0565  0.0940
12966W        W29440  12.445   3.332  13.177 -0.2249  0.2066 -0.0898
12967W        W29441  11.559   9.407   5.856  0.0263 -0.0102 -0.1234
12968W        W29442  10.181  14.844  13.800  0.1142  0.2401 -0.0476
12969W        W29443   5.741   3.644  14.158 -0.2395  0.1981 -0.3003
12970W        W29444  16.631  15.931  13.813  0.0781  0.1864 -0.0046
12971W        W29445   1.509   5.081  10.827  0.1619  0.2783 -0.0407
12972W        W29446   9.467   0.652   2.230 -0.2118 -0.2530 -0.0933
12973W        W29447  17.259  11.763  15.542 -0.1908  0.0933 -0.3177
12974W        W29448   1.591  14.769   5.339  0.4187 -0.0924  0.5907
12975W        W29449  11.667   5.438  15.600  0.3481  0.0925 -0.0598
12976W        W29450   5.499  12.548   0.225  0.3465  0.1017  0.2212
12977W        W29451   5.556  14.502   1.824 -0.0025 -0.1452 -0.2106
12978W        W29452  14.331  17.066   3.479 -0.1452 -0.0428  0.2965
12979W        W29453  11.039   8.504  10.871  0.1752  0.2350 -0.0776
12980W        W29454  12.530   3.402   0.717 -0.0594 -0.2434 -0.0763
12981W        W29455   6.207   3.976  11.623 -0.2973 -0.0531 -0.0764
12982W        W29456  15.884   0.134   1.270  0.0332 -0.0991 -0.0422
12983W        W29457   3.569   5.270   5.889 -0.1364 -0.2891 -0.2249
12984W        W29458  11.693   6.207   2.683  0.0351  0.2251 -0.3519
12985W        W29459  12.276  10.704  11.817 -0.2899  0.1100  0.0627
12986W        W29460  10.327   7.467   1.280  0.2267 -0.3243  0.2658
12987W        W29461  12.008   5.879   5.116  0.2023 -0.1136  0.0599
12988W        W29462  13.238  11.914   2.907  0.0236 -0.1276 -0.2012
12989W        W29463  15.957  10.873   0.652 -0.0851  0.0594 -0.1079
12990W        W29464   4.290  13.464   4.224  0.1519  0.0165  0.1279
12991W        W29465   3.854  10.023  14.063 -0.1817  0.1887 -0.0027
12992W        W29466   4.779   2.769  13.010  0.1487  0.0042  0.0580
12993W        W29467  15.072   6.277   0.159  0.0680 -0.1554 -0.1499
12994W        W29468  10.267  14.724  15.663  0.0347  0.1432 -0.1566
12995W        W29469  10.279  12.945   3.252  0.0700 -0.0866  0.1610
12996W        W29470   3.840   2.891   1.243  0.3835  0.0151  0.1392
12997W        W29471   4.409  16.783   3.561  0.1405  0.2346 -0.0561
12998W        W29472  12.158   1.762   1.435 -0.0335 -0.2129 -0.0010
12999W        W29473  16.189  15.285  10.652 -0.0541  0.0424  0.1180
13000W        W29474  16.411  17.691  12.367  0.0871 -0.4505  0.2095
13001W        W29475   0.519  18.338   3.399 -0.0755 -0.0347  0.0131
13002W        W29476  18.048   4.974  11.330 -0.0885  0.0056  0.2450
13003W        W29477  14.318  13.109   4.816 -0.1774  0.0417  0.3081
13004W        W29478   1.268  10.426   0.595 -0.0788  0.0531  0.1472
13005W        W29479   8.720   2.461  16.225 -0.2873 -0.2262 -0.2108
13006W        W29480  10.454   5.380  11.498  0.1590  0.6794  0.0884
13007W        W29481   7.321  15.373   2.155  0.3323 -0.0738 -0.2911
13008W        W29482   7.639   1.363   0.963 -0.3998 -0.3116 -0.1711
13009W        W29483  15.827   9.869   2.742  0.0265 -0.0808 -0.3879
13010W        W29484   1.485  13.718   5.285  0.2473  0.3418  0.1246
13011W        W29485  11.326  10.501   5.391  0.1611 -0.1793 -0.1035
13012W        W29486  17.758   5.952   4.196 -0.0588  0.3597  0.0929
13013W        W29487  10.453   4.931   4.308  0.0027  0.1617  0.0086
13014W        W29488  12.547   7.310   3.445  0.2773  0.0647 -0.3766
13015W        W29489   6.817   4.030  12.385  0.3272  0.0552 -0.0678
13016W        W29490  14.890  15.050  10.327 -0.1365 -0.1351 -0.1290
13017W        W29491   8.767  15.637   1.416  0.2788 -0.1972  0.0515
13018W        W29492  12.655   6.045  14.762  0.0097  0.0192 -0.3535
13019W        W29493  17.489  13.554  11.275 -0.1569 -0.1489  0.3158
13020W        W29494   7.624  16.250  12.663  0.1061 -0.2514 -0.1423
13021W        W29495  13.046   8.039  11.530  0.0084  0.4792 -0.0099
13022W        W29496   0.038   5.762  11.162 -0.0148 -0.0660  0.0065
13023W        W29497   6.305  14.692  15.915  0.1139  0.0336 -0.0824
13024W        W29498  16.962   4.340  13.009 -0.0892  0.2200  0.2365
13025W        W29499   0.371   2.116   0.298  0.0584  0.1563 -0.0010
13026W        W29500   4.368   1.088   2.223  0.1522 -0.2604  0.2312
13027W        W29501   8.462   3.019   1.087 -0.1372 -0.0396  0.3809
13028W        W29502   3.051   1.294  11.496  0.2128 -0.3741 -0.1778
13029W        W29503  15.847   2.489   2.665  0.1311 -0.2166 -0.0626
13030W        W29504   6.252   7.716   3.027  0.1318  0.1101 -0.2614
13031W        W29505  12.377   4.047   2.398 -0.2556  0.1021  0.0832
13032W        W29506   0.785   5.248   0.692 -0.1305 -0.0877  0.0039
13033W        W29507   5.110  10.303   3.020  0.3956  0.1783 -0.0039
13034W        W29508  13.937  11.391   4.397  0.3112 -0.0883 -0.2006
13035W        W29509   1.510  11.638   2.200 -0.1626 -0.0618 -0.0299
13036W        W29510   7.998   1.619  16.200 -0.1616  0.0696 -0.2012
13037W        W29511  11.620  11.623  15.874  0.1495  0.1800  0.0347
13038W        W29512  18.272   8.959  11.231  0.4614 -0.0236  0.0492
13039W        W29513  10.948  14.212  15.362  0.0595 -0.1344 -0.0493
13040W        W29514  15.829   0.443   3.345 -0.1622  0.0650 -0.0596
13041W        W29515  14.169   7.339   2.940  0.1187 -0.1102  0.1572
13042W        W29516   8.717  11.754   0.941  0.1287  0.0169 -0.0464
13043W        W29517   3.427   1.966   1.475  0.0256  0.1981  0.1114
13044W        W29518   2.821  15.227  13.983  0.0148 -0.0598  0.1018
13045W        W29519  17.814  14.077  15.186 -0.0373 -0.0188  0.0370
13046W        W29520  16.067  17.585   6.689  0.0194  0.2667  0.1798
13047W        W29521  17.309   1.437   4.691  0.0326  0.0160 -0.0580
13048W        W29522   8.167   9.371  14.607 -0.0963  0.3707 -0.0153
13049W        W29523   3.964   6.141   1.157  0.1403  0.0360 -0.0066
13050W        W29524   5.892  15.706   4.992 -0.0635  0.3418  0.0756
13051W        W29525  12.325   2.589  14.321  0.0479  0.3628 -0.3129
13052W        W29526  12.424  15.103   4.422  0.0956 -0.1573  0.2461
13053W        W29527   6.446  16.230  12.171 -0.1251  0.0685  0.0122
13054W        W29528  16.754  10.985   0.919 -0.1340  0.1274 -0.0938
13055W        W29529   2.371  14.837  13.235  0.0236  0.0753  0.0405
13056W        W29530   2.088  14.417   1.326 -0.0805 -0.5159  0.0644
13057W        W29531  14.437   7.697  12.954 -0.2859 -0.2315  0.2223
13058W        W29532  10.854   8.374   3.687 -0.1620  0.0604  0.2361
13059W        W29533  14.700   1.929  15.288  0.0573 -0.2125  0.4117
13060W        W29534  17.358  10.842   5.266 -0.1052 -0.2554 -0.1219
13061W        W29535   5.864   3.692   4.637  0.2388  0.2687 -0.1939
13062W        W29536  18.329  13.000  15.957  0.2271  0.3224  0.1805
13063W        W29537  14.249   1.533   1.980  0.1234  0.1565 -0.0195
13064W        W29538  16.257  12.936   6.000 -0.2218  0.1880 -0.4268
13065W        W29539   4.147   9.910   0.432 -0.2004  0.0155 -0.1398
13066W        W29540   6.164   1.707  14.474  0.3283 -0.0507 -0.1139
13067W        W29541  16.708   5.498  14.972  0.1006  0.0915 -0.0161
13068W        W29542   1.977   6.194  14.905  0.0025  0.1037  0.2500
13069W        W29543   8.625  12.768  14.112  0.0510  0.3145 -0.2812
13070W        W29544  10.443   4.948   0.955 -0.0460  0.1290 -0.1416
13071W        W29545  16.087  11.477   3.109 -0.2218  0.1240 -0.1376
13072W        W29546   4.348  17.987   2.011  0.0717 -0.0937  0.0306
13073W        W29547   0.888   0.842   4.999  0.0470  0.4329  0.0038
13074W        W29548  13.806   9.636   0.974  0.0444  0.0788  0.0153
13075W        W29549   0.906   0.325   2.418 -0.0928  0.1724 -0.3768
13076W        W29550   6.735   4.187   0.774 -0.0338  0.0708  0.0139
13077W        W29551   0.867  10.843  12.889  0.1283 -0.4091 -0.0611
13078W        W29552   4.715  17.421   4.158  0.0714 -0.1520  0.0656
13079W        W29553   9.348   6.657   0.338 -0.1220 -0.3397 -0.0064
13080W        W29554   7.914   3.133   0.822 -0.2589  0.0482  0.1070
13081W        W29555   1.477  16.590  13.545 -0.1965  0.0924  0.1125
13082W        W29556  16.421   3.963  15.839  0.2174  0.1652  0.1126
13083W        W29557   4.330  17.633   3.872  0.0453  0.3353  0.2288
13084W        W29558   7.971   3.400   4.083 -0.3007  0.1603  0.1455
13085W        W29559   1.789  13.501   1.564  0.3347 -0.1009  0.0845
13086W        W29560  14.117  13.844  13.860 -0.0072  0.4627 -0.1205
13087W        W29561  13.742   9.563  13.604  0.0867 -0.0571  0.1515
13088W        W29562  10.506  15.035   0.160  0.3958 -0.0632  0.0167
13089W        W29563   5.648   5.005  15.994 -0.1877  0.0630  0.1297
13090W        W29564   0.042   8.392   2.382 -0.1192 -0.2752 -0.1044
13091W        W29565   4.778   4.011   5.297 -0.1464  0.0205 -0.0269
13092W        W29566   5.672  16.494  15.844  0.1639  0.3898  0.3205
13093W        W29567   8.913  10.706   1.339  0.0774 -0.1415 -0.1779
13094W        W29568   2.961   4.801  13.174 -0.2539 -0.1203  0.1573
13095W        W29569   4.001   9.372  12.470 -0.1710  0.1359 -0.3091
13096W        W29570   0.442  10.569   3.375  0.1124  0.1721 -0.2032
13097W        W29571   4.629   5.467   0.931 -0.3884  0.0158  0.1582
13098W        W29572   9.094   7.616   4.094 -0.1784  0.3778  0.2145
13099W        W29573   9.554  15.321   3.677 -0.2586 -0.0498 -0.3221
13100W        W29574  11.234  13.545   1.375  0.0248 -0.0041  0.4253
13101W        W29575   4.553   9.488  12.846  0.0406 -0.0498 -0.1912
13102W        W29576  14.726   3.535  14.727 -0.1618  0.2025  0.0042
13103W        W29577   8.808   5.833  11.912 -0.0854 -0.2100 -0.2312
13104W        W29578  14.886  12.854  13.280  0.0791  0.0267 -0.1535
13105W        W29579  16.729   0.971  15.274 -0.0719 -0.0380  0.1918
13106W        W29580  14.314  16.644   4.946 -0.0796  0.0990  0.0746
13107W        W29581   4.264  10.761   3.920  0.3184 -0.1199 -0.1476
13108W        W29582  11.208   0.793   0.956 -0.0081 -0.0468 -0.1439
13109W        W29583  14.551  15.099  11.630  0.1297 -0.2394  0.0867
13110W        W29584  15.992   7.541  15.485 -0.0196 -0.0506  0.0215
13111W        W29585  10.728  13.512   0.405 -0.1029 -0.2036 -0.1424
13112W        W29586  15.703  13.340   4.313 -0.0812 -0.1904 -0.2674
13113W        W29587   2.951   9.900   2.283  0.0602 -0.5019 -0.2783
13114W        W29588   0.826  10.275   0.956  0.1345  0.0348 -0.3926
13115W        W29589  15.734  14.790   1.717 -0.1713 -0.4513 -0.0846
13116W        W29590   5.724   2.630  14.586 -0.3078  0.0086 -0.0152
13117W        W29591  13.447  11.856  15.225 -0.0521  0.0504 -0.2034
13118W        W29592  12.894   7.018   2.656  0.3335 -0.1609 -0.0204
13119W        W29593  17.570   8.703   0.161  0.0574 -0.0111  0.1766
13120W        W29594  16.008  13.954   1.259 -0.1815  0.4167 -0.0557
13121W        W29595  17.302  16.389  13.166  0.0243 -0.1250 -0.0737
13122W        W29596  10.349   9.393  15.585  0.0221 -0.0836 -0.1021
13123W        W29597   1.935  10.907  16.205 -0.1300 -0.0546  0.0319
13124W        W29598   0.086  11.322  12.582 -0.0905  0.2516  0.0591
13125W        W29599   9.595   0.718   4.153 -0.0335  0.1919 -0.2736
13126W        W29600  11.456   7.905   2.743 -0.0716  0.3981 -0.0043
13127W        W29601  13.062  15.873   0.163  0.2290  0.3928 -0.5404
13128W        W29602   1.270  11.905  15.493 -0.0983 -0.0308  0.0928
13129W        W29603  10.350   6.678  11.244  0.0394  0.0982 -0.4486
13130W        W29604  17.030  15.698   1.943 -0.1657 -0.3330  0.0237
13131W        W29605   2.414  16.102   2.354 -0.0761 -0.0250  0.0891
13132W        W29606   1.787  10.949  11.910 -0.0177 -0.1221  0.1472
13133W        W29607   3.429  16.399  14.779  0.0446  0.0930 -0.3205
13134W        W29608   8.501   7.131   4.531 -0.0696  0.0209 -0.1286
13135W        W29609   4.725   3.105   4.279  0.2312  0.2085  0.0519
13136W        W29610  17.110   9.857   4.027 -0.0339  0.1580 -0.3962
13137W        W29611  13.825   2.255  13.561 -0.2716 -0.1324  0.1401
13138W        W29612   9.434   7.064   1.648 -0.2419  0.1914 -0.2233
13139W        W29613  10.487  17.376   1.172 -0.1139 -0.2958  0.0979
13140W        W29614  10.696  16.813   1.141  0.0788  0.1036 -0.2892
13141W        W29615   5.421   3.955  11.220  0.0872  0.3006 -0.1433
13142W        W29616   1.595   1.929  14.797  0.2805 -0.0682 -0.0505
13143W        W29617  11.124   9.233  16.100  0.1297 -0.3242  0.1549
13144W        W29618  14.378  15.485   5.379  0.0578 -0.1176 -0.1034
13145W        W29619   2.475  16.666   3.723  0.0288  0.2663  0.0114
13146W        W29620   1.981   9.461  14.402 -0.0407 -0.0160  0.0838
13147W        W29621   0.419   6.533  15.787 -0.3549  0.1615  0.0222
13148W        W29622  10.562  14.843  14.751  0.1233 -0.0917  0.1167
13149W        W29623   4.382   3.822   4.649 -0.0627 -0.2500  0.1673
13150W        W29624  16.277  17.327   1.577  0.2338 -0.3082  0.2299
13151W        W29625  17.569   9.852   4.247 -0.0492  0.2409 -0.1937
13152W        W29626  12.453   9.491  15.976  0.0538 -0.0606  0.0326
13153W        W29627  14.820   7.720  12.634 -0.1075 -0.2382 -0.1041
13154W        W29628  18.386   5.147   2.397 -0.3932  0.0134  0.2201
13155W        W29629   0.400  16.096   1.214 -0.3044 -0.1382 -0.2859
13156W        W29630   8.191  11.451  14.647 -0.3916  0.0712  0.2257
13157W        W29631  12.622  12.705   1.216 -0.1205 -0.1527  0.0627
13158W        W29632   1.599   5.301   3.264 -0.2706 -0.2786 -0.0398
13159W        W29633  12.386  11.582  14.326  0.3311 -0.0644 -0.0825
13160W        W29634   1.769  15.083   1.550  0.0374 -0.1270  0.2481
13161W        W29635   8.646  12.322  14.335 -0.1391  0.0629  0.1421
13162W        W29636  18.050  10.004  14.773  0.1517 -0.1100  0.1806
13163W        W29637   4.803   5.750   0.283 -0.0741 -0.2190  0.1168
13164W        W29638   2.181  11.000   2.186  0.0528 -0.3029 -0.3620
13165W        W29639  17.665  17.507  14.286 -0.3286  0.1853  0.0620
13166W        W29640   0.820  14.492   4.756  0.1736  0.1986 -0.2802
13167W        W29641  13.888   9.466   4.644 -0.2164  0.2645  0.1932
13168W        W29642  14.444   6.223   4.535  0.1904 -0.2076  0.1069
13169W        W29643   0.890   6.799  13.994 -0.0342 -0.1466  0.2095
13170W        W29644   2.172  10.733  15.281 -0.1192 -0.1333 -0.0653
13171W        W29645  11.228   4.368  15.527 -0.5458  0.1158  0.0675
13172W        W29646   6.075  13.957   3.822 -0.2341  0.0760 -0.2180
13173W        W29647  13.595  13.500  14.295 -0.3153  0.0492  0.1407
13174W        W29648   4.153  15.216   5.187 -0.0788  0.0959  0.1570
13175W        W29649  11.981   4.837   0.245  0.0498  0.1279 -0.1115
13176W        W29650  13.424  16.774   2.200  0.1963 -0.1403  0.0633
13177W        W29651   8.548   4.656   3.635  0.1894  0.2381  0.3541
13178W        W29652   6.197   3.548   2.553 -0.1478  0.0937  0.0710
13179W        W29653  17.938   9.054  14.764 -0.0596  0.1489  0.0900
13180W        W29654   0.508  12.017   0.071  0.2719 -0.0230 -0.2841
13181W        W29655  14.013   7.598  15.008  0.2082 -0.0375 -0.1983
13182W        W29656   3.663   3.794  12.188  0.0142  0.1782 -0.1104
13183W        W29657  10.163  18.128  13.454  0.1308 -0.0576  0.0679
13184W        W29658  14.552  16.428  13.131  0.0278 -0.0038  0.0639
13185W        W29659   1.469  12.490  11.555  0.2752 -0.0540 -0.2449
13186W        W29660   5.674  15.426  16.275 -0.2122 -0.0991  0.0303
13187W        W29661  17.044   8.068  15.204 -0.3774 -0.2488 -0.0692
13188W        W29662   8.694   9.491   2.492  0.1572  0.0693  0.0730
13189W        W29663  11.151  16.405  15.433  0.2870 -0.0566 -0.0978
13190W        W29664   3.685   9.985  15.872  0.0617 -0.1839  0.2062
13191W        W29665   1.247   1.580  14.218  0.2515 -0.1159  0.0840
13192W        W29666  18.074  17.086  11.848  0.3368  0.0112 -0.4912
13193W        W29667   4.291  14.731   4.858 -0.2824  0.2716  0.0243
13194W        W29668   1.104   5.134   4.644 -0.1125  0.1302  0.0081
13195W        W29669   3.525   4.348   0.957  0.0599  0.1309 -0.3393
13196W        W29670   7.830  14.925   1.530  0.0588 -0.0723 -0.1425
13197W        W29671   4.787  10.736   4.486 -0.0667 -0.2576  0.1829
13198W        W29672   4.322  16.757   1.410 -0.0925  0.0573  0.0638
13199W        W29673   5.715  10.478  12.762 -0.0149 -0.1528 -0.1351
13200W        W29674   8.632  16.118  12.372  0.2253  0.0474 -0.2543
13201W        W29675   4.184   1.849   1.883  0.0839  0.0945  0.0311
13202W        W29676  16.192   7.525  13.146 -0.2993  0.4446 -0.0052
13203W        W29677  15.972   3.397   1.297 -0.0355 -0.0120  0.1894
13204W        W29678  12.493   7.048  15.493  0.1610  0.1814 -0.0663
13205W        W29679  10.717  12.329  15.101 -0.0099  0.0568 -0.0580
13206W        W29680  12.310   8.517  10.997 -0.0261 -0.0301 -0.0471
13207W        W29681   2.567   3.384   5.909  0.1740  0.1587 -0.1696
13208W        W29682   0.460  12.116  13.043 -0.1646 -0.1051 -0.0993
13209W        W29683  16.971  12.048  12.842 -0.0157 -0.2651  0.2805
13210W        W29684   0.533  14.299   2.399 -0.2768  0.1220 -0.0098
13211W        W29685  18.278  14.078   3.425 -0.0449  0.2623 -0.0691
13212W        W29686   8.252  12.273   3.067 -0.1281 -0.0566 -0.1088
13213W        W29687   3.802  11.583  10.994  0.0199  0.0200  0.0850
13214W        W29688  12.862   8.013   0.784 -0.0382 -0.0490 -0.0950
13215W        W29689  10.167  12.740   2.512  0.3824 -0.1281 -0.0232
13216W        W29690   9.957  10.991   5.333  0.0049  0.1504 -0.0668
13217W        W29691  15.477   5.719  11.436  0.2768 -0.0848 -0.0807
13218W        W29692   6.282   0.786  14.065  0.0181 -0.2192  0.1761
13219W        W29693  14.705   1.650   5.834 -0.2284 -0.2948  0.0406
13220W        W29694  16.535   2.431   4.066  0.3634 -0.1602 -0.2405
13221W        W29695   1.953  11.702   5.613 -0.3630  0.1008  0.1819
13222W        W29696  14.365  16.189  15.112 -0.0260  0.1060  0.0232
13223W        W29697   4.944   1.072  13.750  0.1299 -0.0962 -0.2683
13224W        W29698   8.530   1.508  14.966 -0.0197 -0.3945 -0.1669
13225W        W29699   0.534  16.642  13.224 -0.1775  0.2573  0.2241
13226W        W29700  14.084  16.326  11.581 -0.0366 -0.2208  0.0472
13227W        W29701  10.492  10.208   3.092  0.0609 -0.1316 -0.3067
13228W        W29702  18.018   6.638   1.332 -0.0766 -0.0431 -0.2235
13229W        W29703   2.035   2.065   2.362  0.2873  0.0989 -0.1509
13230W        W29704   9.302   2.106   4.869 -0.3336  0.1805  0.1369
13231W        W29705  12.756   5.192  15.580  0.2778 -0.1635  0.0908
13232W        W29706   1.615   5.361  14.850  0.0130 -0.0258 -0.1249
13233W        W29707  18.341   1.762  13.338  0.3336 -0.1507 -0.1988
13234W        W29708  13.193   4.775  14.226  0.0597  0.0616 -0.0732
13235W        W29709   0.464  16.650   5.092 -0.3758 -0.1212 -0.2154
13236W        W29710  11.324  15.064   5.107 -0.0790  0.2596 -0.1346
13237W        W29711  11.624  17.127   1.219 -0.0310 -0.2150  0.2456
13238W        W29712   1.369  13.553  15.878 -0.2048  0.0131  0.3040
13239W        W29713  10.854   1.294  14.894  0.0652 -0.2994  0.1036
13240W        W29714  12.666  11.256  15.229 -0.0212 -0.2080  0.1925
13241W        W29715   9.692  14.594   3.157 -0.4089  0.1937 -0.1789
13242W        W29716  14.726   5.255  12.918  0.1712  0.0408 -0.0583
13243W        W29717  17.304  18.360   2.525  0.1417  0.1432 -0.0666
13244W        W29718   4.943   0.690   4.964 -0.4408  0.1255 -0.0267
13245W        W29719   4.315   3.883   3.084 -0.0462 -0.1001 -0.0614
13246W        W29720  11.611   7.846  14.872 -0.4193  0.2078  0.0296
13247W        W29721   4.546  12.580  13.400 -0.0037 -0.3001 -0.1263
13248W        W29722  12.835  14.529   1.989  0.0314 -0.2734  0.1119
13249W        W29723   7.780   0.637   2.295 -0.3392 -0.1882 -0.2912
13250W        W29724   2.423  10.508   0.502  0.1770 -0.0435  0.0697
13251W        W29725  17.032  11.907  14.320 -0.1825 -0.1591  0.0518
13252W        W29726  16.623   9.477  12.136  0.0847 -0.1383 -0.1664
13253W        W29727  13.838   2.815   0.420  0.0050  0.1531 -0.1120
13254W        W29728  10.561   9.862   3.446  0.2830  0.0588 -0.2790
13255W        W29729  15.648  17.349  14.960  0.1369  0.1564 -0.0599
13256W        W29730  11.538   9.528   1.833 -0.0172 -0.0469 -0.0796
13257W        W29731  16.051  16.563   6.324 -0.0030 -0.1124  0.0236
13258W        W29732  18.152  16.611   4.103  0.1584  0.0530  0.2531
13259W        W29733  16.851  18.250  13.463  0.2259  0.1929 -0.1540
13260W        W29734   7.535  14.640   4.579  0.2586  0.0566 -0.1049
13261W        W29735   8.283  11.437   5.210 -0.1866  0.5110 -0.3453
13262W        W29736   9.385  18.056   3.953  0.1235 -0.0629 -0.1555
13263W        W29737   0.202  10.363  13.390 -0.3417  0.3415  0.2888
13264W        W29738   2.661   8.350   0.620  0.0795  0.3307  0.0695
13265W        W29739  15.616  17.164  12.269  0.1008  0.1733  0.3088
13266W        W29740   6.546   7.921  11.189 -0.2471 -0.2996  0.2177
13267W        W29741   9.764  16.826   2.287 -0.0857  0.1324  0.0980
13268W        W29742   0.043  16.179   5.082  0.1787  0.0236 -0.0180
13269W        W29743   9.767  11.052  10.141  0.0793 -0.2101 -0.2836
13270W        W29744   5.485   4.565   1.113  0.4162  0.2279 -0.0944
13271W        W29745   9.515   9.468   3.505 -0.1960 -0.1721  0.2963
13272W        W29746  10.927   3.409  12.556 -0.2137 -0.0295  0.1637
13273W        W29747   2.926  12.909   1.067 -0.3597 -0.2028 -0.1393
13274W        W29748  15.007   6.104  13.092 -0.0760  0.1311 -0.0561
13275W        W29749   7.094   7.987   5.350  0.0954 -0.0312  0.2038
13276W        W29750   0.274  17.449  11.960  0.2447  0.1257 -0.0098
13277W        W29751  11.809   3.924  15.691 -0.0955  0.0357  0.0689
13278W        W29752   6.079  12.966   3.361  0.3559  0.1797 -0.0373
13279W        W29753  10.922   4.097  11.944  0.0431 -0.0134  0.3618
13280W        W29754  16.502  12.914   2.340  0.2197  0.1179 -0.0294
13281W        W29755   0.414   9.393   3.688  0.0028  0.1773  0.0131
13282W        W29756  12.578  14.336  15.020 -0.0928 -0.0333 -0.1977
13283W        W29757  11.950   3.728  11.657  0.1483 -0.0674 -0.2638
13284W        W29758  17.963  12.167  15.009  0.0837 -0.1274 -0.2281
13285W        W29759  16.634  17.831   2.768 -0.3359 -0.0351 -0.0671
13286W        W29760   4.328   4.653  15.726 -0.0322 -0.2553 -0.3110
13287W        W29761  17.196   2.167   4.653 -0.0279 -0.0808 -0.3325
13288W        W29762   4.821   3.906   0.848  0.0493  0.1299  0.1606
13289W        W29763   6.959  18.134  15.212 -0.2255 -0.2005  0.0497
13290W        W29764  12.707  17.330   2.930  0.0236  0.0388  0.0671
13291W        W29765   9.144   2.724  10.936 -0.1518  0.0918  0.0269
13292W        W29766  12.504   4.719  15.603  0.0373 -0.3094 -0.0253
13293W        W29767  11.174   2.657   4.544 -0.1590 -0.2827  0.2487
13294W        W29768  13.506   6.046   3.429 -0.2145  0.0179  0.2697
13295W        W29769   4.896   3.404   0.911  0.0782 -0.0409  0.0567
13296W        W29770  16.480   8.952  11.139  0.3316 -0.4222 -0.1044
13297W        W29771  16.077  16.094   1.452  0.0390 -0.2401  0.1903
13298W        W29772  14.885   7.739  10.596 -0.1645 -0.2769 -0.0338
13299W        W29773  11.004   6.705  11.576  0.3616 -0.0873  0.0694
13300W        W29774   7.843   7.701   1.737 -0.0495  0.4204 -0.0292
13301W        W29775   2.485   1.757   4.875 -0.0415 -0.0423 -0.1147
13302W        W29776   6.016  17.079  15.426  0.0097  0.0200 -0.0747
13303W        W29777   2.210   2.971   2.644 -0.3230 -0.0929  0.0438
13304W        W29778   0.588   4.563   2.470  0.2629 -0.2695 -0.0604
13305W        W29779   7.566  14.333   5.128  0.0109 -0.0019  0.2483
13306W        W29780   5.094  13.547  15.725 -0.0647  0.3825  0.2120
13307W        W29781  11.638  15.163   3.454  0.1064 -0.3074 -0.2330
13308W        W29782   3.607  16.398   4.538  0.0273  0.0765  0.0086
13309W        W29783   3.099  17.171   3.578 -0.1175 -0.0788  0.3469
13310W        W29784  15.101   6.313   1.775 -0.0889 -0.2834 -0.0590
13311W        W29785   8.160  12.128   3.576 -0.2149  0.0773  0.2180
13312W        W29786   1.634   5.723   3.633  0.1848  0.0523 -0.2114
13313W        W29787  15.369  14.572  13.431 -0.0218  0.0092  0.0096
13314W        W29788   0.281   9.931  11.917 -0.1517 -0.0341 -0.1883
13315W        W29789   3.540   5.161   0.435 -0.0890  0.2560  0.0972
13316W        W29790   0.039   3.880  14.378  0.2510  0.1967 -0.1261
13317W        W29791  10.822   8.589  13.596 -0.1403  0.0762  0.3465
13318W        W29792   1.218   2.426   3.824 -0.0652 -0.0694  0.3545
13319W        W29793  12.142  17.617  13.099  0.0361  0.0417 -0.1379
13320W        W29794   2.851  16.321  11.829 -0.0973  0.1463 -0.0173
13321W        W29795  13.912   4.169  15.043 -0.0313  0.1569 -0.0628
13322W        W29796  12.905   2.854   0.317 -0.3398  0.0158  0.0768
13323W        W29797   7.579   4.646  15.053 -0.0712 -0.1486 -0.1286
13324W        W29798  16.735   5.740  11.406  0.1295 -0.0891 -0.1684
13325W        W29799   1.214  14.641   1.716 -0.1684 -0.1925 -0.2583
13326W        W29800  14.250  15.553   1.126 -0.2188 -0.1783  0.0694
13327W        W29801  17.352  10.196  15.202 -0.0835  0.1827 -0.0652
13328W        W29802  12.911  18.327  14.931  0.3730  0.0798 -0.0090
13329W        W29803  13.440   1.017  12.341  0.2466 -0.0969 -0.0475
13330W        W29804  13.758  13.184   2.870 -0.0052  0.2280  0.1183
13331W        W29805   9.033   6.386  15.412  0.0109 -0.2687  0.1923
13332W        W29806   6.453  13.192  12.966 -0.0364  0.3094 -0.2010
13333W        W29807  15.390   0.391   2.994  0.3007  0.0826 -0.3174
13334W        W29808   3.565  11.931  15.079  0.0600  0.3085 -0.3317
13335W        W29809  17.421  15.853   6.232 -0.1693  0.1922  0.0451
13336W        W29810  12.757   3.260  14.498 -0.0069  0.0541 -0.1046
13337W        W29811   7.536  16.182  13.658  0.1378  0.1689  0.0168
13338W        W29812  15.008   5.627  13.355 -0.3366  0.0830  0.2371
13339W        W29813   1.411  17.460   4.367 -0.3272 -0.1259  0.0560
13340W        W29814   8.641   1.197   0.735  0.0177  0.1388 -0.1074
13341W        W29815  16.987   4.668  11.326  0.0884  0.0425 -0.2191
13342W        W29816  10.493   7.092   1.033 -0.1299 -0.0498  0.4460
13343W        W29817  14.928  11.718   1.406 -0.2448 -0.0133 -0.0142
13344W        W29818  18.191  15.655   4.778 -0.0198 -0.0110 -0.2051
13345W        W29819   9.142  11.984  15.446  0.2518  0.2320 -0.0720
13346W        W29820   3.807  10.585   2.616  0.0836 -0.1505  0.2834
13347W        W29821  12.804  10.708  14.431  0.0431 -0.0842 -0.0595
13348W        W29822   3.599  18.291  13.049  0.3319  0.3983 -0.1547
13349W        W29823  12.928   2.038   4.248 -0.0402  0.1552  0.2809
13350W        W29824   1.623  18.064   0.644 -0.0285 -0.1827  0.1825
13351W        W29825   7.426  12.087  15.999 -0.0525 -0.1818  0.0480
13352W        W29826  18.359  16.761   5.034  0.1739 -0.0385  0.1324
13353W        W29827  15.168   2.811  14.572  0.0481 -0.0440  0.0960
13354W        W29828   6.081  17.821   1.990  0.3092  0.2929  0.1936
13355W        W29829   3.280   6.517  15.474  0.1387  0.2400  0.0552
13356W        W29830  15.349  13.320   3.940  0.2269  0.1516  0.1363
13357W        W29831   3.510   1.042   4.375  0.1486  0.1065 -0.1782
13358W        W29832  10.300  17.344   5.215  0.1535  0.0243 -0.3062
13359W        W29833   7.885  11.264   4.451  0.3820  0.2217 -0.4413
13360W        W29834   5.928  11.486  11.225  0.1603 -0.0652 -0.1613
13361W        W29835  13.632   9.730   0.374 -0.2347  0.0885 -0.3921
13362W        W29836  14.888  17.637  14.722  0.0830 -0.1197 -0.0779
13363W        W29837  10.052  13.723   6.263 -0.1950 -0.0388 -0.2792
13364W        W29838   2.282   4.323   2.228  0.0025 -0.1612 -0.1134
13365W        W29839   9.878   4.380   2.861  0.2831 -0.1522  0.0955
13366W        W29840   8.149  17.209   1.615  0.0730 -0.2303  0.0560
13367W        W29841  18.096  13.342  12.033  0.2029 -0.0837 -0.1747
13368W        W29842  16.280  14.629   4.613 -0.0416 -0.0000  0.1583
13369W        W29843   5.936  15.700   0.323  0.1147  0.1958 -0.1344
13370W        W29844   3.333  17.361   4.422 -0.0940  0.0592  0.1112
13371W        W29845   6.133  13.992  15.128 -0.3360  0.3741  0.2011
13372W        W29846  14.754  17.706  13.250  0.0368 -0.0789  0.0937
13373W        W29847   3.442  14.959   1.392  0.4433 -0.2531  0.0209
13374W        W29848  11.259   0.377   1.813 -0.0639 -0.1729  0.0054
13375W        W29849   7.493   9.795  14.173  0.0523 -0.0772 -0.3661
13376W        W29850   4.001   5.705   1.035  0.0264 -0.1547  0.2549
13377W        W29851  11.695   1.909   0.665 -0.1929  0.0727  0.0862
13378W        W29852   2.648  18.142  14.815  0.2976  0.0321 -0.2027
13379W        W29853   9.167   0.102   1.401  0.3030  0.1278  0.0073
13380W        W29854   7.636  15.875  12.326  0.3040  0.2039 -0.2172
13381W        W29855  14.408   8.885   1.281 -0.4226 -0.1342 -0.3455
13382W        W29856   9.382   0.084   4.535  0.2304 -0.2130  0.0050
13383W        W29857  10.321   8.202  16.118  0.0454 -0.0272 -0.0131
13384W        W29858   9.412  14.266   4.709 -0.0816 -0.0902 -0.1556
13385W        W29859  13.197  13.120   5.061  0.0366  0.0676 -0.0457
13386W        W29860   3.430  15.641   5.756  0.0885  0.0994 -0.1728
13387W        W29861   4.607   5.132   2.783  0.1025 -0.0657 -0.0214
13388W        W29862  11.189   9.445   4.497 -0.2830 -0.0723  0.2981
13389W        W29863   1.908   7.377   1.804 -0.4318 -0.2204 -0.1011
13390W        W29864   8.600   7.761  10.858 -0.4269  0.2053  0.1686
13391W        W29865   3.769   0.546   5.240 -0.2624 -0.0600  0.1813
13392W        W29866  11.511   7.094   3.282  0.0846 -0.3055 -0.0469
13393W        W29867  13.739   8.068   2.457 -0.2715  0.0621  0.0479
13394W        W29868  12.427  15.027  11.768  0.1680 -0.2242 -0.1426
13395W        W29869  12.191   1.449   0.443 -0.0825 -0.0859 -0.2505
13396W        W29870  17.464   0.582  14.267  0.3193  0.3256 -0.0364
13397W        W29871  15.516   0.944  13.708 -0.1920 -0.2024 -0.3429
13398W        W29872  15.592   2.018  14.234 -0.3034  0.0672 -0.0322
13399W        W29873   7.320  13.501   2.383 -0.1221  0.1366  0.0128
13400W        W29874   0.298   8.022  14.989 -0.1395  0.1800  0.0165
13401W        W29875  15.411  17.456   1.799  0.0700 -0.0080  0.3282
13402W        W29876  13.502   0.867  15.375  0.0979  0.3456 -0.0395
13403W        W29877   1.126   5.947  12.589  0.3033 -0.4259 -0.0215
13404W        W29878  12.957  13.013  13.923 -0.0671  0.0829 -0.3245
13405W        W29879   8.139   5.855   1.402  0.0833 -0.1272 -0.2053
13406W        W29880  17.782   4.024   3.941 -0.2798 -0.0472 -0.0536
13407W        W29881  11.848  13.964   2.865  0.0333 -0.0072  0.0418
13408W        W29882   5.163  13.801   0.610 -0.0548 -0.0634  0.2172
13409W        W29883   2.963  11.488   5.269 -0.1679 -0.0178  0.1350
13410W        W29884  13.514  15.714  12.397 -0.2081 -0.0880 -0.0737
13411W        W29885  17.250  10.470  10.768  0.1448 -0.0833 -0.2262
13412W        W29886   5.959  16.737   4.266 -0.1639 -0.0241  0.2643
13413W        W29887  14.427   0.125  15.220  0.0045  0.1279  0.1916
13414W        W29888  12.508  13.799  13.527 -0.1026 -0.4610 -0.1319
13415W        W29889   2.803   4.203   5.005  0.1140  0.0338  0.3108
13416W        W29890  10.920   4.701  14.859  0.1176  0.3115 -0.1137
13417W        W29891   7.316   1.197   3.924 -0.1382  0.0921 -0.1547
13418W        W29892   9.685  17.506  13.505  0.0273  0.1391 -0.0022
13419W        W29893   4.645   0.525   1.384  0.2495 -0.0337  0.0275
13420W        W29894   3.154   9.051   1.069  0.1841  0.1151  0.2956
13421W        W29895  12.365   5.849   2.039 -0.0552 -0.1339 -0.2144
13422W        W29896  12.556  17.779   1.122 -0.0625 -0.0563  0.4161
13423W        W29897   4.048   8.655  12.077  0.1754 -0.3847 -0.2734
13424W        W29898   4.002   8.616   1.218 -0.1219 -0.0936  0.0673
13425W        W29899   7.645   1.700   5.110  0.2739 -0.0192  0.2177
13426W        W29900   0.312   4.565   5.144 -0.0386 -0.0958 -0.1918
13427W        W29901   8.454  17.291   6.223  0.1306 -0.0117 -0.0441
13428W        W29902   0.566   2.850  14.430  0.1996 -0.2086 -0.0514
13429W        W29903   6.490  15.679   2.248 -0.0167 -0.0588 -0.0651
13430W        W29904   3.425   8.780   5.526 -0.1999 -0.1616  0.0195
13431W        W29905   2.565  13.448  13.828  0.2315 -0.0609 -0.1041
13432W        W29906   1.006  11.018  12.386  0.1382 -0.1342  0.2371
13433W        W29907   0.703  18.143  12.459  0.1854  0.0477 -0.0397
13434W        W29908   3.265  11.964   3.098  0.2713  0.1797 -0.3637
13435W        W29909  16.650  16.235   0.945  0.2098  0.0500 -0.0802
13436W        W29910  16.155  18.167  15.359 -0.0087 -0.0808  0.2111
13437W        W29911  13.404   8.700  12.392 -0.0816 -0.1540  0.0951
13438W        W29912   7.392   6.143  15.507  0.0112  0.0842  0.2484
13439W        W29913   4.617  12.445   0.139  0.4704 -0.4277 -0.1797
13440W        W29914   9.076   7.042  11.559 -0.1293 -0.0693 -0.0351
13441W        W29915   9.591  12.874  16.341  0.1106  0.0728  0.0376
13442W        W29916   7.976  16.272   5.431 -0.0551 -0.2580 -0.0166
13443W        W29917   9.308   3.463   0.943 -0.1150 -0.1115  0.0561
13444W        W29918   8.462   3.085   1.680  0.1260  0.0023  0.1279
13445W        W29919   9.026   0.434   4.375 -0.0568 -0.2317  0.0601
13446W        W29920  12.601  13.699   1.663  0.0556  0.1078  0.3185
13447W        W29921   5.971   8.850  15.288  0.0128 -0.1374  0.0254
13448W        W29922   0.212  15.905   2.749  0.0574 -0.0724 -0.0338
13449W        W29923   3.824  11.471  15.261 -0.0042  0.0073 -0.2118
13450W        W29924  15.072   7.871  11.383  0.1261 -0.2034 -0.0465
13451W        W29925   0.728   8.642   6.006 -0.1558  0.0897  0.2529
13452W        W29926  10.686  11.797  13.391  0.1078 -0.0425 -0.1920
13453W        W29927   2.428  12.412   0.701  0.0427  0.0014  0.3747
13454W        W29928  11.642   5.441   4.978  0.1091  0.0464 -0.0831
13455W        W29929  10.070   9.864  12.709 -0.2439 -0.2943  0.0271
13456W        W29930  12.379  11.426  15.595  0.0726  0.0036 -0.3475
13457W        W29931   1.430  18.316   3.365  0.1030 -0.0496 -0.0780
13458W        W29932  16.785  17.322   4.252  0.3243  0.1303  0.0200
13459W        W29933  17.230   2.680   5.555 -0.1863 -0.0544  0.0152
13460W        W29934   8.219  18.304  12.850 -0.2827 -0.3140  0.0129
13461W        W29935  12.523   9.405   4.908  0.3257 -0.0380  0.1087
13462W        W29936  16.927  17.145  14.763 -0.1052 -0.1840  0.3103
13463W        W29937  12.869  15.944   0.953 -0.3132  0.2037 -0.4223
13464W        W29938   9.153  17.459   1.136 -0.1259 -0.0197 -0.0209
13465W        W29939  15.101   7.570   3.931 -0.2480 -0.3911 -0.0640
13466W        W29940  10.358  10.670  13.569  0.0461 -0.3843 -0.0704
13467W        W29941  12.771  13.204   5.404  0.2524  0.3937  0.1569
13468W        W29942   9.938   7.409   2.242 -0.2106  0.0120 -0.3371
13469W        W29943  10.277  13.536   2.021 -0.0606 -0.0437  0.1055
13470W        W29944   3.064   0.932   3.845  0.0828  0.0074  0.0850
13471W        W29945  13.345   0.884   4.537  0.0182  0.0520 -0.1223
13472W        W29946  14.916   6.950  14.951  0.1819  0.0687  0.2927
13473W        W29947  18.243   3.967   1.695 -0.0517  0.0199 -0.0353
13474W        W29948   5.698   5.880   1.492 -0.0049 -0.3106  0.2099
13475W        W29949  16.265   3.457  15.920  0.0004  0.0784  0.4338
13476W        W29950  15.750   3.342   2.174  0.2416  0.2103  0.2185
13477W        W29951  16.673  11.190  10.291 -0.0225  0.2453  0.0698
13478W        W29952   1.981  11.337  14.430 -0.0687 -0.2109  0.0217
13479W        W29953  10.134   5.251   4.117  0.2464  0.2042  0.0731
13480W        W29954  12.621  11.322  12.630  0.0827 -0.1007  0.0139
13481W        W29955   0.257   2.524  15.550 -0.1198 -0.0375  0.0781
13482W        W29956   5.540  12.220   4.539 -0.0541 -0.0069  0.0468
13483W        W29957   4.529  15.556  11.012  0.1149  0.3567  0.2229
13484W        W29958  16.033  17.366  15.874 -0.1588 -0.0892  0.2141
13485W        W29959   6.159  12.658  15.067 -0.1927  0.0328 -0.0866
13486W        W29960  12.157   1.505   3.944  0.0013  0.2207  0.1821
13487W        W29961  15.542   0.094  13.824 -0.0118 -0.2877  0.2186
13488W        W29962  17.917  14.576  13.421 -0.1476 -0.0581 -0.2246
13489W        W29963   1.102   0.036   2.041  0.1533  0.0483 -0.1095
13490W        W29964   6.226  18.348  12.298 -0.1938  0.1721 -0.1352
13491W        W29965  15.096  15.861  13.933 -0.1673 -0.0242  0.1251
13492W        W29966  17.239   4.463   5.132 -0.1136  0.2009  0.2886
13493W        W29967   6.148  16.281  15.955 -0.2241 -0.2031 -0.2096
13494W        W29968  14.966  10.171  10.778 -0.1487  0.2365 -0.2408
13495W        W29969  14.997   8.801   2.494 -0.1238 -0.2583 -0.3866
13496W        W29970  15.229  18.291  15.200  0.2130  0.1358  0.0498
13497W        W29971   0.602   0.738   4.534 -0.0389 -0.3392  0.3154
13498W        W29972  12.789   6.977  10.985  0.3984  0.3089  0.3288
13499W        W29973   6.873   7.731   4.160 -0.0740 -0.0668  0.2787
13500W        W29974  15.179   7.878   0.738  0.0304  0.0959 -0.1842
13501W        W29975  13.599   0.945   2.046  0.1370  0.0541  0.3914
13502W        W29976   9.108  11.493   0.625  0.1449  0.1710 -0.1143
13503W        W29977  12.096   4.091   3.050 -0.0844  0.2302  0.3877
13504W        W29978  14.269  13.146  13.578 -0.2906  0.0782  0.3181
13505W        W29979   4.391  10.830  15.948 -0.0018 -0.1460  0.0412
13506W        W29980   9.575  13.122  14.875 -0.0331 -0.1259 -0.2608
13507W        W29981   6.709  14.469  13.058  0.2980 -0.1101 -0.1363
13508W        W29982  16.218  13.308   1.864 -0.3499  0.3567 -0.0606
13509W        W29983  16.404   6.215   2.447 -0.1788 -0.1147  0.2021
13510W        W29984   0.411  14.774  11.803  0.0321 -0.1238  0.2023
13511W        W29985  10.162  10.987   1.752  0.2186  0.2605  0.1039
13512W        W29986   3.313  11.343   5.571  0.0473  0.0668  0.0296
13513W        W29987   2.339  15.824   1.862 -0.1071  0.1065 -0.1769
13514W        W29988   8.977  12.874  13.615  0.1205 -0.2574  0.1514
13515W        W29989  17.817   0.991   3.207 -0.2002  0.0060  0.0141
13516W        W29990   5.184   6.215  15.619  0.2082  0.1119 -0.2009
13517W        W29991   1.266   9.391  15.866  0.1987 -0.3650 -0.2698
13518W        W29992  13.673  14.738   4.045 -0.4856 -0.1846  0.2843
13519W        W29993  10.831  13.860  13.114  0.2186  0.1040 -0.0906
13520W        W29994  15.665   3.583   4.219  0.1683  0.2854 -0.0349
13521W        W29995   8.076   6.033   0.929 -0.1130 -0.0035  0.2367
13522W        W29996   9.470  10.900   5.016 -0.3322 -0.3387 -0.0649
13523W        W29997   9.915   4.517  12.699  0.0455 -0.1677 -0.0737
13524W        W29998  16.056  16.246   4.640 -0.0618  0.0992  0.1376
13525W        W29999  14.619   7.260   5.266 -0.4560 -0.2706  0.0272
13526W        W30000  16.142  13.114  11.930  0.1990 -0.0065 -0.2578
13527W        W30001   8.162   0.723  12.619 -0.2008 -0.2942  0.2171
13528W        W30002  13.950  16.559   0.486 -0.2139 -0.2626  0.0024
13529W        W30003  12.419   5.952   0.274  0.5067 -0.0469 -0.5265
13530W        W30004   2.563   8.050  13.026 -0.2980  0.0511  0.0453
13531W        W30005   1.068   1.671  15.442  0.3935 -0.1062  0.1040
13532W        W30006  16.287  12.013   5.452 -0.2587 -0.4985  0.1437
13533W        W30007   6.176   3.835  14.907  0.1950 -0.0306  0.3493
13534W        W30008  10.970   9.450   0.930 -0.0198  0.0878 -0.0663
13535W        W30009   8.783  11.893   0.417 -0.2243 -0.0132 -0.1718
13536W        W30010  16.228   5.402  10.569 -0.0346 -0.0121  0.4990
13537W        W30011  16.688  16.671  15.500  0.0830  0.2501 -0.1615
13538W        W30012   8.560   6.791   2.506 -0.6087  0.0937 -0.0833
13539W        W30013  11.962   9.004  12.865 -0.3678 -0.1800  0.0385
13540W        W30014   2.210   8.140  13.550 -0.1630 -0.2007 -0.4158
13541W        W30015  16.218  10.542   1.434  0.0276  0.4174 -0.2213
13542W        W30016  17.989   1.382   0.663  0.1828 -0.0991  0.1276
13543W        W30017  17.786   8.081   1.244 -0.1907 -0.3054 -0.0874
13544W        W30018  13.945  14.799  15.532  0.0071 -0.2044  0.3038
13545W        W30019  13.350   0.310  12.385 -0.1002 -0.2057 -0.3129
13546W        W30020   7.763   6.506   4.723  0.0330  0.0196 -0.1207
13547W        W30021  10.879   1.245   2.085  0.2109  0.0901  0.0107
13548W        W30022   5.837   6.222  11.953  0.3766 -0.1524  0.0048
13549W        W30023   3.291   4.077   5.792  0.1619  0.1553 -0.1532
13550W        W30024   6.045   8.535   3.743 -0.4070 -0.0883  0.1242
13551W        W30025  18.366  13.401   4.560  0.1604  0.1181 -0.1665
13552W        W30026   3.926  17.261   5.804  0.0311 -0.1024  0.2188
13553W        W30027   2.298  15.225  14.934 -0.3691  0.0838 -0.0381
13554W        W30028   1.005   4.926  13.153 -0.0759  0.3214 -0.0660
13555W        W30029  12.132   1.578  12.063  0.0625 -0.0933 -0.0368
13556W        W30030  18.108   5.307   4.515 -0.0748 -0.0353 -0.1956
13557W        W30031   2.842   1.676   2.643  0.1608  0.2881  0.1362
13558W        W30032  17.491  11.976   2.028  0.0403  0.2347 -0.2146
13559W        W30033  12.386  13.307  14.755 -0.2798  0.0608  0.1630
13560W        W30034  10.284  11.420  14.731  0.0488 -0.0329  0.1612
13561W        W30035  10.952  15.958  15.429 -0.2589 -0.1626 -0.1385
13562W        W30036  16.494  11.576   3.828 -0.0450 -0.0821  0.3990
13563W        W30037   9.192   5.943  11.521  0.0573  0.1070 -0.4761
13564W        W30038  12.336   4.053  15.744 -0.0786  0.0748  0.3095
13565W        W30039  11.669   0.609   1.820  0.1031  0.3624  0.0312
13566W        W30040  11.192   7.697   0.323 -0.1848  0.2572  0.0912
13567W        W30041   2.508  11.036  13.848 -0.0080  0.2327 -0.1118
13568W        W30042   1.261  12.686   0.129 -0.2467  0.0237  0.0104
13569W        W30043  15.065  14.144  11.141 -0.0300  0.1066 -0.1740
13570W        W30044  14.306  11.818   0.629  0.0195  0.1916 -0.0588
13571W        W30045   5.309  17.731   3.486  0.1290 -0.1669  0.2431
13572W        W30046   1.902   4.325   1.863  0.0125 -0.0382  0.0001
13573W        W30047  10.452  17.564  12.606  0.2029 -0.0989 -0.2695
13574W        W30048   8.678  11.745  11.667 -0.0027 -0.2025  0.0288
13575W        W30049   6.752  16.426   0.446 -0.1388 -0.1524  0.1781
13576W        W30050   5.767   5.240   3.609 -0.1096  0.1451 -0.0845
13577W        W30051  13.718  15.926   4.640 -0.5301 -0.0294  0.0130
13578W        W30052  11.721  12.164  15.486 -0.0979  0.0951 -0.0166
13579W        W30053  10.642   5.744  10.630  0.0905  0.0182  0.0163
13580W        W30054   5.603   9.245  15.193 -0.1346  0.0475 -0.2468
13581W        W30055  13.384  11.095  12.589  0.0558 -0.1715  0.0186
13582W        W30056   0.835  13.090  12.793 -0.1557  0.2583 -0.0664
13583W        W30057   9.861  15.299   0.466 -0.1636 -0.0184  0.1531
13584W        W30058  16.015   5.662  16.187 -0.2728 -0.2447  0.0962
13585W        W30059  13.422  15.691  15.693  0.1412  0.0233 -0.0202
13586W        W30060  10.713  15.345   4.465  0.1224  0.1845 -0.1779
13587W        W30061   4.644   2.117   5.097  0.1719  0.4220 -0.0942
13588W        W30062  15.031  16.212   6.284  0.1148  0.1069 -0.3131
13589W        W30063  13.948   3.468  13.743 -0.1491  0.0340 -0.0929
13590W        W30064   8.829  15.759   5.977 -0.0655  0.1133 -0.1220
13591W        W30065   6.278   5.858  12.192  0.2164  0.0392 -0.0330
13592W        W30066  12.527  10.614  16.144  0.1548 -0.2051  0.1382
13593W        W30067   2.853   7.906   0.819  0.1699  0.0704 -0.1907
13594W        W30068   6.933   9.171  12.319  0.0651 -0.5134  0.0377
13595W        W30069  16.854  11.655   1.844 -0.1347  0.1006  0.0674
13596W        W30070   4.669  12.319  13.923 -0.1706  0.1296  0.0897
13597W        W30071  12.769  16.040  11.808 -0.1299  0.0705 -0.1128
13598W        W30072  16.024  11.572   5.340  0.0160 -0.1248 -0.0845
13599W        W30073   5.178  17.234   0.209 -0.2644 -0.0238 -0.1272
13600W        W30074   6.363   9.133  15.977 -0.3058  0.1181  0.0319
13601W        W30075   9.672  14.312   4.255 -0.1954 -0.1924 -0.0893
13602W        W30076   9.727   1.885  15.729  0.1179  0.0792  0.0733
13603W        W30077  17.309   6.719   2.327  0.1119  0.2102  0.2160
13604W        W30078   1.048   1.775  12.563 -0.1035 -0.2968 -0.0915
13605W        W30079   5.126  13.986   3.911 -0.4579 -0.1250 -0.1594
13606W        W30080   4.961   5.072   5.404 -0.1318 -0.4493  0.0873
13607W        W30081   0.331   8.306  11.612 -0.1507 -0.1904  0.2121
13608W        W30082  12.121  16.606  13.095 -0.0244  0.1576 -0.2297
13609W        W30083  14.912   9.741   4.535  0.1255 -0.1838 -0.1685
13610W        W30084  10.828   0.770   2.220  0.0417 -0.1498  0.3354
13611W        W30085  10.117  11.471   1.814 -0.2671  0.1758 -0.1070
13612W        W30086  13.798   1.651  15.591 -0.2632 -0.0093  0.0339
13613W        W30087  17.299   6.114  15.950  0.0312 -0.0982  0.1093
13614W        W30088   9.640  13.063   5.278  0.0068 -0.2657  0.1829
13615W        W30089  13.976  15.923  14.923 -0.0630 -0.3155  0.0798
13616W        W30090   5.949  17.930  13.512 -0.6172  0.0417  0.1655
13617W        W30091  11.368   2.457  15.812 -0.1499 -0.1436  0.1036
13618W        W30092   7.573  11.259   1.384 -0.1342 -0.0066  0.0323
13619W        W30093  17.171   2.893  14.729 -0.2960 -0.1117  0.0808
13620W        W30094   5.713  16.849  12.470 -0.0866 -0.1247 -0.3051
13621W        W30095   6.261  11.484   2.824 -0.0995  0.2073 -0.0437
13622W        W30096  15.370  17.057  12.801 -0.1251  0.2099  0.1435
13623W        W30097   2.723   7.032   1.498  0.0205 -0.0177  0.1147
13624W        W30098  10.614  10.444  15.807 -0.2316 -0.0482 -0.1050
13625W        W30099  16.525  11.231  11.216  0.2272 -0.0627  0.0860
13626W        W30100   5.236   5.039  12.611  0.0652 -0.3107 -0.1274
13627W        W30101  10.497  11.595   0.835  0.0085 -0.0025 -0.3577
13628W        W30102  12.653   0.697  13.456 -0.1913  0.1141 -0.0643
13629W        W30103   8.654   9.607  12.159  0.1425 -0.2196 -0.1709
13630W        W30104   5.283  12.320  14.655  0.2401  0.0665  0.0523
13631W        W30105  12.791  11.774   6.105  0.0947  0.1791  0.4379
13632W        W30106  16.944   9.948  15.438 -0.0372 -0.1024 -0.0932
13633W        W30107  17.879  15.189  15.171 -0.0429  0.5456  0.1015
13634W        W30108   1.596  17.612   1.999 -0.4467  0.0992 -0.0747
13635W        W30109  18.338  17.241   1.893  0.0305  0.3693 -0.0290
13636W        W30110  15.185  11.296   4.055  0.0840  0.0286  0.0552
13637W        W30111  17.871   5.410  13.669 -0.0396  0.1264 -0.3042
13638W        W30112   3.812  12.782   0.469 -0.1202  0.1628  0.1450
13639W        W30113  17.615   7.882   3.074  0.0379 -0.1161  0.2279
13640W        W30114   1.715   6.670   4.903  0.2222 -0.2470 -0.0841
13641W        W30115   7.002   0.159  12.915  0.3794 -0.0935  0.0524
13642W        W30116   6.686  11.314   4.662 -0.0615 -0.3004  0.0861
13643W        W30117   4.379  15.351  12.670  0.2662  0.1959  0.2794
13644W        W30118  16.848  11.882   2.681 -0.0489 -0.0005  0.0591
13645W        W30119  13.935   8.970   3.077  0.0459 -0.0845 -0.1677
13646W        W30120  13.721   0.769   1.344  0.4450 -0.0219 -0.2627
13647W        W30121   5.599   8.000  13.766 -0.0104 -0.1501 -0.0132
13648W        W30122   4.826   5.848   1.659 -0.0507  0.1685  0.1019
13649W        W30123   7.129  14.707   1.556  0.2163  0.2158 -0.2127
13650W        W30124  14.945  14.973  15.499 -0.0808 -0.0662 -0.1690
13651W        W30125  10.465   6.643  12.437 -0.3125 -0.1789 -0.1432
13652W        W30126  15.309   7.993   5.368 -0.1853  0.3987 -0.2820
13653W        W30127   5.460  12.223   3.673 -0.1921 -0.0024 -0.0517
13654W        W30128  14.714   1.599  12.287 -0.2448  0.3563  0.0701
13655W        W30129   6.122  15.448   5.500  0.1656 -0.2884 -0.1326
13656W        W30130   1.781   7.890   2.482  0.2871  0.0496  0.3446
13657W        W30131   4.514  16.432   4.232  0.0040 -0.1406  0.0071
13658W        W30132   6.218   9.513   3.049 -0.0360  0.0307 -0.3391
13659W        W30133   5.609   0.991   2.311  0.4152 -0.1196 -0.1379
13660W        W30134   8.399   1.902  14.183  0.1661 -0.2072 -0.1837
13661W        W30135  10.733   8.414  14.364  0.0175  0.3579 -0.0325
13662W        W30136  12.726  15.740  12.228  0.1088 -0.1301  0.3375
13663W        W30137   8.436   4.181  15.178  0.0885 -0.2027  0.4046
13664W        W30138   2.896  13.674  15.286  0.1173 -0.1844  0.0640
13665W        W30139  12.114  16.941   5.996 -0.1347  0.0216  0.1548
13666W        W30140   0.898   4.905  12.125 -0.2572 -0.0534  0.4540
13667W        W30141  15.054   1.272   4.406  0.0878 -0.1973  0.0144
13668W        W30142   8.845  13.932  13.974 -0.1460  0.1281 -0.1711
13669W        W30143   0.360  11.024  15.898  0.0999  0.0014 -0.2502
13670W        W30144  12.285   5.914   3.251  0.0819  0.1266  0.0513
13671W        W30145  15.006  11.766  16.340 -0.2242  0.0783  0.1248
13672W        W30146   5.981   7.625  14.372  0.2669  0.5262 -0.2245
13673W        W30147  17.006   7.962  16.254 -0.1755 -0.1953  0.3002
13674W        W30148   2.637   7.891  16.159 -0.0681  0.1114  0.3755
13675W        W30149  10.179   2.984   5.354 -0.0810  0.1242  0.1063
13676W        W30150   0.868   6.392   4.200  0.2385  0.0486 -0.1647
13677W        W30151   6.979   6.605  12.969 -0.0183 -0.0609 -0.0081
13678W        W30152  15.441  10.569  15.136  0.0147 -0.0987  0.1812
13679W        W30153   3.399   2.877   3.473 -0.1483  0.0862  0.1050
13680W        W30154   2.876  12.567   1.619  0.0314 -0.0767  0.1116
13681W        W30155   2.945  11.491   1.080  0.0591  0.0364  0.0016
13682W        W30156  10.990   1.353  13.279 -0.0284 -0.3296  0.1189
13683W        W30157   5.833  13.772   1.356 -0.3411  0.0493  0.2209
13684W        W30158   7.665   1.024   1.826  0.1006 -0.1871  0.2698
13685W        W30159   6.170   1.473  15.865  0.2033  0.0040  0.1133
13686W        W30160   5.453  17.261  12.597 -0.0246 -0.0763  0.2910
13687W        W30161   0.330   7.539   2.033 -0.1011  0.4203  0.1031
13688W        W30162  10.083   6.157   5.103  0.0582 -0.0453  0.1263
13689W        W30163   0.233   6.055  12.720  0.0542 -0.0678  0.0852
13690W        W30164   0.969   5.324   3.104  0.2680 -0.2304 -0.0022
13691W        W30165  17.268   1.518   2.505 -0.0561  0.4511  0.0458
13692W        W30166   8.971  17.978  11.905 -0.0664 -0.0122 -0.1277
13693W        W30167  18.212  10.816   2.887 -0.0555  0.3281 -0.0296
13694W        W30168   2.410   9.128  11.560  0.1848 -0.1283  0.0446
13695W        W30169   4.481  18.330  15.559 -0.0059  0.1701  0.3087
13696W        W30170   7.410  11.299   3.705 -0.4428 -0.0750  0.0649
13697W        W30171  17.459  16.025   2.182  0.1712 -0.0999  0.0542
13698W        W30172  18.269   7.832  14.667  0.0955  0.2714  0.0740
13699W        W30173   1.897   5.824  14.546  0.1222 -0.0745  0.1017
13700W        W30174   1.392  15.606  13.830 -0.2868  0.0003 -0.2028
13701W        W30175  11.764  10.540   5.129  0.0898 -0.3158 -0.1265
13702W        W30176   6.183  15.056  15.583  0.3926  0.0782 -0.3448
13703W        W30177  11.183  18.220  12.399  0.0409  0.2745  0.2569
13704W        W30178   9.332   3.476  11.494  0.3434  0.2324 -0.1096
13705W        W30179  10.640  17.597  15.138  0.0651  0.0702 -0.2477
13706W        W30180   1.569   3.127   3.245 -0.0199 -0.0044  0.0734
13707W        W30181  12.487   4.949  11.903 -0.2546  0.0284  0.0604
13708W        W30182  11.654  16.155  12.774 -0.0588  0.0364 -0.0764
13709W        W30183  13.265  13.544  15.627  0.1760  0.2856  0.0593
13710W        W30184   5.077   3.359   4.768 -0.1330 -0.2017 -0.0776
13711W        W30185  11.503  17.563   2.652  0.0517 -0.0490 -0.3135
13712W        W30186   8.618  16.299  11.888 -0.0604  0.2894  0.2329
13713W        W30187  15.021   2.170   4.129 -0.2980 -0.4197 -0.0848
13714W        W30188  17.184   1.595  13.282 -0.2409  0.2469 -0.1986
13715W        W30189  17.145  16.172   0.109  0.0736 -0.0470  0.1097
13716W        W30190  14.687  18.103   0.123  0.0158  0.1135  0.0735
13717W        W30191  11.366   9.782  15.480 -0.3242 -0.0868 -0.1756
13718W        W30192  11.482  11.910   0.472  0.1372 -0.0372  0.0880
13719W        W30193   4.277   9.514   4.424 -0.2171 -0.0703 -0.1969
13720W        W30194   0.651   6.955  15.270 -0.0279 -0.3022 -0.1188
13721W        W30195   6.011  14.457  13.375 -0.0225 -0.0618  0.3855
13722W        W30196  12.649  16.835  15.007  0.0403 -0.0307  0.0232
13723W        W30197   6.801   8.484   0.827 -0.0549 -0.2951  0.1376
13724W        W30198  15.536  10.563   4.295 -0.4017  0.2398 -0.4460
13725W        W30199  14.812   6.666  13.332  0.1784  0.0938  0.2155
13726W        W30200   8.747   4.912   0.036 -0.1428 -0.1376 -0.2477
13727W        W30201   7.848   6.055   4.158  0.0828 -0.1227  0.1016
13728W        W30202   2.450   4.211   4.131 -0.2437 -0.1194  0.0256
13729W        W30203  13.838  17.209   0.620 -0.4195 -0.1259  0.0414
13730W        W30204  18.345   7.929   2.154 -0.1373 -0.2648  0.5916
13731W        W30205  14.620   3.992   1.837  0.0045 -0.0670  0.0322
13732W        W30206   8.183   2.984  12.186 -0.1809  0.1474 -0.0132
13733W        W30207  11.330  10.059   2.748 -0.0798 -0.0344 -0.1486
13734W        W30208  14.817   8.500  11.250 -0.1055 -0.1714 -0.0444
13735W        W30209   2.744  11.263   1.662 -0.1808 -0.1840 -0.1078
13736W        W30210   5.278  12.062  16.283 -0.2815  0.0869 -0.2454
13737W        W30211   7.003  10.062  11.613  0.2071 -0.0128  0.0703
13738W        W30212  11.483   3.793  14.475  0.2867  0.2213 -0.1104
13739W        W30213   5.273  10.541  15.373  0.1953 -0.0731 -0.2376
13740W        W30214   2.571   2.014   0.925  0.2711 -0.1990 -0.2705
13741W        W30215  16.117   5.766   1.821  0.3455 -0.0712  0.0909
13742W        W30216   2.238   1.347   4.863  0.0267 -0.1418 -0.0945
13743W        W30217   8.275   3.219  16.065  0.0044 -0.3589 -0.0926
13744W        W30218   2.770  11.314  12.187  0.3533  0.0595 -0.0737
13745W        W30219  10.585  14.048   4.534  0.1527 -0.1185  0.1881
13746W        W30220   7.002  13.170   5.106  0.0398 -0.1411 -0.1509
13747W        W30221   7.177   0.646  15.325  0.1736  0.0938 -0.3801
13748W        W30222  10.297   9.281   5.139  0.0513 -0.0727 -0.1757
13749W        W30223  16.515  15.907   1.905  0.2569  0.2158  0.0008
13750W        W30224   9.617  15.792  13.525  0.2026 -0.0937  0.0463
13751W        W30225   5.390   0.915  13.907  0.1201  0.3545  0.0893
13752W        W30226   5.707  17.529  13.304 -0.0884  0.1460 -0.0988
13753W        W30227   7.500   3.902  13.332 -0.0870 -0.1190  0.1228
13754W        W30228   8.916  12.014  14.959 -0.0301  0.2724 -0.3554
13755W        W30229  17.182   4.490  16.141  0.0424  0.1019 -0.0204
13756W        W30230   7.011   1.809  13.070 -0.2154  0.2066  0.0396
13757W        W30231  11.996   7.206  13.285 -0.3521  0.2506  0.0020
13758W        W30232  13.446  14.070   3.135 -0.0928  0.1095 -0.0444
13759W        W30233   8.509   8.310  12.752  0.1217  0.1716 -0.1084
13760W        W30234   0.670   9.804  12.283  0.1126 -0.0825  0.0072
13761W        W30235  17.617  14.957   0.446 -0.5104 -0.0919 -0.3266
13762W        W30236   7.106   3.365  15.349  0.0880  0.0627 -0.0496
13763W        W30237   7.022  14.458   4.460  0.4305 -0.0473 -0.2424
13764W        W30238   9.323  12.999   6.288  0.0662 -0.2061  0.3218
13765W        W30239  17.925  10.709  11.336  0.1321  0.1923 -0.0593
13766W        W30240   0.366   4.325  15.221 -0.0353 -0.2786  0.1808
13767W        W30241   2.752   3.511   3.158  0.0893 -0.4486  0.1835
13768W        W30242  17.595   6.787   3.785 -0.1968  0.1038 -0.0322
13769W        W30243   8.905  11.455  13.710 -0.0261  0.2384  0.2797
13770W        W30244  17.766  10.900  14.932  0.3169  0.1428 -0.1010
13771W        W30245  11.735  16.218   4.505 -0.0569 -0.0364  0.0916
13772W        W30246   7.471  14.626  10.627 -0.2627  0.0078 -0.0642
13773W        W30247   5.495  14.020   0.369 -0.1769 -0.0666 -0.0706
13774W        W30248   5.817  12.831   0.004 -0.0754 -0.2607 -0.1683
13775W        W30249   6.773   7.757  16.084  0.0802 -0.0041  0.1018
13776W        W30250  11.999   7.421  12.739 -0.0963 -0.1597 -0.0324
13777W        W30251  16.170   4.811   5.151 -0.1382  0.1301  0.2057
13778W        W30252  16.770   6.232  13.557 -0.0775  0.0543 -0.1308
13779W        W30253  15.500   4.903   4.076  0.1296 -0.0191 -0.0810
13780W        W30254  12.034   5.547  11.222  0.1626  0.0961  0.0650
13781W        W30255   9.659  10.864  15.116 -0.0686  0.0102  0.1365
13782W        W30256   6.440  12.491   5.474 -0.2817  0.0096 -0.1301
13783W        W30257   4.756   6.382  15.282  0.0372 -0.1877 -0.1574
13784W        W30258   0.142   3.407  15.089  0.1353 -0.0824  0.2448
13785W        W30259  11.971   5.179  13.789 -0.3507  0.3592  0.0005
13786W        W30260   1.103   5.738  15.114 -0.1956 -0.1776  0.4282
13787W        W30261  16.925  12.087  16.194  0.0497 -0.2848 -0.0409
13788W        W30262  11.340  13.107  12.373 -0.1436  0.2150  0.0404
13789W        W30263  13.180  14.306  12.342  0.0688 -0.0452  0.0974
13790W        W30264   8.013   8.193  13.007  0.0964  0.1357  0.2688
13791W        W30265   9.361  15.707   0.401 -0.2653 -0.0307  0.0164
13792W        W30266   0.855   5.621  11.642 -0.0703  0.3134  0.1450
13793W        W30267   8.795   0.061   4.610 -0.2119 -0.0163 -0.0862
13794W        W30268  13.257   9.938   3.484  0.0506 -0.1817 -0.4059
13795W        W30269   9.533  12.746   2.401 -0.2993  0.0641  0.1166
13796W        W30270  16.201   9.273  13.283  0.0133  0.4292  0.3517
13797W        W30271  14.890   8.931  16.223  0.4091  0.0989  0.0987
13798W        W30272  15.667  13.737   4.024  0.0441  0.1183 -0.1736
13799W        W30273   1.097  14.559   3.110  0.0833 -0.3802  0.1257
13800W        W30274  16.570   8.000  10.023 -0.5751  0.1393 -0.2208
13801W        W30275   5.788  12.514  13.757 -0.0663  0.1276 -0.0875
13802W        W30276  11.876   1.631  15.922 -0.2535 -0.1520 -0.0739
13803W        W30277   8.491  16.872  11.751  0.1465  0.1838 -0.3340
13804W        W30278  16.989  11.047   3.436 -0.1036 -0.2449  0.1793
13805W        W30279  17.624   9.161  15.545 -0.1521  0.1135 -0.0500
13806W        W30280  16.244   1.190  14.636 -0.1118 -0.2658  0.0632
13807W        W30281   9.657  15.721   2.001 -0.3272  0.0747  0.0242
13808W        W30282  15.024   0.711  13.926  0.1289 -0.1284  0.1590
13809W        W30283  12.105   8.915   3.065  0.2521  0.2007 -0.2700
13810W        W30284   5.596   3.952  13.327 -0.0582 -0.2499 -0.0751
13811W        W30285  15.151  12.596  13.821  0.1959 -0.2468  0.2816
13812W        W30286   3.118   8.134   2.672 -0.0658 -0.0858  0.1261
13813W        W30287   8.197  10.143  11.033  0.0621 -0.0962  0.1851
13814W        W30288   5.950  11.105  15.245 -0.0990  0.0975 -0.0938
13815W        W30289  17.638   6.843  15.671 -0.2163  0.2198  0.0721
13816W        W30290  16.352  12.171  11.958  0.1975 -0.1983  0.0733
13817W        W30291  16.457   3.590  13.846 -0.1005  0.2300  0.1550
13818W        W30292   0.098   6.533  12.764 -0.0353 -0.3664 -0.2421
13819W        W30293   6.490   9.912   3.216  0.0249 -0.3221  0.0006
13820W        W30294   4.950   6.783   2.968  0.1769 -0.2533 -0.1398
13821W        W30295   5.678  12.448  14.314  0.4510 -0.0371  0.0160
13822W        W30296   7.012   3.910   1.048 -0.0486  0.1080 -0.1668
13823W        W30297   4.438   1.804   4.659  0.0211  0.0668  0.1357
13824W        W30298   3.607   0.444  15.864 -0.1819 -0.1698 -0.0748
13825W        W30299  14.701   0.327   4.187  0.0720  0.1962 -0.4610
13826W        W30300   8.078  17.641  15.634 -0.3555  0.2595  0.1877
13827W        W30301   1.402   0.830   0.835 -0.1206 -0.2647  0.2212
13828W        W30302   5.487   6.684  14.240 -0.1565 -0.0973 -0.0351
13829W        W30303  16.771  10.198   4.208 -0.1890  0.0634 -0.0402
13830W        W30304  16.816   4.869   4.418  0.1999  0.2249  0.2537
13831W        W30305  14.638   7.543   1.409 -0.0946  0.2428  0.1061
13832W        W30306   8.803   2.175   0.779 -0.5200  0.0483 -0.1944
13833W        W30307  16.857  11.601   0.764  0.2602 -0.1839 -0.0256
13834W        W30308   3.871   8.620   5.332 -0.2436 -0.0476 -0.4629
13835W        W30309  13.747   5.351   4.752 -0.1398 -0.2321  0.1987
13836W        W30310   6.679   9.617   2.340 -0.0377  0.1707 -0.3156
13837W        W30311   4.696   2.925   1.766 -0.1316  0.0814 -0.0877
13838W        W30312   5.965  14.073  12.979  0.1771  0.0262  0.0536
13839W        W30313   8.262   6.907  11.015 -0.3350 -0.2268 -0.2784
13840W        W30314  16.382   3.020   4.344  0.1879 -0.1272 -0.2963
13841W        W30315  11.891  16.687  15.503 -0.2490 -0.0173 -0.0446
13842W        W30316   2.834  17.590   5.707 -0.2986  0.0076 -0.1742
13843W        W30317   7.271   8.385  12.850 -0.2565  0.5728 -0.1357
13844W        W30318   8.817   4.357  15.421 -0.1851  0.0231 -0.0687
13845W        W30319   4.458   3.495   3.657  0.2307  0.0789 -0.2791
13846W        W30320   0.228   8.410   1.212  0.1358  0.0071  0.0258
13847W        W30321  12.571   9.170   3.309 -0.0395 -0.0319 -0.1708
13848W        W30322   4.844  17.901   4.246  0.0104  0.0500 -0.0503
13849W        W30323   3.563   9.078  12.608  0.4125  0.1288  0.1508
13850W        W30324  15.957   3.110   3.524 -0.1973 -0.1737 -0.0851
13851W        W30325  16.896   9.242   5.156 -0.0923  0.2225  0.1843
13852W        W30326   6.556  14.576  14.779  0.2037 -0.2008 -0.0918
13853W        W30327   2.635   3.099  15.915 -0.2910  0.1705  0.1451
13854W        W30328   4.049   6.820  13.722  0.0869  0.0504 -0.0050
13855W        W30329   6.952  16.492   2.693 -0.3811 -0.1148  0.0536
13856W        W30330   6.924  15.298   0.040 -0.0784 -0.1004  0.3629
13857W        W30331   9.696  13.255   3.106  0.2673 -0.1833  0.3545
13858W        W30332  11.614   2.885  13.878  0.0415 -0.0695 -0.1195
13859W        W30333   8.789  16.284   2.737  0.0607  0.2517  0.1449
13860W        W30334   4.525   7.625  13.143 -0.2477  0.4942  0.2725
13861W        W30335  10.201   7.653   4.232 -0.0653  0.0622  0.0928
13862W        W30336  14.403   7.631  15.334  0.2020  0.1732  0.0091
13863W        W30337   6.857   0.149   3.567  0.1697 -0.2185 -0.0403
13864W        W30338  13.485  10.806  15.295  0.0403  0.0243  0.4638
13865W        W30339   4.858   9.325  15.868  0.2328 -0.0121 -0.0021
13866W        W30340   7.446  17.866  15.039  0.0241 -0.1416 -0.0404
13867W        W30341  15.618  12.381  11.080 -0.0217  0.0028  0.2680
13868W        W30342   8.583   0.754   4.322 -0.2430 -0.1074  0.0763
13869W        W30343   1.333  16.002  14.153  0.0776  0.1949  0.2143
13870W        W30344   0.375  12.353   0.836  0.2035  0.2468 -0.1764
13871W        W30345   9.313  13.631  12.724 -0.2469  0.1309 -0.2029
13872W        W30346  14.941   0.794  14.900 -0.2344 -0.0538  0.2529
13873W        W30347  12.410   2.562   0.390 -0.0630  0.0635  0.0119
13874W        W30348  12.204   8.943  11.273 -0.1018  0.1046  0.0003
13875W        W30349  11.561  10.986  15.173  0.1512 -0.1615  0.2170
13876W        W30350   4.421   6.051  12.418  0.0412  0.2487  0.2347
13877W        W30351   9.689  14.769   5.341  0.2329  0.2986 -0.0475
13878W        W30352  13.492  17.952   2.045 -0.0405  0.2291 -0.1842
13879W        W30353   3.462  13.415  11.961 -0.1281  0.1223  0.3250
13880W        W30354   2.751   4.871  12.734  0.1637 -0.2664 -0.2295
13881W        W30355   8.579   9.084  15.047 -0.1133  0.0639 -0.2990
13882W        W30356   7.414  10.435  13.414  0.0991 -0.1679  0.1504
13883W        W30357   2.922  14.716  13.227 -0.0501  0.2949  0.0509
13884W        W30358   3.366  12.327   2.634  0.1947 -0.0643 -0.4889
13885W        W30359  11.672   4.138   3.852 -0.0551  0.1856 -0.1799
13886W        W30360  14.712   2.982   0.006 -0.1189 -0.3251  0.0834
13887W        W30361   2.513  12.253   4.374  0.2044  0.0192  0.2036
13888W        W30362  14.153  14.111   0.184 -0.0558  0.1414  0.0536
13889W        W30363  15.334  15.119   5.411  0.1764 -0.0841 -0.1149
13890W        W30364   0.633  11.624   0.396  0.0189  0.2378  0.0265
13891W        W30365   4.525   8.650  10.266  0.2903  0.0033 -0.0396
13892W        W30366  10.154   0.127   0.220 -0.1837  0.1933  0.1205
13893W        W30367   8.422   1.675   1.641 -0.0634  0.0275 -0.1721
13894W        W30368  16.331   3.989   2.432  0.0400  0.2235  0.2759
13895W        W30369  17.838   1.839  16.106  0.2808 -0.2772  0.2571
13896W        W30370   3.192   4.436   2.960  0.0943  0.1521  0.1478
13897W        W30371  15.968  12.276   3.320 -0.1138  0.4374 -0.0596
13898W        W30372   1.917   7.941  14.199  0.1797  0.0029  0.1895
13899W        W30373   0.618  10.231  12.644  0.1537  0.1504 -0.1017
13900W        W30374   9.497  11.822  12.212 -0.1333  0.2710  0.2296
13901W        W30375   3.018  14.786   2.255  0.1619 -0.2196  0.1047
13902W        W30376  12.170   3.355  13.742 -0.1611  0.3358  0.0775
13903W        W30377  13.845  15.111  14.314  0.0677 -0.0931  0.1041
13904W        W30378   4.778   1.661   5.157  0.3343 -0.1357  0.3094
13905W        W30379   2.605  15.579   0.546 -0.2783  0.0033  0.1487
13906W        W30380  15.055   4.286   1.931 -0.3056 -0.1760  0.0265
13907W        W30381   2.623   7.127   6.212  0.0030  0.0034 -0.1591
13908W        W30382   7.856   6.828  13.746  0.1658 -0.1248 -0.0018
13909W        W30383  10.415   2.116   1.090  0.1312  0.0358 -0.0925
13910W        W30384   4.515   8.110  15.595 -0.0822  0.0620  0.0538
13911W        W30385  11.522   4.027  16.200 -0.1583  0.0727  0.2923
13912W        W30386  18.363  15.503  14.428  0.2803 -0.2857 -0.1299
13913W        W30387   6.303   2.363   4.144 -0.2641 -0.0614 -0.0326
13914W        W30388   3.217  16.181   5.355 -0.0489  0.1218  0.3470
13915W        W30389  13.664  14.390  12.491 -0.2377 -0.0579 -0.1396
13916W        W30390   2.597   7.855  13.520 -0.0203 -0.4923 -0.4043
13917W        W30391   7.932  14.414   2.170 -0.2713  0.0806  0.2486
13918W        W30392   1.796  14.905   0.627  0.1709 -0.1987 -0.2166
13919W        W30393   1.637  13.070  12.331  0.1979 -0.0594  0.2297
13920W        W30394   6.185   4.731  13.293 -0.1934 -0.1712 -0.0390
13921W        W30395   5.272   4.266   1.441 -0.0325  0.3659 -0.2527
13922W        W30396   6.064   3.023   5.577  0.2414  0.3140 -0.0894
13923W        W30397  13.576   2.649   1.467 -0.0168 -0.0857  0.0721
13924W        W30398  15.154  13.571  10.602 -0.1419 -0.1616  0.0945
13925W        W30399   4.869   8.314   0.289  0.0560  0.3791 -0.1991
13926W        W30400  11.272  10.479  16.070  0.0170  0.0635  0.1773
13927W        W30401  10.253  17.373   2.989  0.1342 -0.1127 -0.0234
13928W        W30402   1.058   4.851   4.171 -0.0569 -0.0583  0.2042
13929W        W30403   9.981   8.570   0.841  0.0313  0.1520  0.1698
13930W        W30404  12.631  15.049  12.664 -0.1797  0.1714  0.1554
13931W        W30405   7.170   1.771  15.664 -0.1031  0.0364  0.0912
13932W        W30406   3.120   9.192   5.556 -0.1446  0.0592 -0.3361
13933W        W30407  13.787   2.975   4.540 -0.0787 -0.0206 -0.0278
13934W        W30408  12.290   1.885   1.927  0.4819 -0.0045  0.2490
13935W        W30409   4.087   0.442   3.182 -0.1843  0.3743  0.4230
13936W        W30410  14.232  12.268   1.825  0.0139  0.0523 -0.0212
13937W        W30411  14.703  12.486  11.917 -0.1467  0.1731  0.2034
13938W        W30412   4.603   0.640   1.894  0.0551  0.3752 -0.1257
13939W        W30413  17.232  10.367   4.113  0.0450 -0.0644 -0.0769
13940W        W30414  16.622   7.031   5.099  0.2105  0.0401 -0.1205
13941W        W30415   4.930  12.915   1.033  0.1483  0.1608  0.1293
13942W        W30416  12.549  13.615   0.661  0.1026  0.0200 -0.0440
13943W        W30417   3.377   1.893   3.928 -0.1839  0.5074 -0.1424
13944W        W30418  12.837   2.475  10.482  0.4034 -0.1657  0.0589
13945W        W30419   0.984   3.067  13.474 -0.1323 -0.0078  0.1047
13946W        W30420   9.197  17.840  12.323  0.1890 -0.0333 -0.4451
13947W        W30421   7.735  13.615   1.581 -0.0033  0.0720  0.2369
13948W        W30422   6.392  17.381   0.243 -0.0208  0.1291 -0.1036
13949W        W30423  17.750   8.323  15.935  0.3346  0.4001  0.1557
13950W        W30424  15.273   5.894   1.073 -0.0776  0.2083 -0.0043
13951W        W30425   5.412   6.885  16.171  0.0265  0.3060  0.3401
13952W        W30426  11.712   8.754   0.489 -0.0848  0.0763 -0.0847
13953W        W30427  11.710   3.615   0.615  0.0786 -0.2702 -0.2047
13954W        W30428   2.398   1.154   5.643  0.3842  0.1811  0.2591
13955W        W30429   7.798   8.602   0.399 -0.1015 -0.1269  0.0485
13956W        W30430   0.563   0.448   4.972 -0.0835  0.1398 -0.1211
13957W        W30431   3.239  14.880  12.261 -0.0636 -0.2781  0.1498
13958W        W30432   6.764  13.119   6.323  0.0170 -0.1946  0.0992
13959W        W30433   5.777  13.588  14.238 -0.0376  0.2733 -0.1641
13960W        W30434   0.569  17.455  14.675 -0.0960 -0.0602  0.0759
13961W        W30435   9.297   9.510   4.148  0.0247  0.0831  0.3196
13962W        W30436  15.254  12.841  15.252  0.0010 -0.1843  0.1689
13963W        W30437   3.515  10.635  14.616  0.0540  0.0609  0.0809
13964W        W30438  11.704  11.063  14.597  0.2485  0.1187  0.2906
13965W        W30439  11.728  12.644  16.296 -0.2178  0.1330  0.1188
13966W        W30440   7.359   7.694   4.183  0.1715  0.0352  0.0203
13967W        W30441   6.383   6.054   2.703 -0.1467 -0.2174  0.1282
13968W        W30442  18.146   1.723   1.596  0.1455 -0.2958  0.0072
13969W        W30443  15.065   1.122  14.365  0.1065 -0.0048 -0.3915
13970W        W30444   0.369  15.985   4.299 -0.0467 -0.3994  0.2254
13971W        W30445  15.215   3.544   4.025  0.3552 -0.0543 -0.0426
13972W        W30446   6.501   4.351  13.584  0.1929 -0.0609 -0.0596
13973W        W30447   9.376   0.646  15.425  0.5327  0.0262  0.0157
13974W        W30448  11.807   6.310   4.378 -0.0818 -0.1733  0.0433
13975W        W30449  11.431  10.034   0.421 -0.5204  0.2756  0.2533
13976W        W30450  17.585  13.145  14.614  0.0785 -0.0510  0.2015
13977W        W30451   5.944  18.387   3.341 -0.1669 -0.2720 -0.1274
13978W        W30452   1.315  11.507   0.150  0.4184  0.1120 -0.3251
13979W        W30453  15.946   2.028  12.343  0.1853  0.3328  0.3053
13980W        W30454   5.325   3.500  14.330 -0.0431  0.2982  0.2285
13981W        W30455   4.133  11.524   2.848  0.1880  0.2585 -0.4733
13982W        W30456   5.465   5.874  13.168 -0.2741 -0.0757 -0.1303
13983W        W30457   7.072   0.915  12.361 -0.0830  0.2949  0.3521
13984W        W30458   4.327   8.665  11.651 -0.0562  0.2433 -0.0207
13985W        W30459  17.551   3.061   5.489 -0.1413  0.1587  0.0792
13986W        W30460  13.174  13.001   5.579  0.0463 -0.2020 -0.2280
13987W        W30461   9.599   3.027  13.483 -0.0493  0.2502  0.1240
13988W        W30462   5.516  11.897  14.997 -0.1131  0.3666 -0.0706
13989W        W30463  11.165  11.531   2.646  0.3874 -0.0231 -0.1638
13990W        W30464   5.231   9.646   4.721  0.0546  0.2138  0.0521
13991W        W30465   3.388  13.810   4.089 -0.0647  0.2102 -0.0528
13992W        W30466   5.513  10.045  13.113 -0.0045  0.1889 -0.1034
13993W        W30467  17.190   4.181  13.481  0.0037  0.0012  0.3230
13994W        W30468  10.457  12.190  14.047 -0.0580  0.1527  0.0103
13995W        W30469   9.351   1.553  11.693 -0.1587 -0.1685 -0.0278
13996W        W30470  17.623   9.133  14.322  0.2245  0.0823  0.0088
13997W        W30471   1.312  17.397  13.047  0.4077 -0.2107  0.1301
13998W        W30472  16.640   0.445  15.035  0.0570 -0.0667 -0.2151
13999W        W30473   0.406  17.184  12.384 -0.6511 -0.0038 -0.1109
14000W        W30474  11.828   5.834  11.573 -0.2146  0.2411  0.2551
14001W        W30475  16.378   6.340  15.142  0.2754  0.2161  0.1893
14002W        W30476   7.107  14.315   1.851  0.0346 -0.0285  0.1213
14003W        W30477   7.256  17.273  13.217 -0.0297 -0.3537  0.0412
14004W        W30478   6.596  15.774  12.491 -0.0947  0.0482  0.0605
14005W        W30479  12.554   5.877  16.105  0.0631 -0.4047  0.1568
14006W        W30480   1.528   0.764  15.705 -0.0798  0.0813 -0.1799
14007W        W30481   3.937  12.832  12.381  0.1476  0.0316  0.0928
14008W        W30482  14.518  14.176   5.091  0.0313 -0.3448  0.1988
14009W        W30483  15.858   4.477  12.680 -0.0892  0.0320 -0.0970
14010W        W30484   9.408  15.479  16.287  0.2675  0.3697 -0.2718
14011W        W30485   7.736   8.240   3.440  0.3325  0.0944 -0.1278
14012W        W30486   9.736  10.884   4.562 -0.4177 -0.0097 -0.2126
14013W        W30487   6.174  12.551   3.213 -0.0873  0.2368  0.1846
14014W        W30488   4.272   7.695  13.673 -0.2026  0.1627  0.0028
14015W        W30489  15.063   3.253   3.505 -0.0929 -0.0497  0.1182
14016W        W30490   7.085   2.638   0.740 -0.0340 -0.0246 -0.4653
14017W        W30491   5.635  17.286  14.422 -0.0359 -0.0477  0.0472
14018W        W30492   2.947  17.149   1.216  0.0488 -0.1921  0.3052
14019W        W30493   7.347   2.143  11.814 -0.0560 -0.0900  0.0779
14020W        W30494  13.147  13.069  13.424 -0.1303 -0.0602 -0.1222
14021W        W30495  13.630   4.375  14.152 -0.0770 -0.0521 -0.2697
14022W        W30496   7.564   6.494  16.322  0.2104 -0.0795  0.0085
14023W        W30497   9.221   9.960  15.127  0.0281 -0.2964  0.0302
14024W        W30498   0.421   7.866  16.265  0.1111 -0.2009 -0.3145
14025W        W30499  13.271  11.677  10.998 -0.1313  0.0532 -0.4615
14026W        W30500   0.287  17.156  14.911  0.1762 -0.2413  0.1461
14027W        W30501   6.187  13.588   4.802 -0.0726  0.3270  0.1444
14028W        W30502  16.182  10.088  13.097 -0.1734  0.3537 -0.3928
14029W        W30503  16.677  12.167  11.140 -0.0023 -0.1894  0.0787
14030W        W30504  15.179   3.633   3.022  0.1249  0.0717 -0.2421
14031W        W30505   5.089   4.560  15.326  0.0733  0.0936 -0.3194
14032W        W30506  13.066  13.241   1.699 -0.0232  0.2377  0.3471
14033W        W30507   8.710   9.001   4.679  0.1288  0.2485 -0.3172
14034W        W30508   7.124   5.932   0.387  0.3994  0.4841 -0.0224
14035W        W30509  18.144  14.306  12.578 -0.1746  0.1992  0.4032
14036W        W30510   6.821   4.934   4.998  0.1262 -0.1663  0.0818
14037W        W30511  16.936   2.774   5.095  0.3068 -0.0537 -0.2355
14038W        W30512   9.249  11.981   6.042 -0.2761  0.2161  0.0513
14039W        W30513   9.607   8.234   2.191  0.3257  0.0676 -0.1136
14040W        W30514   7.646   4.318   2.184 -0.2337  0.1954  0.0246
14041W        W30515   5.929  11.929   2.688  0.0223  0.0143  0.0392
14042W        W30516  14.609  16.621   0.670  0.0556  0.1067  0.0399
14043W        W30517   9.530   2.847  11.874 -0.1013  0.2363  0.0218
14044W        W30518   2.447   9.889  12.260 -0.1082  0.2259  0.1897
14045W        W30519  11.786  15.476   2.640 -0.1762 -0.1956  0.2422
14046W        W30520  14.722  16.066  15.470  0.1148 -0.1690  0.0106
14047W        W30521  11.684   6.901  10.921 -0.1661 -0.0662  0.0628
14048W        W30522  15.732   2.185   0.965  0.0586  0.1900  0.2586
14049W        W30523  14.487  13.696   4.824  0.0578  0.1712 -0.1819
14050W        W30524  16.730   6.993  14.608 -0.0080  0.3965  0.1252
14051W        W30525  12.180  16.639   4.382 -0.0781 -0.0900  0.3482
14052W        W30526   9.950   7.912   2.154  0.2321  0.0234 -0.3020
14053W        W30527  15.751   1.098  15.445 -0.4258  0.1236 -0.0569
14054W        W30528   6.313   6.362  12.143 -0.1914 -0.0085 -0.1060
14055W        W30529   3.477  10.479   2.992 -0.3322 -0.1141 -0.2338
14056W        W30530   6.067   0.651   2.366 -0.1606  0.0935  0.1614
14057W        W30531   5.765   5.797  15.829 -0.0531 -0.1713 -0.2240
14058W        W30532   3.085  10.864   2.097 -0.2613 -0.0209 -0.1660
14059W        W30533   7.285  15.696  13.853 -0.1680 -0.0862 -0.0197
14060W        W30534   1.611  15.557   1.581  0.0305  0.1993 -0.1305
14061W        W30535   6.952   8.236   3.401  0.2795  0.0765  0.2722
14062W        W30536  13.119   5.418   0.437  0.3184  0.0070 -0.2694
14063W        W30537  18.109   5.813   1.172  0.0973 -0.1726  0.1598
14064W        W30538  11.266   3.150   2.040  0.2254  0.0183 -0.1026
14065W        W30539  13.272  17.272   5.253  0.2163 -0.0193 -0.0681
14066W        W30540  16.293  10.860   1.026 -0.1259 -0.4398  0.2851
14067W        W30541   4.656   0.925  11.902  0.1334  0.2448  0.0862
14068W        W30542   0.021   6.014   4.630  0.1969  0.1731 -0.1945
14069W        W30543   7.412  13.015   4.782 -0.0366  0.0131  0.0707
14070W        W30544   1.158   7.158  15.229  0.3925  0.1833 -0.1904
14071W        W30545   0.253  11.017  14.789  0.0032  0.0787  0.0889
14072W        W30546   9.782   7.267  16.142  0.0042  0.0754 -0.1255
14073W        W30547  14.506  14.509   1.876  0.2988  0.1437 -0.1155
14074W        W30548   4.249   0.956   1.778  0.5869  0.1397  0.1660
14075W        W30549  13.825   1.677  14.230  0.0874 -0.0035  0.1175
14076W        W30550   0.251  15.834   4.745 -0.1536  0.0091 -0.3469
14077W        W30551   4.606  11.814   4.676 -0.1590  0.1806  0.1159
14078W        W30552   1.065  13.669  11.563  0.4170  0.0903 -0.1397
14079W        W30553   6.113   9.948   0.150 -0.3220 -0.2298 -0.0845
14080W        W30554  18.074   6.369  13.661  0.3882 -0.1516 -0.1613
14081W        W30555   7.012   2.590   5.077 -0.0982 -0.1294  0.3681
14082W        W30556   5.198   9.345  12.944  0.1857 -0.0489 -0.1990
14083W        W30557  10.209   7.377  14.486  0.0072 -0.3562 -0.2047
14084W        W30558  15.556   5.732  11.961  0.0972 -0.0958  0.0048
14085W        W30559  13.919   1.229   3.928 -0.1679 -0.1844  0.2914
14086W        W30560   3.137  17.414   5.314  0.0023  0.1747  0.0108
14087W        W30561   5.464   6.208  14.586  0.0650 -0.0905 -0.1230
14088W        W30562  15.022   3.264  11.520  0.1939 -0.2440 -0.3162
14089W        W30563  11.998   2.728   2.188  0.2544  0.1557  0.0088
14090W        W30564  17.912   4.719  11.773 -0.1510 -0.0194 -0.1910
14091W        W30565  15.155  13.455   5.478 -0.2034  0.0289  0.0381
14092W        W30566  15.073  13.739   5.874 -0.1868  0.1324  0.1873
14093W        W30567  16.593   2.238   1.188  0.2080  0.0434  0.0927
14094W        W30568   9.806  14.491   4.956 -0.0813  0.3800  0.1524
14095W        W30569  13.458  16.490  13.251 -0.0582  0.2507 -0.0808
14096W        W30570   4.021   1.086   0.792  0.0772 -0.1214  0.1177
14097W        W30571  17.073   9.485   2.050  0.0831  0.2918 -0.3606
14098W        W30572  12.567   8.733   3.630  0.1461 -0.2788 -0.0977
14099W        W30573   1.025  11.443   2.368  0.1855  0.1723  0.0122
14100W        W30574   0.851   7.155  14.839 -0.2007 -0.0999 -0.0083
14101W        W30575  18.096   3.710  11.806 -0.2252  0.2364  0.0970
14102W        W30576   0.983   4.188   0.984 -0.2010  0.0503 -0.1346
14103W        W30577   4.816  18.089   1.897 -0.0700  0.1717 -0.1234
14104W        W30578   2.826  11.765   0.284 -0.2747 -0.1849 -0.0588
14105W        W30579   3.685  13.124  15.231  0.1026  0.2877  0.1868
14106W        W30580  16.470  10.665   2.637 -0.1923  0.0281 -0.0099
14107W        W30581   6.093  12.891   5.650  0.0966  0.0977  0.1084
14108W        W30582   7.104  18.296   4.845 -0.0155  0.0469  0.4357
14109W        W30583  14.181   1.266   3.036  0.0947 -0.3366 -0.0995
14110W        W30584   5.536  14.179  12.642  0.1738 -0.1453 -0.0531
14111W        W30585  11.490  14.047   4.898  0.0635  0.0542  0.1490
14112W        W30586  17.915   8.410   0.398 -0.2197 -0.2661  0.0676
14113W        W30587   7.461   3.194   0.512 -0.1223  0.3438  0.3945
14114W        W30588  15.274   7.833  14.877  0.1650  0.3420  0.0455
14115W        W30589   3.392  10.279   4.859  0.0549 -0.0134 -0.1724
14116W        W30590  18.235   4.120  12.468 -0.3050  0.3979 -0.1395
14117W        W30591   3.283   9.166  13.061 -0.2505  0.0210  0.0598
14118W        W30592  10.470  17.081   4.436 -0.1675  0.0928  0.0311
14119W        W30593   1.842  11.326   1.913 -0.0436 -0.0169 -0.0962
14120W        W30594   9.004  15.061  14.563 -0.3115  0.0474  0.0610
14121W        W30595   0.588   2.276   1.012  0.1552 -0.2455 -0.1615
14122W        W30596  13.077  11.023   1.392 -0.1295 -0.4527 -0.2336
14123W        W30597   5.950   5.140   0.035 -0.1548  0.0754  0.1526
14124W        W30598  16.995  16.285  15.511  0.3222  0.3134 -0.1510
14125W        W30599   8.927  10.474  12.501  0.2704  0.2203 -0.3600
14126W        W30600  12.823  10.165   4.885 -0.2504  0.0736  0.1727
14127W        W30601  12.879   9.697   5.091  0.1955  0.0366  0.1600
14128W        W30602  17.470  17.089  11.689  0.1140 -0.0073  0.2887
14129W        W30603  11.017   2.758   1.843 -0.0780 -0.1266  0.2499
14130W        W30604   3.245   9.800   4.644  0.3856  0.0994  0.1296
14131W        W30605   2.875   1.122  12.527 -0.1061 -0.1344  0.1072
14132W        W30606  16.910   1.666  16.133  0.2085 -0.1646  0.0992
14133W        W30607  16.887  10.217  11.554 -0.0673  0.0869  0.1572
14134W        W30608  16.272   1.039  15.515  0.2069 -0.1012 -0.0635
14135W        W30609  17.778   3.318  15.951 -0.1692 -0.2799  0.1776
14136W        W30610   8.238  17.514  13.494  0.0972 -0.0631  0.2617
14137W        W30611   1.241  16.238   0.640 -0.1549  0.0140 -0.0964
14138W        W30612  17.626  16.304   4.374  0.1599  0.3978 -0.2419
14139W        W30613   4.442  15.258  14.730  0.0333 -0.1370 -0.0206
14140W        W30614   8.923   0.594  10.523  0.1351  0.2356 -0.1411
14141W        W30615   7.467   2.643  11.714 -0.3175  0.2021 -0.1949
14142W        W30616   5.599   8.810   1.894  0.1788  0.2979 -0.2336
14143W        W30617  11.430  16.557   0.117  0.0871  0.0364  0.1438
14144W        W30618   0.022  12.508   0.475  0.0924 -0.0988 -0.2115
14145W        W30619  12.546   6.036   3.657  0.3027 -0.1759  0.0336
14146W        W30620  10.521   9.771  12.400 -0.1856 -0.0488  0.1096
14147W        W30621  15.788   6.639  15.574 -0.2220  0.1866  0.0726
14148W        W30622   4.502  17.851   3.396 -0.1735 -0.1006  0.1688
14149W        W30623  13.338  10.730  14.240 -0.1610 -0.0488  0.2768
14150W        W30624  16.642  15.356   1.784  0.0431  0.1855 -0.1389
14151W        W30625   5.908  14.580   3.724  0.1195 -0.1410  0.1194
14152W        W30626  12.985  15.546  13.466  0.1014  0.0441  0.2238
14153W        W30627  10.823  17.576   5.155 -0.0501 -0.0743 -0.1666
14154W        W30628  16.303  17.037  12.806  0.1310  0.3821  0.3766
14155W        W30629   6.165   1.797   2.216  0.0998 -0.0923 -0.3037
14156W        W30630   1.218   5.423   3.714 -0.0412  0.2424 -0.2465
14157W        W30631   8.979  13.648   2.438  0.1522 -0.0094 -0.1157
14158W        W30632   1.617  13.262   5.126  0.0877  0.1497 -0.1481
14159W        W30633   9.642   6.554   3.121 -0.0220  0.2194 -0.1924
14160W        W30634   8.319   6.995  16.266 -0.1996  0.0982  0.0514
14161W        W30635  10.390   8.228  11.874 -0.2504  0.3058  0.0101
14162W        W30636  11.853   3.403  12.502  0.1558 -0.0790 -0.1027
14163W        W30637  16.060  15.775  10.770  0.3339 -0.1542  0.4236
14164W        W30638  13.988  15.766  11.500  0.1112  0.0158 -0.0674
14165W        W30639  15.768  14.461   4.860  0.0442 -0.3122 -0.0049
14166W        W30640  13.224   8.669   3.034  0.0643  0.0273 -0.0002
14167W        W30641  11.871   0.606  14.492 -0.1859 -0.1328 -0.1930
14168W        W30642  11.809  16.988  14.425  0.3699 -0.0915  0.2691
14169W        W30643  12.872   2.561   2.472 -0.1097  0.0873 -0.1552
14170W        W30644   7.854  15.710  13.786  0.1064 -0.0497 -0.0491
14171W        W30645   4.821   8.133   3.306  0.2547 -0.0041  0.3049
14172W        W30646   4.934  18.034   3.307 -0.2395  0.0503  0.2644
14173W        W30647  12.260   4.267  14.859 -0.2175 -0.0160  0.2088
14174W        W30648   8.387  16.436  15.114 -0.2512  0.0977  0.0838
14175W        W30649   4.837   0.763  14.618 -0.3141  0.2015 -0.0477
14176W        W30650   9.866   9.616  11.659 -0.0308 -0.1414  0.1567
14177W        W30651   1.642  10.279   1.098  0.0418  0.1121 -0.1432
14178W        W30652  14.871  15.370  14.132 -0.1420  0.1250  0.1338
14179W        W30653   3.220   1.602   1.106  0.0377  0.0719  0.0321
14180W        W30654  10.679  10.880   3.913 -0.1343  0.1202  0.1671
14181W        W30655   0.590   1.532   1.834 -0.6040  0.2175  0.0897
14182W        W30656   1.383  17.821  14.341  0.0221  0.0937 -0.0449
14183W        W30657   0.099   7.016  14.286 -0.0394  0.0647 -0.1480
14184W        W30658   7.879   4.812  15.396  0.1026  0.1016  0.0417
14185W        W30659  10.404  18.059   0.347 -0.1221  0.1949 -0.0730
14186W        W30660   4.005   6.075   2.071 -0.1436  0.2289 -0.2600
14187W        W30661  10.389  13.426   0.781 -0.0880 -0.1540  0.0143
14188W        W30662   6.335   8.046  12.275  0.1905  0.3204 -0.0028
14189W        W30663  17.629   2.972  11.889  0.5501 -0.1107 -0.2042
14190W        W30664  16.617  15.650  12.360 -0.4873 -0.2392 -0.0652
14191W        W30665  13.854   0.290   2.662 -0.1207 -0.1427  0.0475
14192W        W30666  13.511  16.838   5.388 -0.4057 -0.0967 -0.2830
14193W        W30667  10.472   0.849  15.907  0.3314  0.2227 -0.0318
14194W        W30668   5.066   3.182   2.966  0.0444  0.2384  0.4211
14195W        W30669   3.969   2.805   5.994 -0.0292 -0.0858 -0.0769
14196W        W30670   3.800   0.770   3.392 -0.0229  0.0187 -0.1239
14197W        W30671  11.385   3.679  12.743  0.0228  0.1037 -0.2140
14198W        W30672  15.564   0.028   0.822 -0.0262 -0.1496  0.1247
14199W        W30673   0.060  11.152   0.046 -0.0665 -0.2244  0.1666
14200W        W30674   2.424  13.870   4.017 -0.2266 -0.0355  0.0768
14201W        W30675   5.465  16.528   2.337 -0.3059  0.1935  0.1345
14202W        W30676   0.407   8.813   0.105 -0.1453 -0.0332 -0.0567
14203W        W30677   4.970   5.827   3.315  0.0984 -0.2508  0.1774
14204W        W30678   8.223  14.553   3.991 -0.2804 -0.1530 -0.0417
14205W        W30679  16.862  12.408   3.455 -0.3512  0.1321  0.1404
14206W        W30680  15.779  16.435   5.446 -0.1096  0.3202  0.1956
14207W        W30681   5.321  16.850   1.494 -0.3194  0.5208  0.0258
14208W        W30682   4.269   7.180  15.431 -0.2602  0.0212 -0.2481
14209W        W30683   8.657  12.498   4.981 -0.2466  0.1501  0.1960
14210W        W30684  16.314   4.131   3.987 -0.2603 -0.1681 -0.1554
14211W        W30685   4.422   6.438   0.931 -0.0027 -0.2311  0.1176
14212W        W30686  13.927  15.829  12.049 -0.1293 -0.1982  0.1560
14213W        W30687  11.493  11.073   3.017 -0.1652  0.1013 -0.0101
14214W        W30688   8.066   8.939   1.303  0.2133 -0.2721 -0.1972
14215W        W30689  11.571   8.174  14.030  0.3184  0.0413 -0.0227
14216W        W30690  16.704  17.264  12.887  0.1078  0.2539 -0.1162
14217W        W30691   8.662  16.615   4.840 -0.0001  0.1984 -0.2719
14218W        W30692   6.812   5.067  11.909 -0.1105 -0.0884 -0.1510
14219W        W30693   4.768  10.647   3.838  0.0116  0.0932 -0.1158
14220W        W30694  14.382   9.580   1.157 -0.0069 -0.2830  0.0322
14221W        W30695   5.157   9.844   5.568  0.0123  0.3311  0.0238
14222W        W30696  11.021  12.959   5.864  0.1152 -0.0475 -0.0168
14223W        W30697   6.425   2.438   4.905  0.2524 -0.1948 -0.0110
14224W        W30698   9.025   0.496   0.532  0.0619 -0.0325  0.0075
14225W        W30699  12.877   5.469  13.641  0.0148  0.3554  0.0326
14226W        W30700   5.913   2.976  14.896 -0.0149 -0.0921 -0.0314
14227W        W30701   5.441   5.495   3.201 -0.2145  0.3350  0.0773
14228W        W30702   1.981  16.515   3.729  0.2580  0.2201 -0.2494
14229W        W30703  13.437  14.989   1.204  0.2723 -0.0386  0.1900
14230W        W30704   4.976   1.660  14.512  0.2149  0.0229  0.1652
14231W        W30705   1.391   5.670  11.640 -0.1828  0.0773  0.1177
14232W        W30706  12.594   0.145  13.481 -0.0264 -0.3078 -0.2317
14233W        W30707  11.511  11.170  15.656 -0.0121 -0.2572 -0.2977
14234W        W30708  13.276   7.813  11.119 -0.1587  0.0772  0.1859
14235W        W30709   4.803   0.659   0.921  0.1633 -0.1360  0.2560
14236W        W30710  12.771   0.761   1.587 -0.1615 -0.0296  0.0331
14237W        W30711  17.030  13.636   4.265 -0.2407 -0.3385  0.4618
14238W        W30712   9.526   5.159   4.395 -0.1909  0.2473 -0.1200
14239W        W30713  15.877   6.084  11.635 -0.4651 -0.0294  0.0196
14240W        W30714  13.409  15.109   3.148 -0.3004 -0.0014 -0.4147
14241W        W30715  17.211   4.222  14.426 -0.0786 -0.0277 -0.0465
14242W        W30716   2.732   1.162   2.805  0.1401  0.1650  0.3849
14243W        W30717   9.813   2.444   2.320  0.0769 -0.0645  0.0871
14244W        W30718  13.957  15.865   5.567  0.0244  0.1120 -0.3661
14245W        W30719  17.364  16.430  15.024  0.0038 -0.2772 -0.1341
14246W        W30720  14.866  16.653   5.448 -0.3199 -0.1358 -0.0826
14247W        W30721   4.082  10.979   5.111  0.0486  0.4333 -0.0747
14248W        W30722  13.042   5.709   1.403  0.0801  0.2580 -0.1272
14249W        W30723  17.058   5.676   2.366  0.0230 -0.0880  0.0653
14250W        W30724  16.704  14.157   1.638  0.3259 -0.0493 -0.0260
14251W        W30725   6.614   0.416  13.982 -0.3308 -0.0689 -0.0114
14252W        W30726   3.255   7.012   3.096  0.1914 -0.2199  0.0291
14253W        W30727   8.783  12.369  12.809  0.2629  0.0800 -0.1239
14254W        W30728  15.382  12.674   3.992 -0.0628  0.0276  0.1146
14255W        W30729  13.470   8.328   2.022  0.4205 -0.1638  0.0408
14256W        W30730   0.418   2.586   3.851 -0.0761 -0.0616 -0.2511
14257W        W30731   0.999   7.222  16.234 -0.4661 -0.2864  0.0009
14258W        W30732   1.513   7.853   1.225 -0.1680 -0.0142 -0.0663
14259W        W30733   9.890   1.235  13.684  0.1247  0.0184  0.1315
14260W        W30734  11.274   4.260   2.266 -0.2483 -0.1418  0.3426
14261W        W30735  14.206  17.522  13.222 -0.3267 -0.1220 -0.3154
14262W        W30736   3.954  17.524  13.360 -0.1559  0.1130  0.2419
14263W        W30737   5.797   6.333  12.440  0.0616 -0.0009  0.0116
14264W        W30738  14.136  13.253   0.832  0.0557  0.1902  0.1503
14265W        W30739   3.245   9.229  13.531 -0.1797 -0.1524  0.3831
14266W        W30740  13.808  14.442  11.526 -0.1937 -0.1720  0.0859
14267W        W30741  15.716  10.414  13.185 -0.3919  0.0316  0.0785
14268W        W30742  15.900   3.690   1.707  0.1364 -0.0691  0.0572
14269W        W30743  15.591  14.722  15.917 -0.0817  0.0837  0.0978
14270W        W30744  11.792  16.727   2.437 -0.1810  0.3377 -0.1683
14271W        W30745   2.468  18.262  13.180 -0.0948 -0.3122 -0.0592
14272W        W30746   6.213   8.079   1.826  0.2278  0.0023  0.1860
14273W        W30747   7.048   4.430  15.006 -0.0232 -0.1520 -0.2701
14274W        W30748  13.553   9.570   1.826 -0.2558 -0.1043 -0.0261
14275W        W30749   3.241  10.578   0.068  0.2227 -0.3118 -0.0963
14276W        W30750  16.659  16.471   5.386  0.2659 -0.0048  0.1465
14277W        W30751   2.966   6.604   0.498  0.0206 -0.0238 -0.0278
14278W        W30752  17.727  15.910   1.690  0.3218  0.1337 -0.3291
14279W        W30753  16.710   5.612   1.327  0.0153 -0.3393 -0.2543
14280W        W30754  15.324  15.033   3.510 -0.2987  0.2275 -0.0974
14281W        W30755  10.142  15.410   5.882  0.2043 -0.1261  0.0596
14282W        W30756   0.526   8.550   4.149 -0.1156  0.1315  0.2396
14283W        W30757  10.952  12.627   0.501  0.1063 -0.0552 -0.1113
14284W        W30758   7.952  15.554   2.953  0.6008  0.2510 -0.0934
14285W        W30759   4.071   5.971  12.736  0.0365  0.1017 -0.0965
14286W        W30760  16.891   9.836   5.048  0.0603  0.1209 -0.0354
14287W        W30761   9.117   0.516  15.834 -0.1767  0.1140 -0.0294
14288W        W30762   6.291   6.117   4.933 -0.1516  0.0838 -0.0942
14289W        W30763   1.613  10.117   3.952  0.3223 -0.1655  0.1364
14290W        W30764  13.727   3.374   2.154 -0.0093 -0.4538 -0.0386
14291W        W30765  16.878   2.076  12.603 -0.3159 -0.2949  0.1666
14292W        W30766  12.386   6.979   1.830 -0.0502 -0.0089 -0.1903
14293W        W30767   4.163  15.597   1.407 -0.0402 -0.0180  0.0568
14294W        W30768   4.529  16.076  13.960 -0.4057 -0.0427  0.2433
14295W        W30769  18.331   6.337  16.000 -0.1421  0.0479  0.2758
14296W        W30770  12.913   9.055  14.621  0.1440  0.1184  0.0382
14297W        W30771  11.102   2.160  16.125 -0.5110 -0.0689  0.1678
14298W        W30772  13.682  11.851   3.261  0.2691 -0.1293  0.1248
14299W        W30773   2.755  11.133   5.634  0.1973 -0.0040  0.0206
14300W        W30774   0.882   1.986   3.088 -0.2109 -0.1391  0.3091
14301W        W30775   9.037   2.973  13.220 -0.0316 -0.0171 -0.3318
14302W        W30776  15.229   8.373   0.722 -0.0907  0.1707 -0.1485
14303W        W30777   8.726   8.669  14.700 -0.0459 -0.5326  0.2475
14304W        W30778  10.466   0.846   5.274 -0.1087 -0.1351 -0.0243
14305W        W30779  16.639  11.862  15.573 -0.3013 -0.1370  0.1264
14306W        W30780  17.225  10.858  12.020  0.1244  0.2817  0.0201
14307W        W30781  12.928  13.811   3.400  0.1122 -0.0936 -0.2423
14308W        W30782  13.283   0.193   3.957  0.4872  0.0472  0.1213
14309W        W30783  14.239   9.575  11.440 -0.2428 -0.0254  0.2362
14310W        W30784   5.124  11.107   1.193 -0.2164 -0.0859  0.2897
14311W        W30785  10.994  11.534  15.636 -0.2081  0.0312  0.4713
14312W        W30786   1.447   9.718  16.218 -0.1637  0.3065 -0.3022
14313W        W30787  15.477   3.473   1.582  0.1239 -0.1580  0.3517
14314W        W30788   9.840  17.775   4.700 -0.2419 -0.2925 -0.0438
14315W        W30789   3.947   0.314   4.743  0.0259  0.2034  0.5064
14316W        W30790  11.056  12.121   0.308  0.1346 -0.2241 -0.1655
14317W        W30791   6.826   6.804  16.191 -0.1510  0.5290 -0.3597
14318W        W30792   3.189   8.853   2.355  0.0772 -0.0326  0.1951
14319W        W30793  11.680  15.116  13.546 -0.1460  0.1692  0.0550
14320W        W30794   9.763   9.103  10.781 -0.0947 -0.1052  0.0874
14321W        W30795  13.345  11.754  13.206 -0.0081 -0.0537 -0.0347
14322W        W30796   0.892   1.812  16.031 -0.3941  0.1313  0.2946
14323W        W30797  10.214  11.703   2.747  0.3544 -0.3969 -0.2226
14324W        W30798  12.943   0.774  16.052 -0.1783  0.0522 -0.1063
14325W        W30799   7.894   9.522  16.014 -0.1221 -0.4756  0.2909
14326W        W30800  17.724  18.021   4.747 -0.0861 -0.1449 -0.0172
14327W        W30801  16.731   7.116   3.401 -0.2406  0.2233 -0.0053
14328W        W30802  13.289  14.855  15.221  0.0272 -0.0607  0.1064
14329W        W30803   4.302   6.967   3.001  0.2386  0.1824  0.1795
14330W        W30804  15.111   8.437   1.250  0.2471  0.0856  0.0089
14331W        W30805  12.101   9.976   2.756 -0.0533  0.2603  0.1830
14332W        W30806   3.526   4.240   2.146 -0.0732  0.1796 -0.2870
14333W        W30807  16.502  10.048   2.799 -0.1518 -0.3382  0.2325
14334W        W30808   1.861   5.173   4.760 -0.1323 -0.2427 -0.1166
14335W        W30809  10.938  15.755   3.462 -0.2380 -0.0006  0.0494
14336W        W30810   2.048   9.362  13.181  0.0286  0.1804 -0.1659
14337W        W30811  11.439   1.492  10.208  0.1167  0.1916  0.0172
14338W        W30812  17.202   5.996  10.601 -0.0642 -0.1681 -0.1180
14339W        W30813   3.400  11.255  15.966 -0.3078 -0.0301 -0.1843
14340W        W30814   6.527  10.483  14.587 -0.0687 -0.0538 -0.0538
14341W        W30815  16.211   5.419  14.792 -0.1442 -0.0538 -0.0512
14342W        W30816   9.513  10.406   3.794 -0.1360  0.0663  0.1910
14343W        W30817  12.372  12.479  11.493 -0.0456 -0.2341  0.2216
14344W        W30818   0.381  15.268  12.751  0.0594 -0.1124 -0.2734
14345W        W30819   0.399   6.727  11.365  0.2285 -0.3319  0.0189
14346W        W30820  15.742   0.504  12.089  0.3064  0.1359 -0.2193
14347W        W30821   6.420   0.430  13.509  0.0994  0.0760 -0.5444
14348W        W30822  14.700  10.960   2.621 -0.0834 -0.0132 -0.1222
14349W        W30823   1.599   6.329  11.953 -0.0375  0.2068 -0.2009
14350W        W30824   9.443  14.978  16.127 -0.0537 -0.2720  0.0036
14351W        W30825  14.747   0.343   2.121  0.0341 -0.3081  0.0690
14352W        W30826   8.477   6.085  11.116 -0.0407  0.1377  0.0166
14353W        W30827  10.282   1.682  14.300 -0.0238 -0.0801  0.1115
14354W        W30828   2.689   7.534  15.655 -0.2958  0.3200  0.0101
14355W        W30829   6.555  10.553   3.770  0.1765  0.0853 -0.1384
14356W        W30830  14.224  12.249  14.758 -0.1348 -0.1414 -0.1604
14357W        W30831   1.574   2.591   0.610 -0.1100 -0.0317  0.0417
14358W        W30832   5.901   4.885  15.246  0.1616 -0.2272 -0.0269
14359W        W30833   0.982  16.956  12.334 -0.0450  0.0722  0.1458
14360W        W30834   5.552   9.401  13.627  0.3365  0.0263  0.0155
14361W        W30835  15.734  11.215   2.782 -0.0605  0.3945 -0.1353
14362W        W30836  15.988  17.070   6.403  0.1812 -0.0281 -0.0113
14363W        W30837  11.498   9.625   5.426  0.1457 -0.1513 -0.1034
14364W        W30838  18.226   1.608   4.453  0.0249 -0.0606 -0.0424
14365W        W30839   2.856  12.598  11.891 -0.0110  0.2604  0.0801
14366W        W30840   4.735  12.061  15.247  0.1119  0.1516 -0.1614
14367W        W30841  17.186  10.653   3.711  0.1282 -0.1084  0.4065
14368W        W30842  13.177  10.970   4.742  0.0344 -0.2961  0.0135
14369W        W30843   8.148   4.743   0.802 -0.4706  0.4491  0.2955
14370W        W30844   2.009   8.250  14.682  0.2078 -0.2351  0.0771
14371W        W30845   2.441   3.809   4.944  0.0113  0.0902  0.0974
14372W        W30846  16.276   4.482   2.016  0.0449  0.0840 -0.0707
14373W        W30847   5.917   8.086  14.124  0.3350  0.0679 -0.1327
14374W        W30848   2.459   3.992   3.545  0.2433 -0.5005 -0.3505
14375W        W30849  11.223   1.268  15.854 -0.0400  0.0430  0.0582
14376W        W30850   9.941  16.582  11.653  0.2546  0.0264  0.0062
14377W        W30851   0.285   2.449  10.622  0.0975  0.3964 -0.1476
14378W        W30852   2.973   0.774   4.383 -0.2636 -0.1026  0.2292
14379W        W30853   2.598   6.554  13.598  0.1967  0.2079 -0.2479
14380W        W30854  13.409   8.635   4.227 -0.1748 -0.0971  0.1727
14381W        W30855   3.216   4.329  11.456 -0.0879  0.0028  0.3113
14382W        W30856   4.080  11.176  11.811  0.1337 -0.2229  0.2213
14383W        W30857   9.675   3.786   4.514  0.1426  0.1267 -0.0921
14384W        W30858   0.149  10.293   4.737  0.1539  0.0742 -0.2588
14385W        W30859  15.574  12.795  12.085 -0.0621  0.0195  0.0429
14386W        W30860  13.907   0.894   2.756 -0.0103 -0.0910 -0.0972
14387W        W30861   1.393  12.825   4.145  0.1506 -0.0866  0.1285
14388W        W30862   9.363  16.456   3.649  0.0513 -0.3588 -0.0642
14389W        W30863   7.875  11.293  12.996 -0.0137 -0.1370  0.1862
14390W        W30864  13.967   1.325  11.655 -0.2855 -0.3182  0.3123
14391W        W30865  13.091  10.004   0.470  0.2464 -0.2224 -0.2836
14392W        W30866   6.920  10.086   0.630  0.0601  0.0167  0.0576
14393W        W30867   0.657   5.526  13.778 -0.0527  0.2651  0.1774
14394W        W30868   1.277  15.525  16.314  0.3974  0.1184 -0.1159
14395W        W30869   8.505  11.262  12.318  0.1465 -0.3019  0.4160
14396W        W30870   3.091   2.666   6.329 -0.0641 -0.2300  0.0112
14397W        W30871  16.226  12.032  13.258 -0.0057  0.1619 -0.0297
14398W        W30872   8.377  14.368  12.151 -0.2096  0.0765 -0.2147
14399W        W30873   5.469  16.307  13.277  0.1255  0.2297  0.0008
14400W        W30874   5.754   6.650  14.739  0.1372 -0.1684  0.0237
14401W        W30875   4.459   6.995   4.541 -0.0444  0.1404 -0.0621
14402W        W30876  12.139  16.890  12.369 -0.1290 -0.0416 -0.0121
14403W        W30877  14.554  16.968  11.599  0.3559  0.0624  0.0801
14404W        W30878   2.335  16.146  13.988  0.3012  0.1427  0.1885
14405W        W30879   1.878   9.846  13.365  0.0478 -0.3024 -0.2719
14406W        W30880   4.463  14.823  14.426 -0.0860 -0.1278  0.0994
14407W        W30881   8.937   3.222  15.354  0.0768 -0.1099 -0.1881
14408W        W30882   9.861   7.912   3.916  0.3221  0.3310 -0.0422
14409W        W30883  11.394  10.050  12.099 -0.0455  0.2440  0.0860
14410W        W30884   2.886   9.772   0.033  0.2220 -0.2594 -0.4645
14411W        W30885  17.768   6.437  12.208  0.0161 -0.3053 -0.1351
14412W        W30886   5.084  18.312   4.735 -0.0351 -0.0866 -0.0871
14413W        W30887  16.182  12.828   1.945 -0.1307  0.5108 -0.3192
14414W        W30888   6.788   1.386  13.648 -0.1350 -0.2609 -0.0977
14415W        W30889   2.225   5.566   2.484  0.0526  0.1189  0.2427
14416W        W30890  18.350  16.073   2.236 -0.2237 -0.0891  0.1705
14417W        W30891  18.330   1.061  13.516 -0.2653 -0.1317  0.1052
14418W        W30892   0.520  16.839  10.692  0.1405  0.0694  0.0452
14419W        W30893   4.592  15.724  14.395 -0.0487 -0.0866  0.2575
14420W        W30894  17.070   6.193  14.633 -0.1208  0.1652  0.0471
14421W        W30895   8.389  10.793   0.575  0.2463  0.0947  0.0369
14422W        W30896   0.033   0.721  14.350 -0.0536 -0.3078 -0.1334
14423W        W30897  11.165  11.630  14.567 -0.0298  0.0407  0.1425
14424W        W30898   2.040   7.444   2.418  0.0942  0.1004 -0.0355
14425W        W30899   8.986   2.354  15.389  0.0756  0.1329  0.0286
14426W        W30900   9.449   6.338  14.971 -0.0399 -0.1230  0.0441
14427W        W30901   4.290   3.713   1.585 -0.1347  0.0833 -0.2355
14428W        W30902   0.895  12.614   2.994  0.1821  0.2391  0.2722
14429W        W30903   0.377   1.192   2.115 -0.0728  0.1475 -0.1805
14430W        W30904   2.021   0.356   2.903 -0.0649  0.0438 -0.2092
14431W        W30905   0.434  15.328  14.377 -0.0282 -0.1596  0.0892
14432W        W30906   0.563   3.923   2.369  0.0113 -0.1176 -0.2419
14433W        W30907  11.285   5.353  11.753  0.3800  0.1976 -0.0574
14434W        W30908  12.984   6.141  11.965 -0.0957  0.1937  0.0890
14435W        W30909  11.539   5.999   0.748 -0.1330 -0.1176 -0.1205
14436W        W30910  17.195  10.486   2.173 -0.0193  0.1682 -0.2579
14437W        W30911  14.201  12.113   3.393  0.0256 -0.1318  0.3268
14438W        W30912  17.086  12.748   4.649  0.3619  0.1109 -0.0389
14439W        W30913   0.534  16.601   0.974 -0.1237 -0.2026  0.0575
14440W        W30914   8.373   4.518  10.970  0.0476 -0.2854  0.1170
14441W        W30915   6.989  16.602  15.622  0.2769 -0.1595 -0.2413
14442W        W30916  16.682   3.736   3.548 -0.1420  0.0030  0.1174
14443W        W30917  13.608   9.042   4.017  0.0043 -0.0687  0.1719
14444W        W30918   6.424  14.659   5.628 -0.1897  0.2638  0.1737
14445W        W30919  15.248  11.472  15.167 -0.2109 -0.0512 -0.1320
14446W        W30920   3.723   2.443  15.383  0.4728  0.0404  0.3225
14447W        W30921   9.661   9.760  11.145 -0.4743 -0.1072 -0.0749
14448W        W30922  12.940   7.036  14.186 -0.3162  0.1677 -0.2362
14449W        W30923  16.971   9.570  14.644  0.2375  0.1960 -0.1717
14450W        W30924  13.997   4.251  14.569  0.0208  0.1054 -0.0745
14451W        W30925  18.390  16.431  13.079  0.2652 -0.1435  0.0268
14452W        W30926   3.899  10.382  13.627  0.0767  0.0119  0.0094
14453W        W30927   0.760  13.797   0.483 -0.0850  0.0996  0.1146
14454W        W30928   6.782  14.347  13.679 -0.0941 -0.0775 -0.4534
14455W        W30929  14.499   5.832   3.764 -0.2437 -0.1641 -0.1813
14456W        W30930   7.038  16.960  13.705 -0.0140 -0.2139 -0.0690
14457W        W30931  11.464   8.985   4.298  0.2646  0.0205  0.1479
14458W        W30932  14.408   1.666   1.155 -0.0285  0.0217  0.0334
14459W        W30933  16.977  14.105  11.190  0.0613  0.0048 -0.1920
14460W        W30934   0.528  11.085  13.868  0.0587 -0.0703  0.2052
14461W        W30935   0.402   9.178  11.015  0.1161  0.2143  0.2201
14462W        W30936   7.256  13.456   5.463 -0.0099 -0.1059 -0.0245
14463W        W30937   9.249   3.690  16.112 -0.0962  0.0765 -0.1721
14464W        W30938   1.135   8.300  13.876 -0.1234 -0.0130  0.1253
14465W        W30939   5.047   8.781   1.218 -0.0466 -0.0025 -0.0784
14466W        W30940   4.732   4.960   2.146 -0.0728  0.2472 -0.2879
14467W        W30941  10.148  15.702   5.478  0.2986 -0.2560  0.0479
14468W        W30942  12.437   5.665  14.998 -0.1090  0.0514 -0.0256
14469W        W30943  10.229  15.745   2.440  0.1781 -0.0378  0.1489
14470W        W30944  16.140  18.075   3.295  0.1737  0.4001  0.2046
14471W        W30945   7.484   5.122  12.190 -0.5900 -0.0046  0.0065
14472W        W30946  15.310  14.035  13.343 -0.0301  0.0306 -0.1130
14473W        W30947  15.783  14.384  15.551  0.0239 -0.1660  0.0067
14474W        W30948   5.518  11.832  15.860  0.2114 -0.1858  0.1036
14475W        W30949  14.900   1.185  11.246  0.2199 -0.1597  0.3555
14476W        W30950   9.138  16.433   2.407 -0.1251  0.1491 -0.1337
14477W        W30951  11.997  15.018   2.456 -0.0715 -0.0199 -0.0848
14478W        W30952   3.947   0.795   4.268 -0.2578  0.3435 -0.0573
14479W        W30953   0.183   8.804   2.140  0.2950  0.0348 -0.1805
14480W        W30954  14.669   2.563  15.439 -0.1682 -0.0528  0.1122
14481W        W30955   8.677  15.584   3.445  0.0249  0.1563 -0.0032
14482W        W30956   2.423  12.487   5.264 -0.2318 -0.0416  0.0208
14483W        W30957   2.830  13.575  12.582  0.0958  0.0714  0.3996
14484W        W30958  13.271   3.041  15.974  0.0535  0.0831  0.0854
14485W        W30959   6.782   8.273   2.294  0.0965 -0.0025 -0.2635
14486W        W30960  15.568  16.126  16.148  0.1818 -0.1743  0.0746
14487W        W30961   8.326  17.005   2.952  0.1325  0.3245  0.0060
14488W        W30962   7.121  14.712  15.674  0.1750  0.1007 -0.1971
14489W        W30963  12.382   5.516   2.884  0.1901 -0.3252  0.1317
14490W        W30964   7.253  16.103   1.796  0.0129 -0.0965  0.2795
14491W        W30965   7.944   5.411  12.042 -0.0600 -0.0095  0.0673
14492W        W30966   2.686   1.621  15.857 -0.0556  0.2669  0.0835
14493W        W30967   0.999   3.031  11.375  0.0604  0.3678 -0.1251
14494W        W30968  14.638   4.303   2.784 -0.1052  0.2278  0.0784
14495W        W30969  11.339  18.067  11.124 -0.0381  0.0009  0.0395
14496W        W30970  14.603  11.347   1.266 -0.0654 -0.0385  0.1591
14497W        W30971  12.996   6.593  15.387 -0.2423  0.0915 -0.2454
14498W        W30972  10.661   8.510  11.500 -0.2645  0.2701 -0.1160
14499W        W30973  16.769   6.807  13.635 -0.0641 -0.0293  0.1216
14500W        W30974  10.162   9.151   0.659 -0.0880  0.1169  0.0068
14501W        W30975   6.399   1.174   0.624  0.0048  0.1406  0.0391
14502W        W30976  17.803  11.494  12.099 -0.3493 -0.0814  0.2635
14503W        W30977   7.452   2.314  13.419 -0.0567 -0.1335 -0.0455
14504W        W30978   5.734  14.482  13.815  0.0447  0.0848  0.1158
14505W        W30979   3.411   7.988  15.560  0.0047 -0.0372 -0.0128
14506W        W30980   2.727   3.443   4.634 -0.0533 -0.2632  0.1049
14507W        W30981   2.342   2.966   5.775 -0.1778  0.0329 -0.0854
14508W        W30982  15.735   4.576  11.040 -0.2205 -0.0105  0.1615
14509W        W30983   8.105   6.513  16.002 -0.4865  0.1400  0.0234
14510W        W30984   6.755   1.200   1.035  0.5192 -0.0959 -0.2272
14511W        W30985   2.308  13.695   2.471  0.0544  0.0163 -0.2352
14512W        W30986   0.912   0.136  15.924 -0.0151 -0.1481  0.1249
14513W        W30987  14.486   6.751  11.587 -0.3658 -0.1523 -0.1145
14514W        W30988  12.114   8.838   1.794  0.0418 -0.0957  0.0929
14515W        W30989  12.990  13.023   1.224 -0.0367 -0.1728 -0.2122
14516W        W30990   2.045  17.343   1.214  0.0238 -0.2032  0.3026
14517W        W30991  15.568  17.928   5.486  0.0089  0.1108  0.0629
14518W        W30992   4.354   7.750   5.213  0.0647  0.2485 -0.0262
14519W        W30993   4.464   6.527  16.250 -0.0144 -0.2360  0.0808
14520W        W30994  13.414   6.199   4.848  0.2617  0.4457 -0.1664
14521W        W30995  15.003  13.698  11.444 -0.1763 -0.2048  0.3356
14522W        W30996  16.441   3.228   3.570 -0.1658  0.1657 -0.0541
14523W        W30997   9.942  11.419   2.244  0.0663  0.0641 -0.1115
14524W        W30998   6.145   0.781   3.570 -0.1881  0.4936  0.0709
14525W        W30999   2.423  16.864  15.485  0.2046 -0.0252  0.0924
14526W        W31000   2.408  13.142   5.121  0.2119  0.0870  0.5702
14527W        W31001   3.308  12.670   1.343 -0.1473  0.0363  0.0960
14528W        W31002  13.063   2.255  13.955 -0.1183  0.0191 -0.2242
14529W        W31003   6.264   5.871   3.147 -0.1086  0.2178 -0.0156
14530W        W31004  11.935   3.934  14.482  0.0218  0.4064  0.3921
14531W        W31005  10.211  11.650   3.921  0.3647  0.0870 -0.0734
14532W        W31006   6.394   7.237  15.796 -0.1163  0.2695 -0.1514
14533W        W31007   8.128  12.744   2.430  0.0139 -0.1418  0.0637
14534W        W31008  16.602   9.529   4.733 -0.0845 -0.0569 -0.1258
14535W        W31009  11.669  16.687   1.488  0.0527  0.2167  0.0309
14536W        W31010  12.851   7.093  14.746 -0.1914 -0.1792  0.0114
14537W        W31011  11.855  14.573   5.422  0.1699 -0.2564 -0.0872
14538W        W31012   4.006  16.245  14.645  0.0200 -0.2803 -0.0139
14539W        W31013  17.615   0.002   5.118 -0.1838  0.4092 -0.3383
14540W        W31014   8.616  10.502  13.988  0.1988  0.1390 -0.2041
14541W        W31015  17.523  13.515   0.724 -0.1232 -0.0207 -0.2110
14542W        W31016  17.043   2.543   1.440  0.4277 -0.0571 -0.0152
14543W        W31017   2.244  15.650  13.225 -0.0736  0.0596 -0.1852
14544W        W31018  13.612  13.285   0.897  0.0946  0.0037  0.0506
14545W        W31019   2.424  16.254   4.941 -0.1086  0.0160 -0.0222
14546W        W31020   8.639  12.812  15.213  0.2795  0.0742 -0.2280
14547W        W31021  13.897  14.924   4.658  0.0924 -0.0314  0.1467
14548W        W31022  14.897  16.966   4.941  0.0229 -0.0268  0.2430
14549W        W31023  17.554   0.708   0.549 -0.0927  0.1423  0.0333
14550W        W31024  15.829   2.273  13.433  0.0618  0.2167  0.0522
14551W        W31025  15.980  15.278   4.332  0.1096 -0.1205  0.0040
14552W        W31026   4.969   7.913  14.624 -0.0924  0.0293 -0.2088
14553W        W31027  18.237  16.112   1.732  0.1496 -0.0022 -0.1161
14554W        W31028   3.508   7.218  12.079 -0.0712  0.1929 -0.0823
14555W        W31029  17.125   8.893   0.391  0.1682  0.0402 -0.2174
14556W        W31030   0.772   8.597   3.482  0.1637 -0.2005 -0.0255
14557W        W31031  11.713  11.735  12.693 -0.1099 -0.2003 -0.0170
14558W        W31032   1.805   7.630   5.213  0.3296  0.0693  0.0431
14559W        W31033   4.605  11.966   1.016 -0.2637 -0.1031 -0.2891
14560W        W31034  13.140   9.115   4.017  0.0602  0.1432  0.2684
14561W        W31035   3.500   6.519   3.990 -0.1071  0.0524  0.0172
14562W        W31036  17.685   1.916   1.267  0.0988 -0.0536  0.0637
14563W        W31037   5.682  12.571   3.349  0.0834  0.1483 -0.0619
14564W        W31038   0.020  11.504   2.103  0.1905  0.0962 -0.1625
14565W        W31039   3.920  16.335  15.293 -0.0688 -0.1730  0.0356
14566W        W31040  15.340   6.039  11.050 -0.2141 -0.2252  0.1189
14567W        W31041   9.263   2.593  14.196 -0.2942  0.5960  0.0291
14568W        W31042   7.412   5.294   2.489 -0.0044 -0.3964  0.0475
14569W        W31043   1.179   1.564   2.910  0.0059  0.0464  0.1009
14570W        W31044   0.333   3.440  16.202 -0.0464  0.0925 -0.0727
14571W        W31045   1.060   7.364   5.574 -0.2136  0.1971  0.0807
14572W        W31046   1.953   5.024  12.064 -0.3720  0.0644 -0.0041
14573W        W31047  13.085   3.299  11.420 -0.0238  0.2250  0.0400
14574W        W31048   6.278   0.849   0.276  0.0196  0.0646 -0.1164
14575W        W31049   0.858   3.930  13.759  0.1634 -0.0963  0.0111
14576W        W31050   7.147  12.575  14.173 -0.4648  0.0003  0.0883
14577W        W31051   2.048   6.664  16.179  0.2901  0.1299  0.1831
14578W        W31052   5.302   5.709  14.359 -0.2305  0.0463 -0.3274
14579W        W31053  12.241  15.611   5.869 -0.2629  0.3578  0.1256
14580W        W31054   2.092   1.130  14.424 -0.1807  0.1540  0.2597
14581W        W31055   3.072   5.544   5.281  0.1547  0.5727 -0.2255
14582W        W31056  12.185   7.423  13.724  0.1725 -0.2681 -0.3010
14583W        W31057   4.284   3.239  14.468 -0.0729 -0.0583 -0.0940
14584W        W31058  17.532   8.638  12.186 -0.2419  0.0671  0.0323
14585W        W31059   1.096   9.313  13.147 -0.1109  0.1803 -0.3799
14586W        W31060   3.623  10.622  15.519 -0.0585  0.2634 -0.0150
14587W        W31061   8.453   9.826  11.670 -0.2052  0.0479  0.2086
14588W        W31062  16.988   4.846  15.750 -0.0143 -0.1082  0.2101
14589W        W31063  12.835   1.066   5.227  0.0755  0.2995  0.0585
14590W        W31064   4.169  17.110   2.650 -0.1681  0.0934 -0.0849
14591W        W31065   8.496  13.803  14.940  0.3477 -0.0705  0.0144
14592W        W31066   9.564   1.902  12.368  0.1895  0.1346 -0.0588
14593W        W31067   6.424  16.282   1.418  0.2219 -0.3109 -0.3364
14594W        W31068  16.029   6.524  14.533  0.1659 -0.1202 -0.3084
14595W        W31069  12.581   9.233   3.776  0.0363 -0.1622  0.0960
14596W        W31070  16.153   4.010  12.804 -0.1131  0.0435 -0.0710
14597W        W31071   2.019  16.595  15.606  0.0963  0.0887  0.0207
14598W        W31072  12.804   8.145   1.602  0.3563  0.0104 -0.0418
14599W        W31073   8.661  17.462   3.526 -0.0650  0.0025 -0.1455
14600W        W31074   5.254  13.428  12.960 -0.0349  0.1478  0.0094
14601W        W31075  12.083   7.130   3.126  0.0751  0.0988  0.0228
14602W        W31076   1.195   0.121  14.983 -0.3790 -0.1823 -0.2275
14603W        W31077   5.369   5.802   5.223 -0.1492  0.1327  0.2096
14604W        W31078   1.270  14.879   4.971  0.0680  0.2075 -0.0891
14605W        W31079   1.720  13.056  14.165 -0.1172  0.2371 -0.0160
14606W        W31080   9.289   7.417   3.684 -0.1140 -0.1954 -0.0391
14607W        W31081   4.797   8.732  11.464  0.1401 -0.1322  0.1141
14608W        W31082  16.673  15.395  13.657 -0.0633  0.2626 -0.2343
14609W        W31083   9.137   9.183  15.590  0.2676  0.3712  0.2467
14610W        W31084   5.372   1.982   2.454 -0.3378 -0.1794 -0.1346
14611W        W31085  10.714  17.278   6.027  0.1835 -0.0551  0.0542
14612W        W31086   3.510  17.381   3.823  0.1077  0.1013  0.0404
14613W        W31087   9.048   8.887  13.925  0.3020 -0.0692 -0.4299
14614W        W31088   9.732   6.052  12.726 -0.1199  0.0872  0.2083
14615W        W31089   1.418   6.201   3.498 -0.0789  0.0358  0.1744
14616W        W31090  16.132  11.976  12.398 -0.1810 -0.1562 -0.0897
14617W        W31091  12.659   4.702   2.818 -0.1927 -0.2259 -0.0500
14618W        W31092  14.720   9.033  13.089  0.0261 -0.0036 -0.0024
14619W        W31093   3.136  17.005   3.104  0.1650 -0.1682  0.0980
14620W        W31094   4.608   0.939   3.596  0.1347 -0.1457  0.1247
14621W        W31095  10.310  11.132   3.719  0.0182  0.0316 -0.0752
14622W        W31096  17.736  12.954   5.592  0.0036  0.1678 -0.0822
14623W        W31097   8.002  12.062  10.288  0.1232  0.1802 -0.1194
14624W        W31098   2.365  15.677   4.799  0.1232  0.0008  0.1175
14625W        W31099  11.381  17.444   5.896 -0.0773 -0.2576 -0.1528
14626W        W31100  14.506  18.390   1.493 -0.0011 -0.1728 -0.0632
14627W        W31101  10.222  18.217  12.532 -0.2556  0.2317 -0.3285
14628W        W31102  14.360   4.839  13.015 -0.0985 -0.0487 -0.1313
14629W        W31103   2.546  11.591   0.658  0.0091  0.1369  0.0282
14630W        W31104  14.199   4.886  15.890 -0.1691 -0.1524  0.3124
14631W        W31105  15.718   8.174   4.590 -0.2095 -0.1754 -0.1121
14632W        W31106  13.706   8.768  13.194  0.0734 -0.0882  0.0329
14633W        W31107  14.366   4.226   3.819 -0.0350  0.0279  0.0111
14634W        W31108   2.900  12.502   2.116 -0.2663 -0.0766 -0.3774
14635W        W31109   9.919   7.089   1.897 -0.4357 -0.0011 -0.0944
14636W        W31110   3.274  13.628   0.738  0.1679  0.1998  0.0423
14637W        W31111   3.513   5.922  11.510  0.0585  0.2218  0.1444
14638W        W31112  12.944   1.812   0.377  0.1484 -0.0058 -0.0112
14639W        W31113   5.759   7.285   3.835 -0.1459  0.2214 -0.1604
14640W        W31114   8.167   8.529  14.156 -0.1383  0.2989  0.0259
14641W        W31115   9.877   9.362  13.056 -0.2562 -0.2149 -0.0572
14642W        W31116   0.050  17.631  15.050  0.1085 -0.0556  0.4682
14643W        W31117  11.558   3.417   3.977  0.0359  0.0740 -0.0429
14644W        W31118   7.490  17.339   4.280 -0.1959 -0.0452  0.0831
14645W        W31119   3.448   3.574   5.501 -0.0915 -0.1471  0.2156
14646W        W31120   8.782   7.303   3.311 -0.0273  0.2880 -0.4175
14647W        W31121   6.037   2.417   6.245 -0.1610 -0.0632  0.1345
14648W        W31122   7.429   5.899   1.787  0.0259  0.1439  0.0133
14649W        W31123   6.674   3.643   2.655 -0.0052  0.0135  0.1313
14650W        W31124  10.370  16.505   5.708  0.0299  0.0836  0.1835
14651W        W31125   6.244   1.326  13.899  0.0557  0.1018 -0.0723
14652W        W31126   5.864   1.968   0.809  0.0684 -0.3383  0.3591
14653W        W31127   9.596   2.832  10.779 -0.0569 -0.1728  0.1900
14654W        W31128   5.716   6.933  15.764  0.0115 -0.2759  0.1449
14655W        W31129  14.227  13.621  14.332  0.0508  0.0345 -0.4655
14656W        W31130  16.949  16.939  12.527  0.1185  0.0944 -0.0831
14657W        W31131   2.565   7.083  11.191 -0.0768 -0.1057 -0.0760
14658W        W31132   2.682   6.310   3.219 -0.0304 -0.2288  0.2666
14659W        W31133   0.841  12.767   5.522 -0.3669 -0.0193  0.0475
14660W        W31134  11.033  17.803  12.047  0.2914 -0.0398 -0.0897
14661W        W31135   2.244   4.616  12.008  0.3555 -0.1599 -0.1679
14662W        W31136  10.671  10.277  13.685 -0.2602 -0.3190 -0.0145
14663W        W31137  10.874   1.574  15.658 -0.1426 -0.2580 -0.1324
14664W        W31138   7.234  12.545   1.064 -0.3295  0.0043  0.4385
14665W        W31139   6.813   1.589  11.635  0.0728  0.2763  0.2198
14666W        W31140   8.883   5.322  10.986 -0.0212  0.2178 -0.2930
14667W        W31141  12.791  15.819   5.781 -0.1904 -0.0145  0.1975
14668W        W31142   9.462  17.507   1.969 -0.0094  0.0984 -0.1142
14669W        W31143   4.981   1.212  11.668  0.0830  0.2348  0.0277
14670W        W31144  15.022   7.980   2.198 -0.0826  0.1177  0.0575
14671W        W31145   9.411  12.753  12.230  0.1153  0.0592  0.0562
14672W        W31146  13.522   3.822  14.399  0.1900 -0.0275 -0.0838
14673W        W31147  15.604   1.204  16.278  0.0629  0.4420  0.0265
14674W        W31148   9.008  13.304  15.449 -0.1867 -0.2256 -0.1312
14675W        W31149   2.808  12.581  15.652  0.3755 -0.1489  0.0508
14676W        W31150   0.030  12.148   2.679 -0.0444  0.2181  0.4872
14677W        W31151  10.988  10.899  12.522 -0.0958  0.1294 -0.0682
14678W        W31152   5.665  12.062   5.172 -0.0342 -0.1691 -0.3913
14679W        W31153   0.921   9.898  13.589  0.0529  0.1899  0.3086
14680W        W31154   4.609   6.777   0.589 -0.0182  0.2251 -0.1344
14681W        W31155   6.426  10.449  15.365 -0.2815 -0.1763 -0.2872
14682W        W31156  10.704  16.137  12.576 -0.3580 -0.2423  0.0186
14683W        W31157  18.356   8.814   1.120  0.3376 -0.2055 -0.0077
14684W        W31158  12.279   0.500   1.600 -0.1606 -0.0191  0.2873
14685W        W31159   6.632  16.674  12.979 -0.0530 -0.1264 -0.0724
14686W        W31160   4.553  17.526   0.744  0.2177  0.1557 -0.0574
14687W        W31161  15.587   9.634  12.457 -0.1184 -0.0861  0.0586
14688W        W31162   0.205   1.137   1.520  0.1530 -0.2142  0.1333
14689W        W31163  13.656   7.770   1.217  0.0994  0.0096  0.0387
14690W        W31164   5.707  17.432   5.829 -0.0394 -0.0294  0.1602
14691W        W31165  11.668  11.395   1.497 -0.3092 -0.1205  0.2059
14692W        W31166  15.426   7.690   4.827  0.0075 -0.0184 -0.1531
14693W        W31167   4.529   1.567   2.101  0.0316  0.0018  0.1800
14694W        W31168  11.423  15.267   1.747 -0.1008 -0.3009 -0.3130
14695W        W31169   1.004  13.549   1.005 -0.1168  0.3112  0.2501
14696W        W31170   5.226  11.123  12.623 -0.0012 -0.0857  0.0095
14697W        W31171  14.888   9.685   3.961 -0.0992  0.0641  0.2058
14698W        W31172   8.414   9.861   4.658  0.2526  0.0447  0.3152
14699W        W31173   2.612   3.926   4.479 -0.3663 -0.1411 -0.1665
14700W        W31174   3.694  17.434   5.261 -0.0757  0.0779 -0.2653
14701W        W31175   2.547  15.539  15.235 -0.0377 -0.2366 -0.2822
14702W        W31176  16.887   6.038   2.630 -0.0883 -0.1764  0.1322
14703W        W31177   9.832   6.139   3.602  0.0072  0.0094  0.1184
14704W        W31178  17.301   6.918  15.232  0.1737  0.2701  0.1390
14705W        W31179  10.145  10.000   4.552 -0.0478  0.1468  0.3503
14706W        W31180   7.606  10.730  15.210  0.0542 -0.1015  0.2701
14707W        W31181   5.023   1.175  14.366 -0.1329 -0.4766 -0.2359
14708W        W31182  12.461  12.580   3.737  0.0701 -0.2405  0.1707
14709W        W31183   0.596   6.466  12.808 -0.5253 -0.1769 -0.1072
14710W        W31184   3.757  16.788   4.928  0.0243 -0.2505 -0.1526
14711W        W31185  15.421   7.188   1.892 -0.1437 -0.4604  0.2063
14712W        W31186   5.099  18.180  13.045  0.2062 -0.0123  0.1353
14713W        W31187   3.755  18.163  14.112 -0.2544 -0.1867 -0.4379
14714W        W31188  15.753   2.788   3.897  0.3985  0.2331 -0.0768
14715W        W31189  17.906  15.860   3.009  0.1749  0.0043  0.2447
14716W        W31190  11.585   4.667   3.857 -0.0836  0.1680 -0.0586
14717W        W31191  11.333   4.303  13.316 -0.1081  0.4655  0.0037
14718W        W31192  18.140   7.929   2.587  0.1539 -0.0116 -0.0274
14719W        W31193  16.507  16.049  15.723 -0.1548  0.1068 -0.4315
14720W        W31194   7.266  10.738   2.255 -0.2007  0.1878 -0.1873
14721W        W31195   7.227   1.547   1.854 -0.0306 -0.0787 -0.0076
14722W        W31196  11.662  16.801   0.866 -0.0518  0.0274 -0.0963
14723W        W31197  11.284  10.148   1.981  0.0113  0.1610 -0.3439
14724W        W31198  14.351  11.213  11.215 -0.2877  0.2289  0.0391
14725W        W31199  14.590  17.106  14.850  0.2347 -0.1087  0.2323
14726W        W31200   2.298   1.248  11.833  0.3478  0.1786 -0.2862
14727W        W31201  11.728  11.604   3.713 -0.1393  0.0986 -0.1394
14728W        W31202  10.429  16.121  14.078  0.0878 -0.3725 -0.0404
14729W        W31203   4.850   5.851  15.846  0.1004 -0.2543  0.1764
14730W        W31204  15.884   3.296  11.056  0.2000 -0.2792  0.0454
14731W        W31205   5.511   8.501   3.900  0.2961 -0.1771  0.1601
14732W        W31206  17.733  16.926   0.748 -0.0016 -0.4601  0.0276
14733W        W31207   2.868  12.509  14.624  0.1726 -0.1180 -0.0170
14734W        W31208  15.196  15.020   0.434 -0.0579 -0.2923 -0.2843
14735W        W31209  17.304  16.974   1.816  0.1124  0.2244  0.1258
14736W        W31210   4.577   0.027  11.851 -0.3033  0.1365  0.2736
14737W        W31211  15.669   7.694  14.019  0.1047  0.1322  0.0424
14738W        W31212   2.850  14.470   5.142  0.0454  0.2511  0.0608
14739W        W31213   1.207  12.463  15.357  0.0391 -0.0591 -0.0135
14740W        W31214   8.462  15.384  12.887  0.0074  0.2694  0.3956
14741W        W31215   6.180   5.317  15.324  0.1586 -0.1058 -0.0096
14742W        W31216  13.302   3.377  14.641  0.3561  0.1573  0.1070
14743W        W31217  14.225   9.625  14.380 -0.0959 -0.2027 -0.0062
14744W        W31218  15.851  17.474   5.639 -0.1770  0.0872  0.2416
14745W        W31219  15.390   2.349  13.084  0.1700 -0.1758 -0.4077
14746W        W31220  11.521  14.224   3.216 -0.0707 -0.0229 -0.1205
14747W        W31221   9.535   6.290   2.309 -0.0118 -0.3028  0.1005
14748W        W31222   6.010   9.939   4.317 -0.2650  0.1289 -0.0244
14749W        W31223   5.322   0.005  13.741  0.1126 -0.1026  0.0724
14750W        W31224  16.992  16.256   4.838  0.3525 -0.2800  0.2682
14751W        W31225   0.887   1.447   3.296 -0.2205 -0.2485 -0.0466
14752W        W31226   5.386  14.555   0.426 -0.2474 -0.1381  0.1960
14753W        W31227   9.566  16.768  10.422 -0.0122  0.2501  0.0746
14754W        W31228   2.324   5.262   3.060 -0.0497 -0.0199 -0.0023
14755W        W31229  12.838   6.871  16.269  0.4496  0.1084  0.1990
14756W        W31230   4.410   0.108  11.005 -0.3632  0.3138 -0.0229
14757W        W31231  15.934   6.619   3.792 -0.2343  0.3164  0.1785
14758W        W31232   7.702  12.592   0.919 -0.0410  0.2615  0.0756
14759W        W31233  14.324   1.074   4.261 -0.3281 -0.0486 -0.0596
14760W        W31234   3.839  12.747  16.239  0.4933 -0.1279 -0.4495
14761W        W31235   7.675   3.847  14.141  0.1532  0.0126  0.1603
14762W        W31236   5.407  17.506   2.557  0.3199 -0.4822 -0.0126
14763W        W31237  15.947   7.093  15.751  0.0440  0.1047 -0.1652
14764W        W31238  18.328   0.948   1.949  0.1184  0.3620 -0.0545
14765W        W31239   9.951   9.432  14.938 -0.0710 -0.1623 -0.2893
14766W        W31240  15.945   9.193  14.735  0.0917 -0.0028  0.1823
14767W        W31241   5.694  18.203   6.483  0.3099  0.3593 -0.6255
14768W        W31242   1.860   6.412  11.519  0.1701 -0.0792 -0.3653
14769W        W31243  12.224  16.283  16.175  0.0491  0.2819 -0.2214
14770W        W31244   8.116   1.994   2.966  0.0885  0.0319 -0.1518
14771W        W31245   8.275  18.196  16.020  0.1175  0.1235  0.0611
14772W        W31246  13.063  12.275  14.088  0.0561  0.0013  0.2109
14773W        W31247   2.326   7.822   0.961  0.1756  0.1226 -0.2649
14774W        W31248  13.631  11.996  16.113 -0.1845  0.2630  0.1943
14775W        W31249  13.981  15.307   0.397  0.0822 -0.2102 -0.1351
14776W        W31250   2.531   7.396   5.594 -0.0293  0.1521  0.1559
14777W        W31251   8.378   5.122  10.984 -0.1602 -0.0996  0.0407
14778W        W31252   7.456   6.839   4.333  0.0667 -0.0215 -0.0688
14779W        W31253  16.327   2.537  14.088  0.0851  0.2205  0.2435
14780W        W31254   0.380  13.867  12.620 -0.0793  0.3078 -0.0806
14781W        W31255   2.940  14.391   1.961  0.1660  0.3202  0.0414
14782W        W31256   9.990   0.567   1.197 -0.2122 -0.1792 -0.1989
14783W        W31257  14.561  12.822  13.918  0.0947 -0.1953 -0.1897
14784W        W31258   3.451   0.840  13.113  0.1324 -0.0076 -0.0014
14785W        W31259   2.004  16.078   0.891  0.0562  0.4378 -0.2044
14786W        W31260  15.743  12.608  16.149 -0.0581 -0.2758 -0.3325
14787W        W31261   4.319  10.368  11.547  0.1463  0.0441  0.1071
14788W        W31262  15.436   2.470  14.438  0.0875  0.0353  0.0319
14789W        W31263   1.226  16.302  14.964  0.1012  0.0596  0.0900
14790W        W31264  12.414  13.961   2.877  0.2161 -0.4038  0.5471
14791W        W31265   4.337   8.696   3.578  0.2099  0.2576 -0.0950
14792W        W31266   1.590  12.589   1.120  0.0966 -0.0618 -0.1080
14793W        W31267  17.873  11.408   2.738 -0.2059 -0.0769  0.2111
14794W        W31268   7.760  14.872  12.477 -0.0279  0.4674  0.1119
14795W        W31269   9.079  16.194   5.942 -0.1384  0.0509 -0.1024
14796W        W31270   3.609  14.540  14.034 -0.2013  0.1587  0.2817
14797W        W31271   8.706  15.507   5.196 -0.0333 -0.0023  0.1107
14798W        W31272  10.232   5.862  12.875 -0.2286 -0.0921  0.0907
14799W        W31273   1.307  12.906  14.552 -0.0581 -0.2330 -0.1466
14800W        W31274  15.199   8.120  14.469 -0.0372  0.1225 -0.0388
14801W        W31275   3.323   3.732  15.426 -0.0399 -0.1470 -0.0155
14802W        W31276  13.705  11.910   2.749  0.0243 -0.0871 -0.1047
14803W        W31277  17.104   2.074  13.544  0.0263 -0.0167  0.2791
14804W        W31278  17.274  11.392   4.387 -0.1312 -0.2192  0.1280
14805W        W31279  13.668   3.346   5.634 -0.1622 -0.3279 -0.0843
14806W        W31280   2.298  15.412  11.916  0.2378 -0.2000  0.0904
14807W        W31281   7.191   7.779  15.807 -0.2266 -0.1974  0.0268
14808W        W31282   2.266   9.401  15.523 -0.0924 -0.2594  0.1462
14809W        W31283   5.887   9.584  13.213 -0.1097  0.2066  0.4730
14810W        W31284   1.384  14.568   0.765  0.1320  0.3694 -0.3211
14811W        W31285  10.903   8.126  15.342  0.4878  0.1172 -0.0352
14812W        W31286   5.840  16.583   0.717  0.3727 -0.2517  0.0507
14813W        W31287   0.162   9.680   3.105  0.0931  0.0472 -0.0707
14814W        W31288   3.873   8.659  15.232  0.0602  0.1105  0.0279
14815W        W31289   8.181   6.342   5.070  0.1714  0.2713  0.0976
14816W        W31290  17.356   3.118  11.472  0.0639 -0.1537 -0.0199
14817W        W31291  15.805   1.052   1.638  0.2383 -0.1237  0.0259
14818W        W31292  14.043   9.829   2.866  0.1051 -0.1261 -0.0358
14819W        W31293   4.338   9.155   4.838 -0.0891  0.3039 -0.3748
14820W        W31294  12.283   0.098   4.410  0.0689 -0.1867 -0.2912
14821W        W31295  13.448  16.225  15.431  0.1818  0.0321  0.1642
14822W        W31296  17.240  13.068  13.080 -0.0896 -0.1140 -0.0975
14823W        W31297  15.184   0.860  12.892 -0.0668 -0.0896 -0.1545
14824W        W31298   4.307  10.842  11.310  0.1891  0.3528 -0.0686
14825W        W31299   2.121  13.261  13.251  0.2989  0.4499  0.1043
14826W        W31300   1.277   3.211  15.602  0.0215  0.0069  0.0630
14827W        W31301  11.450   9.555   0.042  0.0877 -0.1674 -0.0044
14828W        W31302  16.653   0.541  11.757  0.0338 -0.3535  0.0009
14829W        W31303  18.259   6.905  11.645 -0.2328  0.0757 -0.3431
14830W        W31304  10.888  18.179   1.085  0.0943  0.2223 -0.2292
14831W        W31305  14.134  10.820   4.451  0.5337  0.0722  0.3302
14832W        W31306  17.564  12.373  15.524 -0.3419  0.0189  0.1996
14833W        W31307   1.166  13.820  12.028  0.2038  0.1045 -0.3483
14834W        W31308   8.485  11.704   3.755 -0.2725 -0.0876  0.2365
14835W        W31309   5.283   8.145   4.161 -0.0606  0.0272  0.0252
14836W        W31310   5.376   2.963   0.513 -0.1696  0.0004  0.0464
14837W        W31311   1.020  11.747   3.820 -0.0254  0.0445 -0.0777
14838W        W31312  12.546   7.498  15.231  0.1814 -0.2322 -0.0680
14839W        W31313   9.004   3.633  11.886 -0.0859 -0.2104  0.0439
14840W        W31314   5.207   0.236   1.876 -0.2013  0.0865 -0.2544
14841W        W31315  16.752  10.612  15.958 -0.2552  0.0754  0.1450
14842W        W31316   0.714  16.290   1.538  0.1739  0.1553 -0.1349
14843W        W31317   0.198   0.012   0.418  0.3791 -0.1933 -0.1431
14844W        W31318   0.037   2.462  16.237 -0.2643 -0.3058 -0.3649
14845W        W31319  12.828  11.744   3.359 -0.0989  0.1984 -0.4214
14846W        W31320   3.111   5.880   0.027 -0.4468  0.0853  0.1537
14847W        W31321  15.219   6.020  12.169 -0.0111 -0.1252 -0.1441
14848W        W31322   1.781   1.573   0.805  0.1566 -0.0629 -0.4233
14849W        W31323  11.620   3.857   1.026 -0.0729 -0.1432 -0.0781
14850W        W31324  10.804  12.803   4.803  0.1162 -0.0983  0.0407
14851W        W31325  12.296  12.844  14.396 -0.2315  0.4333  0.0651
14852W        W31326   2.088  12.316  15.662 -0.3514  0.0980  0.1850
14853W        W31327   3.994   9.674  13.639 -0.0280  0.0110 -0.2367
14854W        W31328  16.258   5.640   2.510  0.1411 -0.0660  0.3531
14855W        W31329   5.942   0.280  16.133 -0.1299  0.2109 -0.1883
14856W        W31330   2.325   7.597  12.735 -0.3248 -0.1892  0.0600
14857W        W31331   9.160   3.913   4.559 -0.2086 -0.0575  0.3386
14858W        W31332   5.467   0.523   0.416  0.3016 -0.0460  0.2976
14859W        W31333  15.921  12.927   0.999  0.1005 -0.1288 -0.0718
14860W        W31334  14.404   8.066  14.784  0.0228  0.2315 -0.2316
14861W        W31335   5.326   6.391  15.067 -0.3885  0.2058  0.0218
14862W        W31336   8.070  13.449   5.946 -0.3298 -0.1640 -0.2668
14863W        W31337   0.183   9.238  14.269  0.0460  0.0723  0.0402
14864W        W31338  12.209  10.772  13.343 -0.1692  0.0518  0.3220
14865W        W31339   5.719   3.095  16.330  0.1710 -0.2203 -0.4095
14866W        W31340   3.435   5.687   4.041 -0.0408  0.0733  0.0485
14867W        W31341   3.592  13.340  16.110 -0.0379 -0.2342 -0.0388
14868W        W31342   5.689   9.296   0.153  0.1390  0.0218 -0.0686
14869W        W31343   3.001   6.455   2.016 -0.0409  0.0049  0.5048
14870W        W31344   8.521  12.779  15.849  0.2195  0.1802  0.1057
14871W        W31345   2.750   1.419   0.045  0.0843 -0.0195 -0.0425
14872W        W31346  10.971  12.301  10.797 -0.0126 -0.1072  0.0873
14873W        W31347  13.094   4.153  11.750 -0.1771  0.0437  0.2846
14874W        W31348  12.302  17.071   5.151 -0.0811 -0.1726 -0.0045
14875W        W31349   3.827   5.867  13.245 -0.2375 -0.1825  0.1170
14876W        W31350   9.168  14.538  16.072 -0.1870  0.1112 -0.3230
14877W        W31351  14.221   7.729  11.349 -0.0815  0.0820 -0.1571
14878W        W31352   3.092   8.584   0.376  0.0684 -0.2326 -0.2324
14879W        W31353  10.177  14.726   5.509  0.1450 -0.0405  0.1975
14880W        W31354   3.676  15.058   5.654  0.0230  0.2865 -0.0648
14881W        W31355   8.925   9.763  13.608 -0.1550  0.0549  0.0513
14882W        W31356  14.114  14.336  12.785 -0.0534 -0.0169 -0.2832
14883W        W31357   0.489  15.789  14.219 -0.0598  0.2041 -0.0634
14884W        W31358   7.648  16.860  11.818  0.0321 -0.2001  0.0787
14885W        W31359  18.241   2.283   3.960 -0.3591 -0.0497  0.0452
14886W        W31360   2.678   4.185  14.963 -0.2133 -0.0071  0.2823
14887W        W31361  14.677   3.033   1.056 -0.0189 -0.0757 -0.0771
14888W        W31362  11.496   3.135  14.339 -0.2234  0.0908 -0.1293
14889W        W31363   1.753   6.635  12.958 -0.1885  0.1074  0.0449
14890W        W31364  10.651   2.540  12.524  0.3644  0.2090  0.1181
14891W        W31365  11.584   1.354  13.987 -0.0860  0.0662  0.2488
14892W        W31366   0.468  12.600  12.912  0.0549  0.2624 -0.0537
14893W        W31367   8.086   5.892  10.847 -0.2481  0.4697  0.1103
14894W        W31368  10.274   8.292   4.339  0.0397 -0.1677  0.0760
14895W        W31369   5.310   5.720  15.565  0.0657  0.0759 -0.0803
14896W        W31370  13.017   5.492   0.968  0.0087 -0.2870  0.3796
14897W        W31371  14.606   0.004  13.287 -0.4818 -0.1046  0.1884
14898W        W31372   4.334  10.866   1.663 -0.1798 -0.0602 -0.1521
14899W        W31373  10.981  14.119  14.565  0.4849  0.0682 -0.0560
14900W        W31374   4.911   0.472  11.869 -0.1241  0.0365  0.0769
14901W        W31375   2.121   1.554   3.350  0.0829  0.1899  0.2286
14902W        W31376  17.225  18.046  14.339 -0.2811 -0.1351 -0.1054
14903W        W31377  12.621   5.581   3.457 -0.1571 -0.2276 -0.0428
14904W        W31378   5.973  10.566  11.689  0.2286 -0.0127  0.3252
14905W        W31379  12.398  13.487   4.655  0.0516 -0.0816 -0.1803
14906W        W31380   8.962  14.563  14.718  0.3370  0.5467 -0.3680
14907W        W31381   7.389   3.418  14.176 -0.0253  0.0610 -0.0087
14908W        W31382  16.348   1.100   1.609  0.0025  0.2505  0.2412
14909W        W31383  16.923  12.162  15.205  0.0526  0.0828  0.2491
14910W        W31384   3.457  15.190   2.639 -0.2115  0.0220 -0.5035
14911W        W31385   5.636  13.263   4.349  0.2015  0.0683  0.0716
14912W        W31386   1.030  14.195   2.283 -0.1260 -0.2454  0.2441
14913W        W31387   9.502  17.488  14.299  0.3152 -0.2203  0.0647
14914W        W31388  15.980   4.890   1.868  0.2883  0.2856  0.0460
14915W        W31389   2.393  18.367   4.642 -0.0020 -0.2544  0.0361
14916W        W31390  14.433   4.254  14.948  0.0659  0.2801 -0.1000
14917W        W31391   4.444  12.756   4.691  0.2098  0.0463 -0.1174
14918W        W31392  17.206  10.297  13.438 -0.2949  0.0620  0.2071
14919W        W31393  12.254  11.739  12.880 -0.1230  0.3026 -0.0125
14920W        W31394  14.288   0.001   0.119 -0.0938  0.2515  0.2286
14921W        W31395   7.928   8.112   0.717 -0.1510 -0.1524 -0.2271
14922W        W31396  15.828   2.750  11.836  0.1477 -0.0178 -0.1087
14923W        W31397  17.889   0.808  13.091 -0.0093  0.0585  0.2654
14924W        W31398  11.993   4.871   1.337 -0.1460 -0.0065  0.0981
14925W        W31399   8.496   6.074  12.730  0.1656  0.0245 -0.0736
14926W        W31400   7.654   6.006   1.334  0.2486  0.1677 -0.1024
14927W        W31401  10.178  11.119   0.162 -0.0764 -0.0082 -0.0010
14928W        W31402   0.924   8.136   3.588  0.0647 -0.2395 -0.1763
14929W        W31403   4.047  17.762   2.324 -0.3086  0.3360  0.1284
14930W        W31404  14.019   0.406  14.782  0.1261 -0.0641  0.3858
14931W        W31405  14.776  18.062   3.508  0.2510  0.0124  0.1035
14932W        W31406  18.011  15.447  15.589 -0.1905 -0.2982 -0.0570
14933W        W31407   4.607   8.682  14.183 -0.0225 -0.0875  0.0916
14934W        W31408  17.510   8.769  11.717  0.4216  0.1162 -0.3089
14935W        W31409   2.907  12.457   0.840 -0.0358 -0.1016 -0.0034
14936W        W31410   6.616  10.250  14.087 -0.0877 -0.0808  0.1563
14937W        W31411  10.770   2.688   4.829 -0.1572 -0.0215  0.1071
14938W        W31412  10.687  14.222   0.904  0.1948 -0.1733 -0.2140
14939W        W31413  11.575   5.977  14.596  0.1050  0.2950  0.0377
14940W        W31414   3.680   4.940   5.082  0.0997  0.0130 -0.0291
14941W        W31415   6.479   8.717   2.213 -0.2394 -0.0481 -0.1182
14942W        W31416  17.927   6.244   2.044 -0.5432 -0.1868  0.1622
14943W        W31417  10.475   0.859  14.878 -0.5814 -0.0500  0.0876
14944W        W31418   1.995   0.855   5.805  0.0632 -0.0561 -0.1367
14945W        W31419   4.632  15.209   3.677  0.3584  0.1735  0.1351
14946W        W31420   2.749  11.668  11.778  0.0034 -0.2693  0.1818
14947W        W31421  17.536   0.247   1.553  0.2276  0.2353 -0.4115
14948W        W31422   0.133   7.949  15.831 -0.0161  0.2674 -0.2673
14949W        W31423  12.154  12.334   5.765 -0.0211  0.4212  0.1970
14950W        W31424  10.603  18.266   5.147  0.0014  0.3578 -0.0109
14951W        W31425  16.985  10.737  12.732  0.0272  0.1430 -0.2886
14952W        W31426  11.100  10.873  14.679  0.2687 -0.2065  0.1174
14953W        W31427   2.310   5.822  11.977 -0.0808 -0.1460 -0.2150
14954W        W31428   9.405  12.997   2.806  0.3402  0.0588  0.0779
14955W        W31429   9.805  14.408   2.210 -0.1902 -0.1117  0.1499
14956W        W31430   4.700   8.890   5.039  0.0962  0.1284  0.0793
14957W        W31431  12.624  11.012   3.512  0.0324 -0.2560 -0.0999
14958W        W31432  11.103   6.753  15.902 -0.1208 -0.3830  0.5742
14959W        W31433  10.204  13.993   0.367  0.0576 -0.1277 -0.0432
14960W        W31434  15.480   1.978  11.288  0.1803  0.0690  0.3540
14961W        W31435  15.069  11.046   9.883  0.0539 -0.0572 -0.3080
14962W        W31436   3.715  15.072  12.251  0.2780 -0.0374  0.1600
14963W        W31437   9.921   5.478  10.563 -0.3804 -0.4557 -0.0786
14964W        W31438  17.309   0.986   1.138  0.0430 -0.0837  0.1203
14965W        W31439   5.831  18.132  14.547  0.1457  0.1937  0.2157
14966W        W31440   4.724  13.499  14.126  0.3717 -0.0916  0.2200
14967W        W31441  17.345   4.898  14.854  0.1217  0.0869 -0.0617
14968W        W31442  12.545  16.431   2.961 -0.0806 -0.0804 -0.1677
14969W        W31443  16.632  15.122   4.190  0.1248 -0.0669  0.1736
14970W        W31444  13.692   5.046  11.356  0.2935 -0.1094  0.1475
14971W        W31445   7.404   2.717   4.208 -0.3775 -0.0934 -0.0955
14972W        W31446   2.693   7.411   0.829 -0.0796 -0.1202  0.0911
14973W        W31447  16.949   3.243  11.263  0.2873 -0.2026  0.0801
14974W        W31448   7.433   2.977  15.475  0.1401  0.1883  0.1943
14975W        W31449   2.908   4.625   1.442  0.1403 -0.1438 -0.0306
14976W        W31450   1.679   5.324   3.875 -0.3456  0.2627 -0.1336
14977W        W31451   5.999  15.010  12.731  0.0289 -0.0578 -0.2991
14978W        W31452  16.006   9.802   5.269  0.2226  0.2185 -0.4002
14979W        W31453   9.885  11.899  11.280 -0.3018  0.1372  0.0039
14980W        W31454   3.872   4.753   1.100 -0.0117  0.0469  0.0185
14981W        W31455  11.710  16.285  12.251 -0.0474  0.2079 -0.0744
14982W        W31456  13.383  15.153  14.036 -0.2251 -0.1097  0.1291
14983W        W31457  18.027  16.997   1.605 -0.1126  0.5108  0.0318
14984W        W31458   2.093   6.694   0.312 -0.0061 -0.2461 -0.5112
14985W        W31459  16.654   3.994   1.148 -0.0619  0.0193 -0.0384
14986W        W31460  15.054  17.093  12.221  0.0727  0.0284 -0.2804
14987W        W31461   2.477   5.974   3.537 -0.1252  0.2839 -0.1721
14988W        W31462  16.589   7.638  15.189  0.0947  0.3942 -0.0249
14989W        W31463   8.029   5.982   3.569 -0.2415  0.0162  0.2810
14990W        W31464  18.265  11.387  11.388 -0.1986  0.1506  0.4929
14991W        W31465   6.935  16.540  15.079 -0.0229  0.3178  0.1147
14992W        W31466  10.446   1.323   5.444 -0.1547  0.0289  0.0192
14993W        W31467  10.348   6.125   2.590  0.0152 -0.0679 -0.1686
14994W        W31468   3.807   1.833   2.888  0.2112 -0.2165  0.1828
14995W        W31469   8.416   7.183   5.562 -0.1725  0.2209 -0.0701
14996W        W31470  13.929  11.805   5.377  0.1241  0.0761  0.2758
14997W        W31471  17.624   0.013  14.339  0.0551 -0.0238 -0.1896
14998W        W31472   0.439  17.685   4.083 -0.6231 -0.5916 -0.0762
14999W        W31473   7.137   2.284   5.483  0.2523  0.4233 -0.0626
15000W        W31474  11.992  10.687  11.118  0.1715 -0.2568 -0.0498
15001W        W31475   7.313   9.922  14.788 -0.2927 -0.0349  0.1342
15002W        W31476  15.343  15.105  14.163  0.1393  0.2892  0.0860
15003W        W31477   4.796   4.316   3.695  0.1046  0.4599 -0.1561
15004W        W31478   5.860  14.826   2.457  0.4331  0.0498  0.1347
15005W        W31479   1.451   4.790  12.949  0.0376  0.3004  0.0191
15006W        W31480   3.940   2.037   4.366 -0.0354 -0.1853 -0.3053
15007W        W31481   9.593   1.349   4.435  0.3855  0.2378 -0.0676
15008W        W31482  17.835  12.385   0.561  0.0858 -0.1937 -0.3513
15009W        W31483   7.032  17.355  14.098 -0.1606 -0.2952 -0.1784
15010W        W31484  11.443   8.134  15.999  0.0497  0.0054 -0.2982
15011W        W31485   9.225  13.943   0.685 -0.3013 -0.2630  0.2438
15012W        W31486   6.274   8.043   5.781  0.2890 -0.1480 -0.0686
15013W        W31487  11.869  16.549  14.719 -0.1100 -0.1050  0.1443
15014W        W31488  11.305   2.124  14.462 -0.1468  0.1267  0.2124
15015W        W31489   7.311   8.853   2.880 -0.1492  0.2148  0.0777
15016W        W31490   2.960  15.822   2.708  0.1165  0.1834 -0.1881
15017W        W31491   0.368   6.068   3.074  0.1363  0.1625 -0.0566
15018W        W31492  11.522   1.625  12.717 -0.0170 -0.1262 -0.0335
15019W        W31493   2.058  11.009   0.859 -0.3369 -0.2616 -0.2312
15020W        W31494  16.485  14.711   2.365  0.1001  0.0683 -0.1674
15021W        W31495  10.967  13.102  13.910  0.0732 -0.1582 -0.1074
15022W        W31496  14.213  11.182  11.714  0.1999  0.5041 -0.1476
15023W        W31497   4.888  17.606   4.624  0.1100 -0.3919 -0.2199
15024W        W31498   4.108  14.533  13.816 -0.1825 -0.0293  0.1717
15025W        W31499  15.772   1.594  15.556 -0.2099 -0.1746 -0.0046
15026W        W31500   6.504  15.210  13.593 -0.2237 -0.4230 -0.2481
15027W        W31501  14.500   0.707   3.929 -0.0050  0.0271  0.0911
15028W        W31502   9.931   0.574  13.112  0.0433 -0.0446 -0.2041
15029W        W31503  10.609  16.782  13.290 -0.1447  0.2816 -0.1359
15030W        W31504  11.012  13.883  14.114  0.1602 -0.1966  0.3546
15031W        W31505   2.830   2.478   1.059  0.0786  0.1368 -0.1426
15032W        W31506  17.270   0.257   2.929 -0.3530  0.4304  0.1359
15033W        W31507   1.121  14.183  13.085  0.0029  0.3358  0.1958
15034W        W31508   2.756  16.017  15.068 -0.0253 -0.1228  0.1728
15035W        W31509  13.887  13.402   3.348  0.0242 -0.2591  0.1767
15036W        W31510   6.640  14.439  12.544  0.0855 -0.0354 -0.0735
15037W        W31511  14.542   3.365  11.864  0.1162  0.1530  0.0954
15038W        W31512  14.737  14.144  14.552  0.1742 -0.1329 -0.3801
15039W        W31513  17.052   4.673   3.981 -0.0960  0.1219  0.2861
15040W        W31514   2.215   4.798   0.900  0.0165  0.1786 -0.1225
15041W        W31515   0.394  11.753   1.777 -0.2886 -0.4241 -0.0386
15042W        W31516  12.605  17.772   3.747 -0.0329  0.0649 -0.1128
15043W        W31517   6.439   8.670   5.155  0.0302 -0.0570  0.1261
15044W        W31518  15.829  13.959  13.277 -0.0024 -0.2480  0.1613
15045W        W31519   8.529   1.663  13.681 -0.3253  0.0516  0.0861
15046W        W31520   6.221  17.623  15.599  0.1067 -0.2021 -0.2028
15047W        W31521  14.786   0.644  13.532 -0.1842  0.1298 -0.0992
15048W        W31522  13.953   5.713  13.766 -0.0720 -0.5245  0.2077
15049W        W31523   2.164  10.235   2.541 -0.1464 -0.1818  0.1368
15050W        W31524  11.477  12.389  14.971  0.0643  0.1977  0.0139
15051W        W31525   6.805   3.389  14.996 -0.1714 -0.6083 -0.0492
15052W        W31526  13.560  12.039   3.788  0.2942 -0.0607 -0.0382
15053W        W31527   9.879   9.196   4.821 -0.1065 -0.0141  0.1849
15054W        W31528  13.834  16.584  15.153 -0.0022  0.2259 -0.2818
15055W        W31529  15.289   1.218  14.784  0.2509 -0.0771 -0.0643
15056W        W31530   5.039  15.955  14.688 -0.1402 -0.1525 -0.1387
15057W        W31531  17.629  13.791  13.013 -0.1682  0.2735 -0.1325
15058W        W31532  12.489  10.948   2.956  0.0611 -0.0601  0.2366
15059W        W31533   7.758  14.642   2.973  0.1112 -0.1501  0.2118
15060W        W31534   7.373  11.123   5.282  0.2546 -0.2530  0.0664
15061W        W31535   3.567   7.630  15.230  0.1095  0.1885 -0.2338
15062W        W31536   2.595   4.909  15.759 -0.0242  0.1115  0.0717
15063W        W31537   5.139   7.310   5.038 -0.1510 -0.1366  0.1014
15064W        W31538   6.667   7.648   1.164 -0.0802 -0.0753 -0.0459
15065W        W31539  14.437   2.818  15.075 -0.0985 -0.0117  0.1726
15066W        W31540  17.426  12.264  11.998  0.1482 -0.1500 -0.1655
15067W        W31541   8.569   1.265  12.417 -0.1635 -0.0995 -0.3423
15068W        W31542  17.115  15.746  15.762  0.1675  0.5539 -0.6330
15069W        W31543   9.337  10.594  11.724 -0.0226 -0.5017 -0.2432
15070W        W31544   6.132   2.527   3.724  0.2335  0.2561 -0.2005
15071W        W31545   9.117  16.717   3.993  0.0393  0.0362 -0.3454
15072W        W31546  10.126  17.783  15.185 -0.0604 -0.0020 -0.1245
15073W        W31547   4.560   2.301   0.710 -0.2194 -0.1816 -0.0498
15074W        W31548   8.521   9.910   0.260  0.0025 -0.0467 -0.0809
15075W        W31549   1.835  12.036  13.018  0.0543  0.0041  0.1092
15076W        W31550  16.254  16.301   3.447  0.0860 -0.4223  0.2198
15077W        W31551  18.055   2.133  11.931  0.0497  0.0021  0.1995
15078W        W31552  15.832  12.597   0.654 -0.0596  0.2527  0.1513
15079W        W31553   8.493   6.596   4.275 -0.1461  0.2089 -0.0676
15080W        W31554   9.180   3.943  13.604 -0.3703  0.0953  0.1772
15081W        W31555  10.310   8.678   3.900 -0.2948 -0.3358  0.2006
15082W        W31556  16.780  10.898   2.958 -0.0886  0.0032 -0.2905
15083W        W31557  17.165  11.185  12.413  0.1303 -0.2493 -0.0441
15084W        W31558   7.769  17.994   6.125  0.2377  0.1652 -0.1036
15085W        W31559   4.048   7.424  12.435 -0.2142  0.2774 -0.0805
15086W        W31560   8.171   7.367  11.862  0.2122 -0.2803 -0.0252
15087W        W31561  14.608   5.488  14.148  0.0140  0.2627  0.2817
15088W        W31562   6.389  12.006   5.642  0.0424  0.2064 -0.1123
15089W        W31563   8.649   3.077  11.957  0.0102 -0.0006 -0.0572
15090W        W31564  14.899   3.500   0.754 -0.1601  0.1954  0.2224
15091W        W31565   6.003  11.681   5.185  0.3146  0.3797 -0.2390
15092W        W31566  12.515  17.147   4.548 -0.0586  0.0270  0.0068
15093W        W31567   8.910   8.729   3.683  0.1464  0.3257  0.2539
15094W        W31568  13.326  10.527  13.479  0.4397  0.0486  0.1434
15095W        W31569  12.067   7.393   1.669 -0.0041 -0.0174 -0.0540
15096W        W31570  11.928   9.315  11.122  0.0151  0.0318 -0.2253
15097W        W31571   9.858   2.358  12.395  0.1041 -0.2219  0.1327
15098W        W31572   1.220  16.068   3.271  0.0061  0.0952 -0.2207
15099W        W31573  13.698  11.227   3.433 -0.0747  0.2618  0.0109
15100W        W31574   6.152  11.144   2.471 -0.0657 -0.1493 -0.1864
15101W        W31575  14.805   8.057   4.862 -0.1493 -0.0881  0.2878
15102W        W31576  13.688   3.789  15.308 -0.0006  0.0858 -0.1605
15103W        W31577   5.476   7.737   3.912  0.0716 -0.2021 -0.0789
15104W        W31578  13.176   6.726  11.846  0.1294  0.4457  0.0347
15105W        W31579  14.804   9.699  11.609 -0.1044  0.0935 -0.1543
15106W        W31580   9.710  10.753  12.772 -0.1266 -0.2216 -0.0658
15107W        W31581  15.789   1.421  14.458 -0.0114  0.2043  0.1038
15108W        W31582  17.706   2.913  14.841  0.2602 -0.0587 -0.1116
15109W        W31583  11.309  15.917   4.890 -0.0875  0.0234 -0.0239
15110W        W31584  15.388   8.352   4.939  0.0161 -0.0192 -0.0938
15111W        W31585  10.979  15.481   2.873 -0.0532  0.0409  0.0492
15112W        W31586  14.036  11.653  12.512 -0.1606 -0.2420  0.1001
15113W        W31587  17.210  17.410  15.076 -0.0684 -0.0904 -0.3147
15114W        W31588  15.123   6.842  12.385 -0.0672 -0.1688  0.2071
15115W        W31589  14.604  11.335   2.332  0.2005  0.1893  0.1588
15116W        W31590   9.252  16.910   2.265 -0.2758  0.2857  0.2299
15117W        W31591  15.162   9.253   2.266  0.2121  0.0425  0.2705
15118W        W31592   0.007  15.949   3.993  0.0401 -0.1626  0.1855
15119W        W31593   2.037  12.497   5.575  0.2113  0.3060 -0.0003
15120W        W31594  14.767   1.314  15.084  0.2412  0.3642  0.1146
15121W        W31595   0.077  18.231  14.808  0.0016 -0.0660 -0.1814
15122W        W31596   5.372   5.350  11.462 -0.3428  0.0213 -0.2042
15123W        W31597   8.223   3.752   0.419  0.0319  0.0841 -0.0390
15124W        W31598  14.559  10.016  11.934 -0.2516 -0.2778  0.1710
15125W        W31599   9.696  16.140  11.639  0.1214  0.0421 -0.2315
15126W        W31600  10.421  14.156  13.199  0.3251  0.3337  0.7702
15127W        W31601   5.358   3.395   0.241 -0.2375 -0.2252 -0.2971
15128W        W31602   3.438  16.556   4.009  0.2261  0.0257 -0.3104
15129W        W31603   1.791   9.763  14.789 -0.0204 -0.1913  0.0572
15130W        W31604   1.757  14.433  14.137 -0.1516  0.0629 -0.0643
15131W        W31605   8.167   5.208   0.866 -0.0826 -0.1021  0.0399
15132W        W31606  13.704  17.332   5.441 -0.3583  0.0491 -0.0751
15133W        W31607  15.373   7.945   2.542  0.0132 -0.0190 -0.0830
15134W        W31608   0.101  15.613  13.983 -0.0540 -0.3996 -0.2751
15135W        W31609   2.225   5.750  14.131  0.1220 -0.2079 -0.0593
15136W        W31610  18.094  15.054  10.645 -0.1242  0.1983 -0.3080
15137W        W31611   1.488  13.584  12.289  0.2808 -0.1614 -0.1650
15138W        W31612  16.884  10.899  15.203 -0.2819  0.1046 -0.1835
15139W        W31613   9.227   2.052   0.471 -0.1906 -0.0523 -0.0026
15140W        W31614  12.789  12.162   2.232  0.1726  0.1208 -0.1697
15141W        W31615  10.442   0.621   4.050  0.3199 -0.2725  0.0779
15142W        W31616  13.709  18.097   1.411 -0.1095  0.1242  0.0807
15143W        W31617  16.436   0.517   3.045  0.0914  0.0637  0.0368
15144W        W31618   5.864   2.128   3.545 -0.0429 -0.1614  0.3738
15145W        W31619   0.477   7.547  15.500 -0.0687  0.2323 -0.1617
15146W        W31620  14.202   1.555  15.840 -0.3604 -0.0158 -0.1612
15147W        W31621   8.626  14.651   6.181 -0.0582 -0.1942 -0.1172
15148W        W31622   2.895  17.804   4.485 -0.1909 -0.1176  0.1479
15149W        W31623   3.207  12.427   4.844  0.2981 -0.4258 -0.2112
15150W        W31624  18.080   7.433   4.479  0.2849  0.0714 -0.0903
15151W        W31625   5.040  14.215   6.181 -0.0732 -0.2912  0.0579
15152W        W31626   0.076   6.530   0.747 -0.5955 -0.0262  0.2663
15153W        W31627   7.793  13.261  12.170 -0.2432 -0.2085  0.1844
15154W        W31628  15.038  10.065   2.236 -0.3232  0.0121  0.0796
15155W        W31629   9.391   9.437  11.552  0.0111 -0.1682  0.0939
15156W        W31630  16.662  10.832   1.402  0.2128  0.2141  0.0973
15157W        W31631   3.176  17.061  12.902  0.3127  0.0944  0.0744
15158W        W31632   7.727   1.206   0.017  0.2620  0.0326 -0.2633
15159W        W31633   1.483   6.766  11.662  0.0931  0.1769  0.0874
15160W        W31634   0.070   8.040   5.269 -0.2979  0.1823 -0.2669
15161W        W31635  15.619  13.194  14.329 -0.2282  0.0288 -0.0498
15162W        W31636   7.252   6.057  11.132 -0.1952 -0.0196 -0.0860
15163W        W31637   7.299  10.551   2.816  0.1067 -0.0592 -0.3578
15164W        W31638  10.628  10.162   5.314  0.1467  0.0914 -0.0540
15165W        W31639  15.148   9.731  11.243  0.2399  0.1748 -0.1171
15166W        W31640  17.240   3.051  13.283  0.0936 -0.3667  0.0789
15167W        W31641   5.054   5.047   2.554 -0.2402 -0.0272 -0.0294
15168W        W31642   5.933   7.215  15.210  0.1981 -0.0044  0.1611
15169W        W31643   3.318  15.904  15.597 -0.2024  0.3440  0.0632
15170W        W31644  17.730  14.157   0.773 -0.0947  0.1309 -0.2326
15171W        W31645  18.000   0.729   2.307  0.2728 -0.0270 -0.4754
15172W        W31646  12.309   1.896  15.832 -0.2862 -0.0279  0.1380
15173W        W31647   8.120  11.167   0.376 -0.0429  0.0838 -0.2613
15174W        W31648   0.462  17.297  15.342 -0.0086 -0.0364  0.0364
15175W        W31649   8.499  13.262  14.253  0.1865  0.1042 -0.3057
15176W        W31650  17.001   6.178   4.751 -0.4108  0.0267 -0.0393
15177W        W31651  16.617   5.351   3.161 -0.0582  0.0796  0.2041
15178W        W31652   2.218  16.136  13.247 -0.1060  0.1853 -0.2533
15179W        W31653   0.263  17.632   1.901  0.3426  0.1243  0.0838
15180W        W31654   6.271  14.484  13.792  0.0677  0.1248  0.1170
15181W        W31655   6.816  12.400  14.447  0.3480 -0.0842  0.1412
15182W        W31656   2.852   1.372   2.279  0.4372  0.2949  0.1693
15183W        W31657  17.348   1.491   1.216  0.0535  0.0830  0.0737
15184W        W31658  17.453   8.098  14.914 -0.0486 -0.0733  0.2886
15185W        W31659   4.405   2.334  12.217 -0.0878 -0.4429 -0.0882
15186W        W31660  12.268   6.443   1.176 -0.0126  0.0751  0.1737
15187W        W31661   5.969  16.262   5.923 -0.0323 -0.1366  0.1019
15188W        W31662   6.491  13.003  12.482 -0.1125  0.0938 -0.2137
15189W        W31663   2.568  18.322   1.285  0.1005  0.0843  0.1479
15190W        W31664  18.000   4.091  14.554 -0.0398 -0.3997  0.1097
15191W        W31665   7.667  11.287  15.408  0.1926 -0.0973  0.0774
15192W        W31666   8.758   2.240  12.271  0.4334 -0.0881  0.1095
15193W        W31667  13.495   0.564   0.912 -0.0103 -0.0486 -0.4146
15194W        W31668   6.736  15.721  14.668  0.1225  0.2953  0.1379
15195W        W31669   8.509  13.501   2.861  0.1545  0.0909  0.0047
15196W        W31670  12.274  17.431  15.769 -0.2511 -0.0769  0.0861
15197W        W31671  17.028   1.404   5.158 -0.1061  0.1691  0.0227
15198W        W31672   8.113  16.016   0.657 -0.1831 -0.1544  0.1945
15199W        W31673  15.459  10.098   4.488  0.1464 -0.5463 -0.1147
15200W        W31674   2.469   2.590   0.771 -0.0741  0.1473  0.2752
15201W        W31675   7.454  16.160  15.557 -0.2564 -0.0875  0.3523
15202W        W31676   6.849  10.888   2.558 -0.3716 -0.3242  0.2345
15203W        W31677  10.846   0.772   4.944  0.2680 -0.2396 -0.0969
15204W        W31678   1.695   9.374   1.496 -0.0008 -0.0296 -0.1221
15205W        W31679  12.219  13.230  12.388 -0.0468 -0.1094  0.0896
15206W        W31680   0.718   3.454   2.126 -0.0375  0.2589  0.1900
15207W        W31681  14.078   5.581   4.966 -0.4303 -0.1407 -0.2669
15208W        W31682   3.966   6.580   5.210 -0.1364 -0.2002 -0.1314
15209W        W31683   1.023   2.917   0.255  0.0821 -0.1456 -0.1087
15210W        W31684  11.220   0.724  16.193 -0.0872  0.1762 -0.2718
15211W        W31685  10.857   6.543  16.244 -0.1889 -0.1808  0.1522
15212W        W31686   1.412   2.366  15.389 -0.3102 -0.1241 -0.3359
15213W        W31687   6.743   5.825  13.840  0.1806 -0.0183  0.0811
15214W        W31688   2.626  17.953   4.860  0.1324 -0.1262 -0.1349
15215W        W31689  17.969  18.394   5.471 -0.3585  0.2278 -0.1236
15216W        W31690   7.799   6.369  13.199  0.3914  0.1323  0.1052
15217W        W31691  13.845  17.086  12.708 -0.1434 -0.2297 -0.1642
15218W        W31692   0.927   9.758  14.706 -0.0749 -0.0378  0.0094
15219W        W31693   5.578  15.106   0.321 -0.0822  0.0817 -0.1972
15220W        W31694   6.468   3.693   5.129 -0.0211 -0.0891 -0.2678
15221W        W31695  10.008   0.938  16.064 -0.1614  0.1481  0.0081
15222W        W31696  14.459   8.591  13.024  0.0257  0.0651  0.2334
15223W        W31697   0.677   0.315  13.922  0.0715 -0.0630  0.1522
15224W        W31698   4.119   7.474   4.335  0.1554 -0.0502  0.1919
15225W        W31699   0.758   0.015   4.781 -0.0290 -0.1764 -0.0700
15226W        W31700  15.949  13.377   5.056  0.1803  0.0522  0.0739
15227W        W31701  11.813  17.631  11.790  0.0359  0.1446  0.1545
15228W        W31702  11.125   8.623  12.809  0.1477  0.1033 -0.1920
15229W        W31703  16.596  12.552  14.055  0.0203 -0.0437  0.4162
15230W        W31704  15.295   9.841   5.760  0.0397 -0.0044  0.2582
15231W        W31705   5.215  13.791  11.726 -0.3220  0.0424  0.0324
15232W        W31706  12.570  12.019   5.722 -0.1622 -0.0129 -0.2001
15233W        W31707   0.332   5.265   1.981  0.3019 -0.0842  0.0461
15234W        W31708   9.986   7.175   3.643  0.2359 -0.4282 -0.1052
15235W        W31709  16.252  10.939  14.524  0.0671  0.1119 -0.2270
15236W        W31710  12.130   7.790  14.912  0.1273  0.2535  0.0093
15237W        W31711   0.934   7.167  15.746  0.0654 -0.0797 -0.2957
15238W        W31712  15.568   6.970  12.156  0.1606 -0.2836  0.0469
15239W        W31713  17.560   4.610  14.354 -0.0203 -0.1130 -0.0993
15240W        W31714   3.109   2.031  16.282  0.1869  0.0608 -0.0117
15241W        W31715   6.384  16.505   5.322 -0.2675  0.1933  0.0972
15242W        W31716   6.973  16.796  11.748 -0.1467  0.1097  0.3321
15243W        W31717  16.245   3.684   3.839 -0.2719 -0.1064  0.0618
15244W        W31718  17.713  15.348   4.979 -0.0583 -0.0587  0.2159
15245W        W31719   6.811  17.422  14.944  0.2435 -0.1796  0.2344
15246W        W31720   3.033   6.510   2.873  0.3074  0.0081 -0.1477
15247W        W31721  13.714  12.736  12.354 -0.1298 -0.0822  0.0559
15248W        W31722   7.333   9.080  11.289 -0.0475 -0.0103  0.3312
15249W        W31723   3.660  16.005   3.170 -0.4454  0.0501 -0.1035
15250W        W31724  12.516  10.157   5.310 -0.2537  0.0341  0.1759
15251W        W31725   6.839   1.415  15.231  0.1185  0.2330 -0.0887
15252W        W31726   8.610  16.177   0.733 -0.0597  0.0229 -0.1754
15253W        W31727   8.813   6.408   3.231 -0.0833 -0.2322  0.2621
15254W        W31728  17.486  11.784  11.796  0.1257 -0.0294  0.1030
15255W        W31729   7.527   0.340   1.143  0.0639  0.3404 -0.0386
15256W        W31730  17.767  12.126  14.039 -0.0318 -0.0081  0.1201
15257W        W31731  13.246  17.010   4.049 -0.1674 -0.0111  0.1225
15258W        W31732  11.773  15.644   0.830  0.1927 -0.0833 -0.2394
15259W        W31733  10.367  11.631  16.269 -0.0113 -0.2991 -0.1033
15260W        W31734   7.584   7.102   4.811 -0.0715 -0.1387  0.0890
15261W        W31735  10.994  13.547   2.852  0.1396  0.2176 -0.3308
15262W        W31736   7.629   6.070  14.187 -0.1673  0.0359  0.0592
15263W        W31737  13.926  11.877   1.353  0.1301 -0.0521  0.0578
15264W        W31738   3.827   0.160   1.928  0.1217 -0.3044 -0.0646
15265W        W31739   9.031   7.867  14.864  0.0556  0.0711 -0.1112
15266W        W31740  16.665   8.954  15.889 -0.0357  0.2680 -0.0744
15267W        W31741  17.552  10.014  14.496 -0.0000  0.2054 -0.1330
15268W        W31742   8.969   6.180   1.229 -0.2880  0.1356  0.0083
15269W        W31743  15.626  13.298   1.223  0.0841  0.1781  0.2235
15270W        W31744   0.959  18.271   3.121 -0.1684  0.1949  0.0277
15271W        W31745  12.513   7.513  12.819  0.0872 -0.0569  0.0509
15272W        W31746   2.056   0.644  11.609 -0.1461  0.1081  0.0102
15273W        W31747  11.568   3.268  14.998 -0.1280  0.0406  0.1096
15274W        W31748  13.075   5.328   3.535 -0.2311  0.2479 -0.1458
15275W        W31749   7.570   6.439   4.057  0.2397 -0.2030 -0.3548
15276W        W31750  15.950  10.525   3.318 -0.0609 -0.0559  0.3029
15277W        W31751   5.505  10.972  11.620  0.1507 -0.2209 -0.0433
15278W        W31752   6.918   6.209   5.588 -0.0608  0.0500  0.2826
15279W        W31753  11.060  15.919   5.540 -0.0280  0.2670  0.1598
15280W        W31754  10.448   7.168  12.600 -0.2089 -0.0282 -0.0671
15281W        W31755   4.424   3.787  14.591 -0.2288 -0.3965 -0.1921
15282W        W31756   1.779  17.554   5.362 -0.3224 -0.1736 -0.0290
15283W        W31757  16.963   4.894  12.877  0.1149  0.0061 -0.0415
15284W        W31758  17.813  11.999   2.700 -0.2007 -0.0162 -0.2295
15285W        W31759   8.451   7.319   2.777 -0.2946  0.2480 -0.1930
15286W        W31760  11.037  17.908   4.233 -0.1834  0.1314 -0.0311
15287W        W31761   2.968   9.110   4.795 -0.1151  0.1135  0.1257
15288W        W31762  17.664  13.242  12.997 -0.0917  0.0421 -0.0568
15289W        W31763   5.278   7.793  15.980  0.0241 -0.0944  0.1117
15290W        W31764   0.154   4.496   4.085 -0.0764  0.2264 -0.2786
15291W        W31765  11.056   2.095  13.849  0.3138  0.0035  0.1241
15292W        W31766   4.803   7.665   1.453 -0.0450 -0.2116 -0.1634
15293W        W31767   7.947  17.403   0.562  0.0429 -0.2360 -0.0262
15294W        W31768  18.102   9.337  13.455 -0.2062  0.1205 -0.1562
15295W        W31769  17.581   1.616   1.646 -0.2451 -0.3125  0.0293
15296W        W31770  16.175  17.243  12.282  0.3767  0.1126 -0.1561
15297W        W31771  12.002   6.727   0.429 -0.0172 -0.1746  0.0611
15298W        W31772  17.292   4.833   4.710 -0.3040 -0.0959 -0.1324
15299W        W31773   4.882   2.324   6.526 -0.0768 -0.1140 -0.1129
15300W        W31774  11.639  11.148   3.526 -0.0517 -0.2282 -0.0814
15301W        W31775   7.437   1.143  14.121  0.1531 -0.2358 -0.0763
15302W        W31776   7.772  11.284   3.387 -0.1336 -0.1778  0.1691
15303W        W31777  10.235  15.183   1.723 -0.0936 -0.0872 -0.0326
15304W        W31778  12.635  11.167   4.704 -0.0701 -0.2810 -0.1285
15305W        W31779  15.844  17.664   1.713 -0.0132 -0.2660 -0.0828
15306W        W31780   9.444  16.518  12.443  0.3115  0.0017 -0.1310
15307W        W31781   6.258   5.078   3.598  0.0176 -0.1740 -0.1981
15308W        W31782   1.592   9.489  15.131 -0.0098  0.3354  0.1743
15309W        W31783  15.275  11.370  12.275 -0.1137  0.1012 -0.0595
15310W        W31784   8.178  16.666   5.787 -0.3375 -0.0777 -0.3601
15311W        W31785  15.178   3.642  14.094 -0.0141 -0.2269 -0.2193
15312W        W31786  15.442   4.194  14.470 -0.2158 -0.4310  0.1282
15313W        W31787  11.039   4.184   1.676 -0.1543  0.1015  0.0585
15314W        W31788  12.643  13.565   2.594  0.0544  0.3274 -0.0713
15315W        W31789   9.953   6.023  14.618 -0.4724 -0.3937  0.1012
15316W        W31790   5.899   3.831   2.294 -0.1259 -0.1192  0.1023
15317W        W31791   4.170  12.461  12.100  0.0584  0.1392 -0.0192
15318W        W31792   0.439   2.081  13.892 -0.1751 -0.1505  0.1980
15319W        W31793  14.279  11.920  15.451  0.2209  0.2145 -0.0818
15320W        W31794   6.079  11.120   3.131 -0.1375  0.4183  0.2763
15321W        W31795  14.785  13.183  13.623  0.3455 -0.5874  0.4565
15322W        W31796   9.306   4.606  11.079  0.0773 -0.0178  0.1561
15323W        W31797  11.435   7.384   1.027  0.2267 -0.0897  0.0818
15324W        W31798   9.995   7.787  15.828  0.0018  0.1804 -0.3102
15325W        W31799   3.726   2.531  13.094  0.0719  0.0273  0.0993
15326W        W31800   4.496  10.656  14.790  0.0585 -0.1289  0.1106
15327W        W31801   3.751   9.813  14.887  0.3512 -0.1118 -0.2373
15328W        W31802   4.823  12.636   3.340 -0.0961  0.0507  0.0547
15329W        W31803   6.175  16.776   0.349 -0.3097 -0.1509 -0.5224
15330W        W31804  18.068   1.917   3.582 -0.1884 -0.0597  0.0002
15331W        W31805  14.752  14.364  13.972 -0.0425 -0.1349  0.1294
15332W        W31806  11.179   1.713  14.739 -0.2231  0.3580  0.4034
15333W        W31807  11.143   5.554  14.772 -0.2874  0.0068 -0.1067
15334W        W31808  10.180  10.853  15.752  0.0145  0.2385 -0.2107
15335W        W31809  12.134  11.430   0.140 -0.0877  0.3085  0.2022
15336W        W31810   7.188   9.551  11.914 -0.2716  0.0573 -0.1716
15337W        W31811   8.509   6.806   1.929  0.1291  0.2255  0.0732
15338W        W31812   4.461  14.612  15.450  0.3283  0.1165 -0.4746
15339W        W31813   6.436   5.707  11.290  0.0826 -0.3396 -0.0512
15340W        W31814   5.585  12.502  12.344  0.1932 -0.1474 -0.3165
15341W        W31815   2.288  16.616   4.641 -0.1203 -0.0752  0.3038
15342W        W31816  12.065  16.521   3.462 -0.1227 -0.1666 -0.0258
15343W        W31817   8.774   0.769  12.721 -0.0938  0.0670 -0.2628
15344W        W31818   7.452  18.229   5.531 -0.1335  0.0102  0.1706
15345W        W31819   6.224  11.980   3.088 -0.0071  0.0559  0.1075
15346W        W31820  10.579  11.623   3.087 -0.1497 -0.1672  0.0278
15347W        W31821  15.621  18.166   0.299  0.0812  0.5177 -0.0105
15348W        W31822   3.861   4.435  15.642 -0.2022 -0.1968 -0.2997
15349W        W31823  14.053   9.509  16.042 -0.1341  0.0922 -0.0370
15350W        W31824  11.135   2.942   5.031 -0.1600 -0.0851  0.2241
15351W        W31825  11.999  15.233   1.710 -0.0997  0.1917 -0.3254
15352W        W31826   2.916   0.183  12.689  0.0177 -0.0227 -0.3462
15353W        W31827  17.149   4.973  14.117 -0.2458 -0.0365 -0.0129
15354W        W31828   2.935  11.759  14.170  0.2371 -0.0262  0.0099
15355W        W31829  17.893   2.549   1.690  0.0567 -0.0300 -0.0670
15356W        W31830  15.124  13.346  15.116 -0.1645 -0.1074  0.0212
15357W        W31831   5.273   5.762   0.616  0.0364 -0.0350 -0.1137
15358W        W31832   0.335  17.020   4.703  0.1554 -0.0760 -0.1525
15359W        W31833   7.070   3.565   2.259 -0.0899  0.2467 -0.1413
15360W        W31834  15.753  15.974   5.711  0.2946  0.1778  0.0510
15361W        W31835  10.715  12.353   2.454  0.2111  0.0725  0.2035
15362W        W31836  15.952   8.194  10.718  0.0961 -0.2500  0.0752
15363W        W31837  10.789   6.260   2.883 -0.0670 -0.1249  0.4078
15364W        W31838   6.637   6.372   1.088  0.2895 -0.0082  0.0217
15365W        W31839   5.338  16.372  14.940  0.3141 -0.0400  0.0982
15366W        W31840   0.834   2.811   1.665 -0.0908  0.0497  0.1986
15367W        W31841  15.528   6.627   1.836 -0.1559 -0.2670  0.0860
15368W        W31842   4.997   4.477   0.869 -0.0144  0.0296  0.1514
15369W        W31843   9.173  17.876   1.543  0.1885 -0.0880  0.1068
15370W        W31844   2.078  15.756  15.133  0.0263 -0.0660 -0.0900
15371W        W31845  13.743   6.326  16.006 -0.1174  0.2038 -0.0674
15372W        W31846   7.840   8.538   5.326 -0.3939  0.1314 -0.0521
15373W        W31847   1.200   7.193  14.382 -0.0471 -0.0885 -0.0050
15374W        W31848   2.457  11.035   3.682 -0.1363 -0.1914 -0.1379
15375W        W31849  17.540   7.982   1.756  0.0764 -0.2533  0.0022
15376W        W31850  14.392   6.474   0.449  0.0121 -0.0040 -0.1411
15377W        W31851   6.022  15.220   0.610 -0.0394 -0.0028 -0.1242
15378W        W31852   8.452  18.167  14.651  0.2524  0.1828 -0.3605
15379W        W31853   6.430   1.957  11.774  0.1863  0.0142  0.1484
15380W        W31854   9.696  11.055   0.924 -0.2369 -0.3210  0.1721
15381W        W31855   4.920   8.245  12.655 -0.1887 -0.0995 -0.0023
15382W        W31856   5.653  11.919   4.101  0.2056  0.0010  0.1058
15383W        W31857   7.548   0.491   4.807 -0.2364 -0.1058  0.0664
15384W        W31858  15.086   9.478   5.441 -0.2238 -0.2328 -0.2077
15385W        W31859   1.999  10.078  11.292 -0.4672 -0.2005  0.1245
15386W        W31860   5.843   2.768   5.924  0.0359  0.0250 -0.0466
15387W        W31861  14.738  13.799   2.640  0.0341  0.0570 -0.1603
15388W        W31862  18.009  17.209   3.653  0.6952  0.0921 -0.0856
15389W        W31863   4.236  13.002   1.471 -0.0635 -0.1582  0.1207
15390W        W31864  14.711  14.487   4.205  0.0442 -0.2083  0.1464
15391W        W31865   4.715   6.086  16.246  0.0278 -0.1695 -0.1455
15392W        W31866   0.192   4.714   2.704  0.0222  0.1817  0.0055
15393W        W31867   6.981  15.753  12.891  0.0629  0.0268  0.3602
15394W        W31868   5.639  14.343   3.227  0.1048 -0.2779 -0.2315
15395W        W31869   9.527  16.278  14.303 -0.2237 -0.0247 -0.1685
15396W        W31870  10.107   0.476  14.704 -0.0883 -0.1557 -0.1616
15397W        W31871  16.954   3.264  14.546 -0.1363 -0.0908 -0.0200
15398W        W31872   3.990   9.751  12.113  0.1969  0.0859 -0.0386
15399W        W31873  18.340   9.742  12.721 -0.0300  0.0044  0.2288
15400W        W31874  15.046   6.996   2.639 -0.4264  0.0536 -0.1535
15401W        W31875   0.632   5.653  15.984  0.2299  0.3784  0.1885
15402W        W31876  13.502   5.537  13.963  0.0820  0.2360  0.1354
15403W        W31877  13.628   6.128   0.118 -0.2331  0.1159  0.3561
15404W        W31878   4.178  16.057   6.492 -0.3011  0.0902  0.0720
15405W        W31879   7.930   4.785   4.225 -0.0720  0.0053  0.0098
15406W        W31880  12.025  11.601   2.631  0.0540  0.1051  0.2658
15407W        W31881   0.067   1.388  12.675 -0.1674 -0.0398  0.2080
15408W        W31882   2.791  12.775  13.539  0.0885 -0.2127 -0.0914
15409W        W31883  12.925   3.279   5.194  0.0132  0.0752  0.1406
15410W        W31884  15.356   9.765  15.099 -0.3463  0.0823 -0.1215
15411W        W31885  12.600  11.149  12.098  0.2280 -0.0386  0.0224
15412W        W31886   1.622   1.331   3.227  0.3229  0.1935  0.1700
15413W        W31887  16.404   2.705  13.026  0.2088  0.1358  0.0839
15414W        W31888   4.976  10.811  13.245 -0.2884 -0.3416  0.0915
15415W        W31889  15.832  15.037  14.039  0.0434  0.2076  0.0793
15416W        W31890  13.531   9.306   1.263  0.1209 -0.0281  0.2441
15417W        W31891  10.147  16.803   5.373  0.2365  0.0891  0.0029
15418W        W31892   9.936   8.074  12.857 -0.2460 -0.1832 -0.1468
15419W        W31893  12.887  13.936  15.370  0.1957 -0.2981 -0.2768
15420W        W31894   0.443  15.842  16.075  0.1836  0.0600 -0.3405
15421W        W31895   0.811   1.719  13.929  0.3596  0.1449 -0.0675
15422W        W31896  18.192  12.589   2.752  0.2459 -0.0808  0.1365
15423W        W31897   8.624  10.874   5.337 -0.1438  0.1769  0.1254
15424W        W31898  15.419   5.786  13.104 -0.1784 -0.2022  0.0289
15425W        W31899   6.526   1.767  13.215 -0.1369 -0.0335  0.2993
15426W        W31900  14.616  17.819   4.579  0.2707  0.0445 -0.3598
15427W        W31901  13.942   1.933   0.889  0.2566 -0.0634  0.0030
15428W        W31902   7.697   7.671   4.708 -0.0751  0.1871  0.0308
15429W        W31903   7.048   0.691   1.200 -0.1336 -0.0436  0.1296
15430W        W31904  13.028   1.613   3.477 -0.2349  0.4070  0.1589
15431W        W31905   6.499   3.706   1.728  0.3111  0.1697 -0.0348
15432W        W31906  16.302   0.129   4.432 -0.0871  0.2555 -0.3784
15433W        W31907  12.861  15.282  15.306  0.1581 -0.1863  0.0692
15434W        W31908  12.227   0.229   5.759 -0.5548  0.1225 -0.1900
15435W        W31909   9.551   0.974  13.914  0.1541  0.3554  0.3591
15436W        W31910  14.262   6.025   2.073 -0.1744  0.2151 -0.1434
15437W        W31911   0.823   6.532   5.904 -0.2598 -0.3275  0.2106
15438W        W31912  16.526   4.953   1.900 -0.0067 -0.2746 -0.0713
15439W        W31913  14.778   0.292  14.866 -0.0189 -0.1180  0.2081
15440W        W31914   9.254  10.389  14.858  0.2276 -0.1556  0.0403
15441W        W31915   0.132  10.777   4.641 -0.0224  0.3264 -0.0980
15442W        W31916  18.134   9.479   5.271 -0.1056 -0.1674  0.1430
15443W        W31917  12.303  17.947   4.513  0.2052 -0.0489  0.1117
15444W        W31918   3.659   9.635  11.653  0.1424  0.0638 -0.2082
15445W        W31919   6.218  12.384   2.745 -0.0049 -0.1275 -0.0735
15446W        W31920  18.103   5.166   0.941 -0.0392 -0.0644  0.1221
15447W        W31921  12.566  11.871   1.915  0.1253 -0.2399  0.1760
15448W        W31922   9.182   7.763  15.396  0.0982  0.0120 -0.2917
15449W        W31923  12.579  16.498  14.282  0.1076 -0.3671 -0.0194
15450W        W31924  10.351   9.520  11.415 -0.0090  0.0947  0.0519
15451W        W31925  12.851   1.794  12.679 -0.0417  0.1587  0.0233
15452W        W31926   6.372   0.897   3.127 -0.3296  0.0353 -0.1495
15453W        W31927   4.793   7.211   3.714  0.1547  0.0048  0.0461
15454W        W31928   6.259   9.518   1.403 -0.2179  0.0049 -0.5238
15455W        W31929  17.639  11.234   5.190 -0.4378 -0.0115  0.1451
15456W        W31930  15.196  10.408  12.447  0.1132 -0.0169 -0.1485
15457W        W31931  10.089   8.853  15.797  0.0490  0.2537 -0.0832
15458W        W31932  15.366   8.180  13.954 -0.0286 -0.1400 -0.1334
15459W        W31933  13.256   4.747  16.110 -0.1040 -0.2281  0.0625
15460W        W31934   6.728  11.473  16.034  0.0883  0.1036 -0.2142
15461W        W31935  14.480  11.571   3.763 -0.0821  0.0582 -0.3033
15462W        W31936   6.028  11.519  15.789 -0.0731 -0.2741  0.3599
15463W        W31937   3.040   0.441   0.067  0.0030  0.0302  0.2339
15464W        W31938  11.658   0.159  12.493 -0.1225 -0.1581  0.0789
15465W        W31939   6.330  17.172   4.672  0.1352  0.0760 -0.2414
15466W        W31940   3.515   2.850  15.173 -0.0262  0.2378  0.1680
15467W        W31941   0.556  14.776   3.716 -0.3655 -0.0961  0.1991
15468W        W31942   3.558   9.101  15.473 -0.2929 -0.3494 -0.1798
15469W        W31943  12.827   5.587   3.914  0.0587 -0.0254 -0.0192
15470W        W31944   4.532   7.310   1.227 -0.0843 -0.1617 -0.0891
15471W        W31945   5.837  16.295  14.615  0.0258  0.1503  0.2143
15472W        W31946  14.695  18.182  12.766  0.4198  0.0121 -0.4642
15473W        W31947  14.096   9.842  10.959  0.1238 -0.0680 -0.2398
15474W        W31948   7.663  12.431   3.309 -0.2423  0.1079 -0.0063
15475W        W31949   7.178  15.261  15.796  0.1175 -0.1004  0.1154
15476W        W31950  11.130   7.315  15.760  0.0179 -0.2410  0.2995
15477W        W31951  10.166  12.147  15.724 -0.0808  0.3465  0.0709
15478W        W31952   3.485   4.624   0.533 -0.2825 -0.3209  0.2919
15479W        W31953   2.125   9.652   1.145 -0.2844 -0.0621 -0.2898
15480W        W31954  18.384   0.398   4.368  0.1551  0.1440 -0.1398
15481W        W31955  15.875  14.929  14.936 -0.2273 -0.1298 -0.2802
15482W        W31956   1.295   1.215   5.096 -0.1747  0.1259 -0.1471
15483W        W31957   3.631   3.427   0.497  0.1784 -0.1386 -0.3726
15484W        W31958  17.588   3.464  14.046 -0.0279  0.1925 -0.2381
15485W        W31959  16.990   1.573   6.202 -0.0776 -0.0073 -0.4586
15486W        W31960  13.524   9.891   2.982 -0.1599 -0.0706  0.0037
15487W        W31961  14.116   3.938   0.419 -0.3771  0.3235  0.1547
15488W        W31962   3.098   2.095   1.111  0.3309  0.0256  0.2570
15489W        W31963   3.830   0.653   1.743 -0.0055 -0.1299  0.0525
15490W        W31964   5.475   6.696   3.036  0.0530  0.0136 -0.1351
15491W        W31965  15.215   2.827   0.253  0.2297 -0.0659  0.0779
15492W        W31966   1.601   2.680  14.102  0.0471 -0.0742  0.2446
15493W        W31967  13.997   5.163   2.485 -0.1496  0.0232 -0.0060
15494W        W31968   1.928  17.110  15.420  0.3017  0.0090  0.1827
15495W        W31969   1.040   5.507  15.796 -0.4535 -0.0174 -0.3431
15496W        W31970   4.110  13.246  16.103  0.2211 -0.2436  0.0883
15497W        W31971  12.696  11.628   0.937 -0.0441  0.1291  0.5496
15498W        W31972   3.960   2.730   4.961 -0.0452 -0.0999 -0.0285
15499W        W31973  16.273   8.409   0.569 -0.0111 -0.0276 -0.5394
15500W        W31974  14.734   6.185  15.281 -0.2994  0.1038  0.1998
15501W        W31975  12.642  10.283  13.929  0.1115  0.3005  0.1426
15502W        W31976   2.297   1.740  11.644 -0.2914  0.2064 -0.2357
15503W        W31977   1.540  12.621  14.975  0.1663  0.2233  0.1439
15504W        W31978   8.167   1.876  13.487  0.0869  0.2215  0.0402
15505W        W31979   7.049  14.759  12.696 -0.0893 -0.1457  0.0216
15506W        W31980   1.678  11.939   4.969  0.0714 -0.2605 -0.2643
15507W        W31981   7.628   7.286   0.753  0.1329  0.4519 -0.0706
15508W        W31982   7.383   5.381   2.980 -0.0634 -0.0955  0.0971
15509W        W31983   7.601  17.291  12.231  0.1182  0.1081  0.0925
15510W        W31984   7.931  15.478  12.835  0.0637 -0.1971 -0.2327
15511W        W31985   2.982  14.114   4.675  0.0236 -0.2805  0.0145
15512W        W31986   2.234   6.259  16.339 -0.0131  0.0937  0.0555
15513W        W31987   6.245   3.034  14.529 -0.0318 -0.1919 -0.1990
15514W        W31988   8.489  12.166   0.781  0.0354 -0.1516 -0.1154
15515W        W31989  17.859  11.279  13.797  0.0723 -0.1365  0.1023
15516W        W31990  14.893   3.608   4.418  0.1603 -0.0809  0.1836
15517W        W31991  17.716   8.336  13.398 -0.3832 -0.0657 -0.2716
15518W        W31992  13.578   6.910  11.518  0.1792 -0.0799 -0.0098
15519W        W31993  14.681  16.083  14.283 -0.2503 -0.1989 -0.2731
15520W        W31994  16.774  12.390  13.155  0.4810  0.0801  0.1644
15521W        W31995  14.928  12.897   0.126 -0.2231  0.0490 -0.1568
15522W        W31996   9.444  16.245   2.901  0.1016 -0.5209 -0.0630
15523W        W31997  14.461  11.096  15.850 -0.2417 -0.0208  0.3026
15524W        W31998   1.218   4.859   0.746 -0.2560  0.2377 -0.0853
15525W        W31999   9.894   3.046   4.587 -0.0173  0.0460 -0.3851
15526W        W32000   3.732   8.074   5.119  0.0600 -0.1777  0.0272
15527W        W32001   7.878  14.256  15.577 -0.1522  0.3560  0.0276
15528W        W32002  15.142   3.193   5.197  0.1157 -0.2964  0.1207
15529W        W32003  14.585   5.597  10.568  0.0005 -0.1687  0.1154
15530W        W32004   1.709  18.255  13.258  0.1266 -0.1871 -0.0265
15531W        W32005  16.777   7.195  11.110 -0.3630 -0.3232  0.0060
15532W        W32006  12.161   1.041   3.126  0.1521  0.0117  0.0749
15533W        W32007   0.840  17.091  14.889 -0.0605 -0.0809  0.3371
15534W        W32008  15.445   8.849   4.999  0.0789 -0.1490  0.0682
15535W        W32009  11.128  18.284  14.447  0.1409  0.0221  0.0440
15536W        W32010   4.953   0.645   0.324 -0.0453  0.2050 -0.1458
15537W        W32011  17.786  11.619   1.761 -0.2572 -0.0826  0.0517
15538W        W32012  18.173   7.918   4.903 -0.1225 -0.1082 -0.0867
15539W        W32013   9.638   6.826   5.400  0.2049 -0.1091  0.0851
15540W        W32014   0.234   7.221   1.552 -0.2472  0.1159  0.0224
15541W        W32015   8.960  17.606  13.722  0.1340  0.0025 -0.1915
15542W        W32016   6.354   7.219  12.000  0.0676 -0.1997  0.1190
15543W        W32017  14.054   2.559  11.129 -0.1609 -0.3096  0.2826
15544W        W32018  16.989   9.621  11.357  0.2905 -0.1455  0.0248
15545W        W32019  18.052  11.115  16.021  0.2187  0.3688  0.2073
15546W        W32020  18.054   6.866  14.447  0.1129  0.1159 -0.0477
15547W        W32021  14.504   3.837   3.489  0.0754  0.0365 -0.2425
15548W        W32022   6.667  10.048   3.682 -0.0136 -0.0671  0.2715
15549W        W32023   2.802   2.800   4.774  0.0194  0.0217 -0.1985
15550W        W32024  10.396   5.519  16.077 -0.1378  0.1002 -0.0495
15551W        W32025  14.105   1.144   1.230  0.0641 -0.1142  0.1405
15552W        W32026   4.480   2.763   0.431  0.0690  0.2646  0.2633
15553W        W32027   5.319  10.162   2.501  0.1259 -0.2703 -0.1075
15554W        W32028   1.093  15.234  13.941  0.2827  0.1399 -0.0458
15555W        W32029  16.636   8.478   3.399  0.0484  0.2121  0.2796
15556W        W32030  15.419   8.754  14.146  0.0148 -0.1042  0.0115
15557W        W32031   8.565   5.824  14.091  0.0730  0.2217 -0.0291
15558W        W32032   2.974  13.917   2.232  0.0833 -0.2540 -0.0237
15559W        W32033  12.262  13.114   3.087  0.2904  0.1542 -0.1270
15560W        W32034   7.899   5.483   2.770 -0.0562  0.2042 -0.1531
15561W        W32035  16.790   7.453  12.781  0.0667 -0.2388 -0.1255
15562W        W32036   1.697  13.047  13.551 -0.0757 -0.0816  0.0795
15563W        W32037   7.765  12.046   2.968  0.1239 -0.0156  0.0536
15564W        W32038  12.227   3.029  11.276  0.0576  0.0193 -0.0035
15565W        W32039   2.434   4.638  13.037  0.1857  0.0522  0.1862
15566W        W32040  17.547  14.210  16.215 -0.2907 -0.0725 -0.1084
15567W        W32041   9.649  12.341   3.411 -0.2122 -0.0552 -0.1331
15568W        W32042   3.182  17.687   3.601  0.2541  0.1575  0.1713
15569W        W32043   6.475  15.196   1.056 -0.3347 -0.1950 -0.0081
15570W        W32044  11.317  12.492  14.185 -0.1558  0.1349  0.0783
15571W        W32045   1.739   4.627   3.384  0.0038  0.2996 -0.2774
15572W        W32046  15.195  17.843  13.105  0.0153  0.2372 -0.1602
15573W        W32047  14.315  15.378   6.248 -0.1221  0.4039 -0.4133
15574W        W32048   4.445  18.187   1.552  0.5076 -0.0027  0.3039
15575W        W32049  14.083   1.118   2.213 -0.1672 -0.2286 -0.1179
15576W        W32050  15.815  10.736   1.125  0.2915  0.0206 -0.2840
15577W        W32051   2.800  17.421  15.815 -0.0123  0.1874  0.0044
15578W        W32052  14.789  17.842  16.074  0.2749  0.3200 -0.0416
15579W        W32053  12.505   9.098   0.086 -0.0102 -0.3055 -0.3650
15580W        W32054  16.941  14.156   5.197 -0.1427 -0.0426 -0.0710
15581W        W32055  17.466   1.604  15.211  0.0779 -0.1642 -0.0749
15582W        W32056  14.780   4.949  10.271 -0.0806  0.1324  0.1302
15583W        W32057  13.303  14.272  11.839  0.1131  0.6091  0.3901
15584W        W32058   4.185   2.532  11.520  0.0592  0.2852  0.0229
15585W        W32059  10.974   6.986  11.993  0.1549  0.1003  0.3008
15586W        W32060   5.563   1.412   4.671 -0.1262 -0.0428 -0.2719
15587W        W32061   3.333   6.123   3.750  0.1027 -0.0300  0.0866
15588W        W32062  18.015   2.345   1.170 -0.4030  0.2562  0.2251
15589W        W32063   7.423  16.774  15.275 -0.0287 -0.0206 -0.3304
15590W        W32064  14.153   1.537   4.295 -0.3145  0.1046 -0.0337
15591W        W32065  14.081  11.108   2.422  0.0317  0.0877  0.0788
15592W        W32066   9.661   6.104   0.869  0.2627  0.1078  0.4607
15593W        W32067   9.912   9.017   1.057 -0.1415 -0.0319 -0.2799
15594W        W32068   2.486  10.935  16.121 -0.3208  0.4230  0.0034
15595W        W32069   2.090  12.509   4.402  0.0737 -0.0677 -0.0878
15596W        W32070   5.121   7.873  13.533  0.1475  0.1579 -0.1692
15597W        W32071  11.807  15.272  12.536  0.0659 -0.2060  0.0973
15598W        W32072  18.164  12.855  12.136  0.1569 -0.0861  0.3799
15599W        W32073  11.186   2.226  14.964 -0.3814 -0.3709  0.2023
15600W        W32074   1.552   6.041   2.167  0.2981 -0.4717  0.2211
15601W        W32075   7.253  17.219  16.216  0.3424 -0.0320  0.0041
15602W        W32076   3.693  13.868   1.569 -0.0614  0.1547  0.0469
15603W        W32077  14.339   8.937  13.966 -0.1909  0.1702 -0.0835
15604W        W32078   4.003   6.385   1.619 -0.1416 -0.2004  0.0350
15605W        W32079   4.041  14.507  14.837  0.0791 -0.0173 -0.3162
15606W        W32080  10.202   0.983  12.808  0.1592  0.2236  0.1798
15607W        W32081   8.164  15.949  14.173  0.0846  0.2578  0.0904
15608W        W32082  17.974  12.558  13.199  0.0499 -0.3227 -0.1869
15609W        W32083  17.429   7.017   0.666  0.1344 -0.1485  0.0067
15610W        W32084   2.469   7.242   2.599 -0.1427 -0.2486  0.0953
15611W        W32085   5.139   7.643   2.448 -0.0430  0.2564  0.1260
15612W        W32086   4.709  12.375   0.644  0.0922  0.2674 -0.3552
15613W        W32087  14.036   0.874   1.735 -0.0689 -0.0438 -0.2796
15614W        W32088   8.813   4.059   2.975 -0.2212 -0.0140 -0.1039
15615W        W32089  13.413   9.082  16.061  0.0931 -0.1604  0.0454
15616W        W32090   5.534  10.099   4.203 -0.2397  0.0969 -0.0372
15617W        W32091  14.773   6.887  15.861 -0.0958 -0.1397  0.1938
15618W        W32092   0.915  13.581  14.475 -0.0389 -0.2004  0.0091
15619W        W32093   2.802   0.229  11.912  0.1372  0.2156  0.0429
15620W        W32094   3.374   7.248  16.092  0.2099  0.3728 -0.2339
15621W        W32095   5.249  12.710   1.900 -0.0216  0.0255 -0.2272
15622W        W32096  14.022   0.816   3.304 -0.0580  0.2465  0.1417
15623W        W32097   8.940   3.918   1.349  0.0373  0.0361  0.1035
15624W        W32098  18.321   6.236   3.043  0.0142 -0.2874 -0.3225
15625W        W32099   5.229  16.890  14.790  0.1222 -0.3845  0.1515
15626W        W32100   7.883  13.368   1.138 -0.2806  0.1121 -0.4286
15627W        W32101  16.144   6.063   3.748  0.0076 -0.5203  0.3364
15628W        W32102  10.446  15.539  13.241  0.2677 -0.3570  0.0790
15629W        W32103   6.233  10.456  12.524  0.4049 -0.2411 -0.1709
15630W        W32104   9.809   3.590  10.365 -0.0855 -0.0782 -0.0971
15631W        W32105   0.691  18.043   4.349 -0.1793  0.0345  0.0325
15632W        W32106  13.503   2.701  13.394 -0.2193  0.0680  0.0162
15633W        W32107   1.955  14.702  15.069  0.1183  0.0807  0.0965
15634W        W32108  12.145   8.968   3.558 -0.1314  0.0126 -0.2723
15635W        W32109  10.010   3.425   3.766  0.1042  0.1270  0.3874
15636W        W32110   2.841  13.494   2.554  0.3497 -0.0844 -0.1895
15637W        W32111  13.232   6.846  13.226 -0.0216 -0.3051  0.0126
15638W        W32112   8.598   4.021   2.542  0.0435 -0.2128  0.0438
15639W        W32113  11.840  16.143  10.636  0.0928 -0.0042  0.1910
15640W        W32114  11.610   9.131   2.138  0.0080 -0.0345  0.0509
15641W        W32115  11.671   0.724   2.996  0.0217  0.2566 -0.0106
15642W        W32116   8.530   7.001  10.566  0.5430  0.2775 -0.0438
15643W        W32117   7.152  14.107  14.979  0.2731  0.6030  0.2560
15644W        W32118  12.007   8.915  15.545  0.2630  0.1686  0.3611
15645W        W32119  18.197  14.700  15.091 -0.1843  0.0612 -0.0313
15646W        W32120  11.330   8.768  14.680  0.0650 -0.1997 -0.0506
15647W        W32121   7.347   0.970   5.690 -0.1854 -0.0611  0.2367
15648W        W32122  17.450  16.039  13.794 -0.0045 -0.1661 -0.0108
15649W        W32123   2.091  15.263  14.436 -0.3332  0.0995 -0.0530
15650W        W32124  14.508  15.951  11.698 -0.2820  0.2618  0.0347
15651W        W32125   1.315   2.575  15.862 -0.1179 -0.0519  0.0443
15652W        W32126   2.640  11.062  14.897  0.0014  0.0108 -0.0083
15653W        W32127  10.273   5.669   1.685 -0.1371  0.0838  0.1071
15654W        W32128   3.316  16.304   3.615 -0.1557 -0.0279  0.1333
15655W        W32129  14.026  12.056  14.242 -0.0227 -0.1649  0.2297
15656W        W32130   1.225   1.940   2.012  0.0226 -0.0329 -0.2858
15657W        W32131   3.925  10.249  12.045  0.2332 -0.0671 -0.3896
15658W        W32132   9.461  10.117   5.739 -0.2214  0.1012  0.1237
15659W        W32133  14.732   0.199  12.388  0.0116  0.0659  0.2109
15660W        W32134   8.719   7.871  12.526  0.0213 -0.5615 -0.0511
15661W        W32135   5.159   5.455   2.366  0.3797  0.1941  0.2530
15662W        W32136   8.413   0.266   4.368 -0.1372 -0.0388  0.1660
15663W        W32137  15.640  14.468   5.399 -0.2287  0.0116 -0.2753
15664W        W32138  12.809  15.457   3.827  0.0906 -0.1829 -0.0348
15665W        W32139   0.175   1.607   1.383  0.0568  0.0405  0.2727
15666W        W32140  17.025  16.000  13.446  0.1755 -0.3232  0.0516
15667W        W32141  13.855   2.846  13.766  0.0727  0.0686 -0.0598
15668W        W32142   8.189   9.144   4.237 -0.1585  0.2908 -0.1986
15669W        W32143  17.042  16.217  13.951 -0.2686  0.0367 -0.0916
15670W        W32144   6.743  18.020  12.919  0.0498 -0.1812 -0.1824
15671W        W32145  16.151  16.907   2.121  0.0795  0.1331  0.2332
15672W        W32146   5.778   5.566  13.420 -0.4951  0.2259 -0.1645
15673W        W32147   9.319   7.510   1.473  0.0364 -0.2712  0.0813
15674W        W32148   6.953  11.878   1.770  0.2020 -0.0215  0.2779
15675W        W32149   7.340   7.917   3.273 -0.2973  0.3417 -0.0679
15676W        W32150  16.136  13.515   0.345 -0.3813  0.3174 -0.0383
15677W        W32151   9.269  10.176   3.407 -0.0131 -0.0664 -0.0321
15678W        W32152   0.914   3.963  11.438 -0.0618 -0.0514 -0.1421
15679W        W32153  11.687  17.430  14.202  0.2192  0.0557  0.0241
15680W        W32154   8.096   5.476  15.443 -0.0132 -0.4907 -0.2811
15681W        W32155   9.649  14.642   0.114  0.4354  0.0204 -0.0902
15682W        W32156   0.298   4.080   4.374 -0.0816 -0.0459 -0.2067
15683W        W32157  17.361   7.776   2.158 -0.1410  0.2630  0.2695
15684W        W32158   6.935   4.704  15.993  0.2628 -0.1455  0.1035
15685W        W32159   9.474   1.155   2.437 -0.0263 -0.0842  0.2011
15686W        W32160   2.351   7.845   3.419 -0.1331  0.1212 -0.1506
15687W        W32161   7.926   9.080   3.853  0.3013 -0.2389 -0.1331
15688W        W32162   3.940  17.173  12.994  0.0458 -0.0837  0.0508
15689W        W32163   9.957   8.236   0.109 -0.0467  0.1391 -0.0337
15690W        W32164   2.112   3.350   0.812  0.0690 -0.1568 -0.1221
15691W        W32165   1.333   3.524  14.572 -0.1444  0.1409  0.1233
15692W        W32166   6.540   0.478   1.352  0.3883 -0.1000  0.1622
15693W        W32167  16.437   8.974   3.368 -0.0017  0.0151 -0.2384
15694W        W32168   0.556   9.165  13.063  0.1576 -0.0006 -0.0051
15695W        W32169  12.199  15.266  12.920 -0.3718 -0.1139 -0.0117
15696W        W32170   1.789   6.655  14.069 -0.2279  0.0197  0.2764
15697W        W32171   9.984  10.944   3.160  0.2406  0.2113  0.2207
15698W        W32172   5.561  17.652   1.812 -0.2026  0.1640  0.0474
15699W        W32173  18.369   7.842  11.115 -0.0747  0.0421  0.3052
15700W        W32174   6.744  14.938  15.887 -0.1946 -0.0642  0.1289
15701W        W32175  15.831   3.025  12.334 -0.2548  0.2734 -0.1423
15702W        W32176  17.093   7.540   2.541 -0.1868 -0.4548 -0.1943
15703W        W32177   8.153   4.836   1.282  0.1894 -0.1700 -0.3218
15704W        W32178  18.235  11.171   2.515  0.3469 -0.2517 -0.0643
15705W        W32179   5.720  10.782  15.606 -0.1124 -0.0030 -0.1789
15706W        W32180  12.546  11.329   2.095 -0.0393  0.1017 -0.0424
15707W        W32181   2.129   0.263   1.777 -0.2060 -0.1224 -0.0300
15708W        W32182   5.237  16.123   2.048 -0.2759 -0.1446 -0.1863
15709W        W32183   2.214  12.414  14.343 -0.1235 -0.1858  0.1199
15710W        W32184   3.206   3.777   4.515  0.1705  0.0635 -0.0760
15711W        W32185  11.039   6.093   4.587  0.0269 -0.3710 -0.0524
15712W        W32186  10.412   8.850   2.298  0.1804  0.2866  0.1337
15713W        W32187   4.620  13.335   1.314 -0.1048 -0.0138 -0.2785
15714W        W32188   0.028   2.482  11.182  0.1119 -0.2710 -0.1958
15715W        W32189   1.342  12.451  12.524 -0.5533 -0.0848 -0.1810
15716W        W32190   7.729  15.504   3.390 -0.0555  0.0260  0.3257
15717W        W32191   3.136  12.223  12.072 -0.2248  0.0889  0.3252
15718W        W32192   6.683  11.871   3.935  0.1023 -0.0127  0.0492
15719W        W32193  14.792   3.949  14.016 -0.0013  0.1089 -0.1734
15720W        W32194   8.253   5.511  13.219 -0.0672 -0.2275 -0.0560
15721W        W32195   1.084  17.512   2.908 -0.1775 -0.0331  0.4058
15722W        W32196   4.395   7.897   5.758 -0.1082 -0.2337 -0.3069
15723W        W32197   2.842   1.912   1.965  0.0397  0.1402 -0.3589
15724W        W32198  11.553  14.379   0.358  0.2279  0.1605 -0.2447
15725W        W32199   5.745  13.899  11.693  0.4746  0.0150  0.0092
15726W        W32200  12.395  15.515  15.161 -0.0663  0.1613  0.1955
15727W        W32201   8.750   3.224  14.075  0.1075  0.0624  0.0821
15728W        W32202  13.253   3.838   2.153  0.0172  0.0692 -0.1190
15729W        W32203  10.796  14.701  15.515 -0.0447 -0.0975  0.2315
15730W        W32204   9.749   3.340   4.172  0.1622 -0.2806  0.0228
15731W        W32205  17.760   8.426   3.679  0.0458  0.0846  0.0466
15732W        W32206  11.264  13.973   2.796  0.0520  0.1061 -0.1267
15733W        W32207   1.623  10.532   4.982 -0.1739  0.0862 -0.0284
15734W        W32208   9.666   3.711   0.507  0.1581 -0.0822  0.0098
15735W        W32209  17.743  16.794  14.354 -0.0749 -0.1321  0.1059
15736W        W32210  11.893  13.274  10.490 -0.1564 -0.1329 -0.0363
15737W        W32211   6.991   0.292  14.313 -0.1048 -0.4463 -0.1723
15738W        W32212   7.439  12.004   2.598  0.2139 -0.1540  0.1277
15739W        W32213  17.516  15.604  12.875 -0.0161  0.0539 -0.2279
15740W        W32214  16.842   8.907   0.006  0.0647  0.1141 -0.0501
15741W        W32215   6.927   7.809   9.996  0.0272 -0.2272  0.0163
15742W        W32216   2.685  11.153   2.164  0.0145 -0.0142  0.1474
15743W        W32217   0.370   0.935   2.969 -0.3085  0.0952  0.1004
15744W        W32218   0.925   2.847   4.983 -0.3646 -0.1765  0.0910
15745W        W32219   6.614  11.932   2.102 -0.4342  0.2857  0.0889
15746W        W32220  12.362   2.749   4.740 -0.1296 -0.1967  0.3186
15747W        W32221  13.988  13.407   2.459  0.1578 -0.0831 -0.0396
15748W        W32222  15.480   3.865   2.034  0.2468 -0.0060 -0.2485
15749W        W32223  16.852   0.795   1.000 -0.2502 -0.1991  0.0106
15750W        W32224   9.240   2.474   2.179  0.3616 -0.1600 -0.1875
15751W        W32225  14.055   5.919  12.875 -0.0127  0.1234 -0.0176
15752W        W32226   9.181  10.826   2.268  0.3556 -0.0629 -0.0668
15753W        W32227  13.922   7.424  12.305 -0.0235 -0.1116  0.1880
15754W        W32228   8.342   9.083  10.955 -0.0658 -0.0142 -0.1490
15755W        W32229   1.027  13.863   4.122 -0.1811 -0.2968 -0.1509
15756W        W32230  12.940   2.177  11.890 -0.0337  0.0903  0.1667
15757W        W32231   6.081  10.665  13.632 -0.0221 -0.0921  0.1980
15758W        W32232   5.235  18.242   0.441  0.0004 -0.0702 -0.1292
15759W        W32233  13.339  10.629   4.181 -0.2345 -0.0546  0.0963
15760W        W32234   4.617  10.970   1.111 -0.0050  0.0973 -0.1620
15761W        W32235   2.644   1.479   3.163 -0.0432 -0.0631 -0.1329
15762W        W32236   5.244   7.155   2.703 -0.1401 -0.0796 -0.1929
15763W        W32237   7.145  15.190   2.599 -0.0229  0.2030 -0.1916
15764W        W32238  14.473   6.055   1.009 -0.0192  0.0193 -0.0040
15765W        W32239  12.143  12.260  14.071 -0.0191  0.0527 -0.1030
15766W        W32240  15.757  13.969   2.689  0.0142 -0.1112  0.0027
15767W        W32241  14.118  10.302  13.843  0.0458  0.0116 -0.2862
15768W        W32242  14.046   8.910   0.366  0.3027  0.0310  0.0004
15769W        W32243  13.982  15.177   1.407 -0.1460 -0.1088 -0.3335
15770W        W32244  10.843  10.902  13.735 -0.1096 -0.0916  0.0583
15771W        W32245   2.834   0.787  15.610  0.0796 -0.1643  0.1103
15772W        W32246   7.848  10.749  11.488 -0.1853  0.2074 -0.0968
15773W        W32247   8.423   1.998   2.534  0.0010  0.5170 -0.0727
15774W        W32248   4.519   4.493  12.903 -0.1013  0.1499  0.1974
15775W        W32249   3.312  18.004  14.096  0.0768  0.1292 -0.1144
15776W        W32250   8.052  13.524  11.854 -0.1491 -0.0385  0.2068
15777W        W32251   5.371  17.340   1.366 -0.3580  0.2212  0.1440
15778W        W32252   1.741   4.908   1.021  0.2412  0.2209 -0.2047
15779W        W32253  17.985   0.943   0.410  0.0166 -0.0608 -0.0860
15780W        W32254  17.165   0.197  12.803 -0.1280  0.1878  0.0792
15781W        W32255  17.468  17.231   3.561  0.1744 -0.1341 -0.2871
15782W        W32256   1.735   9.424   5.328  0.0377  0.0956  0.0305
15783W        W32257   8.613  12.757   0.454  0.1499  0.2445  0.1059
15784W        W32258  10.061   6.282  11.569  0.0928 -0.0980  0.1819
15785W        W32259   4.567   4.638   2.780  0.2204  0.4179  0.1632
15786W        W32260  11.905   5.802  12.045 -0.2645 -0.2094  0.0503
15787W        W32261  12.481   2.720  16.215 -0.1690 -0.1520 -0.0520
15788W        W32262  17.315   0.211  15.735  0.1540 -0.0283  0.1866
15789W        W32263  12.547   2.735  12.450  0.0252 -0.0346  0.2348
15790W        W32264  12.903  12.242   0.524  0.0296 -0.0026  0.1979
15791W        W32265  17.116  12.635  11.015  0.1512 -0.5238 -0.0308
15792W        W32266  13.023   1.467  14.576  0.0913  0.2664  0.0584
15793W        W32267   8.258  15.654   1.607  0.3480  0.0101 -0.2027
15794W        W32268   9.395  12.157  11.506  0.0922 -0.0302 -0.2401
15795W        W32269   0.719   5.533  14.910 -0.0531 -0.0814 -0.1025
15796W        W32270   8.757   8.409  15.294  0.1146  0.1696 -0.0404
15797W        W32271  11.523   6.790   2.377 -0.1262  0.0732  0.2376
15798W        W32272  11.805  15.036  14.042 -0.2847 -0.0380 -0.0371
15799W        W32273  16.796  12.543  16.108 -0.4391 -0.1175  0.1756
15800W        W32274   9.225   0.404  15.040 -0.1180  0.0378 -0.0304
15801W        W32275   9.937   0.555   1.839 -0.1639  0.0627 -0.0821
15802W        W32276  10.857   9.422   3.107  0.0174  0.2162  0.2672
15803W        W32277  12.247   1.844  13.929 -0.1687  0.1045  0.4059
15804W        W32278  11.583   0.327   3.864 -0.1145 -0.3401  0.2336
15805W        W32279   1.872   6.153  15.948  0.3137 -0.3671 -0.2903
15806W        W32280   0.077  11.812  13.176 -0.3884 -0.2260 -0.1920
15807W        W32281  12.236  15.988   0.269 -0.1295  0.0903 -0.1663
15808W        W32282  14.545   9.177  11.614  0.0275 -0.1500  0.1593
15809W        W32283   7.746   8.995  16.040  0.4149  0.0317  0.1165
15810W        W32284   9.339   7.128  15.090 -0.2251  0.0879  0.0869
15811W        W32285   0.670  13.897  12.242  0.4757  0.0534  0.2208
15812W        W32286   3.572  10.036   3.369 -0.0384 -0.2863 -0.1446
15813W        W32287  12.815  12.344   1.756  0.3607  0.2829 -0.3045
15814W        W32288  10.449   9.320   3.406 -0.1806  0.1749 -0.4091
15815W        W32289  18.117   4.979  13.589 -0.3184 -0.0838 -0.1860
15816W        W32290   7.279   3.132   3.806  0.1228 -0.1123  0.1580
15817W        W32291   2.572  17.514   4.201  0.0201 -0.1410  0.0351
15818W        W32292  11.128  11.213   3.709 -0.0782 -0.1625  0.1224
15819W        W32293  11.620  15.443  11.811  0.0963 -0.2859  0.2479
15820W        W32294   3.881   2.634   0.455 -0.1434  0.1559  0.0895
15821W        W32295   4.798   3.892   1.402  0.1550  0.1591 -0.0163
15822W        W32296   9.989   0.359   3.357  0.2852 -0.3302  0.1135
15823W        W32297   9.294   1.868   5.364 -0.2381  0.1805  0.3551
15824W        W32298  15.719   5.622   2.814  0.1399 -0.0226  0.1421
15825W        W32299   9.704  13.063   3.999 -0.0234  0.2110 -0.0749
15826W        W32300  15.264   9.463   3.497  0.0237  0.0780 -0.1889
15827W        W32301  16.940  17.720  12.529  0.1278 -0.0292 -0.1013
15828W        W32302  17.075   5.122   5.186  0.0595 -0.1043 -0.1565
15829W        W32303   1.392  15.582  12.701 -0.1594 -0.0545 -0.0470
15830W        W32304  17.845   0.253   2.246 -0.0827  0.3007 -0.0258
15831W        W32305  14.424  11.769  12.266  0.1061 -0.0653 -0.2845
15832W        W32306   2.226  14.676  14.277  0.1623  0.0646  0.0005
15833W        W32307   3.612  17.234   4.810 -0.0237  0.0273  0.1779
15834W        W32308   7.271  16.881  12.161 -0.1396  0.0485 -0.0789
15835W        W32309  16.859   2.886  15.192 -0.0897 -0.2321 -0.3742
15836W        W32310  16.420   5.544   4.558  0.0789 -0.2216 -0.0790
15837W        W32311   6.185  15.322   3.317  0.0053  0.1190 -0.0890
15838W        W32312   1.710  11.108  13.285 -0.1241 -0.0898  0.4320
15839W        W32313   4.955  14.277   2.804 -0.0798  0.1862 -0.1247
15840W        W32314   9.635   0.083   5.575 -0.1584 -0.0723 -0.4477
15841W        W32315   8.846  12.795  13.085 -0.2208 -0.1161 -0.0464
15842W        W32316  17.640   5.313  13.017  0.0395  0.1864 -0.0582
15843W        W32317  11.133   1.397   1.604 -0.3542 -0.1067  0.1818
15844W        W32318  12.928   7.894   1.990  0.2183  0.0964 -0.0335
15845W        W32319   5.575   0.371   1.468 -0.2491 -0.1778 -0.1610
15846W        W32320   4.947  17.236   1.798 -0.1413 -0.3292  0.1633
15847W        W32321   8.873   3.403  12.290  0.3785 -0.2146 -0.1508
15848W        W32322   2.799  17.066  12.489 -0.0190 -0.4354  0.1278
15849W        W32323   9.573   8.034  15.613  0.1861  0.0209  0.2728
15850W        W32324  11.357  17.109   2.799  0.2326 -0.1892 -0.1071
15851W        W32325   9.720  18.242   1.484 -0.1015  0.0157 -0.0208
15852W        W32326   5.689   9.716   4.687  0.3135 -0.2044  0.1234
15853W        W32327   5.780   8.344   1.827 -0.0919 -0.1101 -0.3154
15854W        W32328   9.937  14.646   2.662 -0.1113 -0.1234  0.0034
15855W        W32329  16.453   7.034  11.474  0.0352 -0.1804  0.1539
15856W        W32330  17.626   4.107  10.926 -0.0294  0.0761 -0.1904
15857W        W32331  14.953  11.818   2.142  0.0884  0.1175  0.1576
15858W        W32332   0.831   8.839   1.684  0.3124 -0.2427  0.0343
15859W        W32333   4.338   3.404   0.515 -0.1045 -0.0621  0.0553
15860W        W32334   5.365   5.893  14.970  0.1302 -0.2886  0.0611
15861W        W32335  15.507  13.878  15.730 -0.1173 -0.0872  0.1301
15862W        W32336   4.717  15.272  13.013  0.2650  0.1063  0.3059
15863W        W32337   9.933  12.627   0.783  0.2897  0.0359  0.2061
15864W        W32338   9.417  10.681  12.330  0.0309 -0.0629  0.0775
15865W        W32339   0.717   7.281   1.708 -0.0985 -0.0764 -0.2522
15866W        W32340  10.823  14.798   1.112 -0.0592 -0.0667  0.1538
15867W        W32341   7.861   5.399  13.631  0.0760 -0.0741  0.0348
15868W        W32342   0.234   7.132   0.027 -0.0795  0.1004 -0.1809
15869W        W32343  15.671   3.792   1.193  0.3547 -0.1837  0.0946
15870W        W32344   8.714  15.479  13.290 -0.1005  0.1742  0.0204
15871W        W32345   9.565  15.379   4.675  0.3593  0.0599 -0.0880
15872W        W32346   3.010  11.977  15.641  0.2283  0.0450 -0.0505
15873W        W32347   2.746   1.039  16.033  0.0840  0.0792 -0.2706
15874W        W32348   6.958   6.905   3.364 -0.1133  0.1480  0.1659
15875W        W32349  17.818  17.257   1.119 -0.1685  0.0963 -0.0974
15876W        W32350  10.841  14.686   3.039 -0.0097  0.2847  0.0049
15877W        W32351  17.538   8.991  12.580  0.0466  0.2933 -0.0866
15878W        W32352  11.058  13.104   4.008 -0.1742  0.1559  0.3038
15879W        W32353  12.057   4.374  14.035 -0.3242 -0.1628  0.2012
15880W        W32354  10.476  14.466  15.247 -0.0263  0.0263  0.1530
15881W        W32355  13.658   9.504  14.490  0.0544  0.5315 -0.3102
15882W        W32356  10.652   6.586  11.936  0.2886  0.0910 -0.0067
15883W        W32357  18.340   4.271  14.913 -0.2134  0.1301 -0.0900
15884W        W32358   2.564   7.519   0.330  0.0473 -0.2212 -0.0894
15885W        W32359   6.361   6.517   1.428 -0.2046 -0.1320 -0.2803
15886W        W32360   9.163   5.461   4.563  0.2546 -0.0284  0.2089
15887W        W32361   7.080  16.035   4.331  0.3194 -0.2467 -0.1826
15888W        W32362   0.108   7.331   2.824 -0.1813 -0.2297 -0.0407
15889W        W32363   7.544   5.559  12.407  0.1136 -0.1961 -0.1753
15890W        W32364   9.398   1.954  15.389 -0.3035 -0.0127  0.0993
15891W        W32365   6.940  10.555   0.606  0.0749  0.2071  0.1377
15892W        W32366   4.742  10.131  16.314 -0.1270  0.1918 -0.1093
15893W        W32367   2.869   2.257   1.538  0.0866  0.2721 -0.0826
15894W        W32368  13.282  15.146  13.556  0.4140 -0.0828  0.0248
15895W        W32369   0.595  15.194   0.730 -0.0490 -0.1246 -0.3429
15896W        W32370  16.575  12.070   1.586 -0.0067 -0.0316 -0.2080
15897W        W32371   8.323  14.032   0.071 -0.0735  0.1007  0.0697
15898W        W32372  15.055  10.016  14.828  0.0742  0.0239  0.1824
15899W        W32373   8.923  10.589   0.333  0.0120 -0.0028 -0.2146
15900W        W32374   2.824  16.506  13.501  0.2628  0.0491  0.0154
15901W        W32375  17.270   6.763   4.155 -0.1200 -0.3938  0.1284
15902W        W32376   3.729  18.109   2.673  0.2472 -0.3136 -0.3435
15903W        W32377   1.009  12.655  12.852  0.0639  0.2757 -0.0869
15904W        W32378  11.648   3.437  13.152 -0.4793 -0.0557 -0.0221
15905W        W32379  12.320   8.595   4.902 -0.0471  0.2120 -0.4556
15906W        W32380   6.267   0.100  11.798 -0.0304  0.1360 -0.0323
15907W        W32381   3.010  15.612  13.589  0.2272  0.3362 -0.1082
15908W        W32382  10.640  15.687   5.427 -0.1966 -0.1170 -0.0155
15909W        W32383   7.920   6.349  13.756 -0.0322 -0.1671 -0.0066
15910W        W32384  11.603   4.578   0.589 -0.0975 -0.1364  0.2150
15911W        W32385   3.042  12.728   3.467  0.1354  0.0332 -0.3061
15912W        W32386   3.454   4.934   0.001  0.2327  0.0613 -0.1509
15913W        W32387   1.429  18.306   6.352  0.1634 -0.1820  0.0511
15914W        W32388  16.338   7.914   1.987  0.1985 -0.2489  0.0277
15915W        W32389  10.211   9.232   1.365  0.1651 -0.3659  0.3247
15916W        W32390   1.932  11.145  12.868  0.4626  0.0141 -0.0311
15917W        W32391   2.806   0.591   2.777  0.0326 -0.0996 -0.0631
15918W        W32392  15.497   6.804   2.343  0.0085  0.0426 -0.0050
15919W        W32393  14.053   4.543  12.613  0.2580 -0.0050 -0.1849
15920W        W32394  10.867   7.568   2.486 -0.0907  0.1607 -0.0339
15921W        W32395  17.879   9.678   2.309  0.1190  0.2163 -0.0588
15922W        W32396   8.416  14.820   2.191 -0.1369  0.0745 -0.0061
15923W        W32397   7.043   8.721  12.073 -0.1730 -0.2248  0.0754
15924W        W32398   0.805   9.363  15.968  0.1017 -0.1396 -0.1560
15925W        W32399   5.520   0.785   1.875 -0.0873 -0.2799 -0.4255
15926W        W32400   7.347   5.939   4.162 -0.1948 -0.1622  0.2057
15927W        W32401   9.739   2.386  14.106 -0.2263 -0.1670 -0.3119
15928W        W32402  14.067   4.408  13.937  0.1902  0.3144  0.0463
15929W        W32403   5.442   4.555   4.628  0.0002 -0.0482 -0.1420
15930W        W32404   8.166  14.735   0.861  0.1733 -0.0497 -0.1517
15931W        W32405   8.445   4.709   1.771  0.3994 -0.0291 -0.2042
15932W        W32406   9.278  12.500   5.976  0.1455  0.0851  0.0815
15933W        W32407  11.467   3.036  12.731 -0.0930  0.4654 -0.1308
15934W        W32408  10.937  12.345   2.970  0.0790 -0.0531  0.1901
15935W        W32409   9.357  11.911  13.421  0.3499 -0.0842  0.1034
15936W        W32410   0.761   5.261  12.739 -0.1164 -0.2323  0.2385
15937W        W32411   4.884  15.843   5.905  0.1557 -0.1627  0.2137
15938W        W32412   2.071   7.111  16.024  0.3417 -0.4966  0.0688
15939W        W32413   6.674   5.548  15.839 -0.0654 -0.1097  0.0170
15940W        W32414   6.927   3.558  13.435  0.0039 -0.0016  0.0623
15941W        W32415  12.826  12.338  12.875 -0.2628 -0.0691 -0.0722
15942W        W32416   7.594  15.447   5.497 -0.1492 -0.1582  0.1204
15943W        W32417   6.401   6.729  14.598 -0.0045  0.0827 -0.1522
15944W        W32418  18.042   2.837   0.004 -0.1300  0.1018  0.0775
15945W        W32419  13.812   1.510   1.124 -0.3911 -0.0034  0.0420
15946W        W32420  16.468   9.240  10.461  0.2852  0.2164 -0.1310
15947W        W32421   4.608  16.748  12.377 -0.1676  0.0693  0.0113
15948W        W32422   0.502   5.956   4.452  0.2022 -0.1100  0.0044
15949W        W32423  10.438   7.661  13.615 -0.5516  0.0273 -0.0326
15950W        W32424   6.402   6.934   3.234 -0.0500  0.0740 -0.0099
15951W        W32425   5.404   9.350   3.544  0.0517 -0.1054 -0.0729
15952W        W32426   8.044   3.993  15.846 -0.3709 -0.1911 -0.0189
15953W        W32427   0.099   1.391   2.915  0.0871  0.2557  0.0745
15954W        W32428  10.075  12.806   1.298  0.2014 -0.2013 -0.1642
15955W        W32429  15.995   1.262   1.194 -0.1556 -0.0706 -0.1963
15956W        W32430   2.070  14.558  13.720  0.1639 -0.4571  0.0418
15957W        W32431  12.337  18.021  13.961  0.0536 -0.0088 -0.1276
15958W        W32432   4.735   1.719  13.510 -0.2277 -0.2076  0.0611
15959W        W32433  14.682  11.386  11.982 -0.0877  0.2655 -0.3638
15960W        W32434   9.891   9.305   3.110  0.0846  0.0798 -0.3528
15961W        W32435   3.252   9.948   3.784 -0.1123 -0.0721  0.2649
15962W        W32436  15.263  12.091   0.336 -0.4809  0.0121 -0.0607
15963W        W32437  18.196  10.498   1.885 -0.2728  0.0162 -0.1552
15964W        W32438   4.702   6.736  11.113  0.1983 -0.0401  0.0399
15965W        W32439  14.060  12.283  13.071  0.3278  0.0170 -0.4152
15966W        W32440   0.752  14.785   1.502  0.0360 -0.0040 -0.0995
15967W        W32441  11.848  18.349   5.075  0.0851  0.2808 -0.5119
15968W        W32442  15.302  14.182  14.562 -0.3923 -0.3132 -0.2473
15969W        W32443   4.971  12.719  14.556 -0.0064  0.0289  0.0036
15970W        W32444  11.306   2.205   0.409 -0.4242  0.0604 -0.2154
15971W        W32445   9.894   5.930   0.361  0.0130  0.1266 -0.1261
15972W        W32446   2.424   0.639   3.150  0.1414 -0.2160 -0.1111
15973W        W32447  10.562   0.292   0.427 -0.2088  0.0851  0.0040
15974W        W32448  16.061  12.960   4.582 -0.0680 -0.1634  0.2291
15975W        W32449   1.057  12.797  11.617 -0.2101 -0.1056 -0.3017
15976W        W32450   4.050   3.906  12.788 -0.2015 -0.2646 -0.0732
15977W        W32451  11.784   0.264   1.422  0.2655  0.2255 -0.2003
15978W        W32452   0.883  11.905   2.421 -0.0647 -0.0679 -0.3039
15979W        W32453  16.846  14.277   2.489 -0.0537 -0.0559 -0.0276
15980W        W32454  14.582  16.106   4.648  0.4317  0.0747 -0.1436
15981W        W32455  15.426  12.812  14.656 -0.2003  0.1018 -0.2945
15982W        W32456  17.955  13.787   3.197 -0.0357 -0.0689 -0.0810
15983W        W32457   1.308   3.517  14.068  0.0339 -0.1089 -0.2964
15984W        W32458   9.115  12.291   3.265 -0.1601  0.0243 -0.2066
15985W        W32459   6.755   0.014  13.356 -0.1497  0.1030 -0.1046
15986W        W32460   6.357  10.180   4.593 -0.0339  0.2432 -0.0398
15987W        W32461   7.298   2.486  15.191 -0.0326  0.0746  0.1713
15988W        W32462  16.849  12.448   4.363  0.0659 -0.2141 -0.1069
15989W        W32463   1.236   6.437  14.727 -0.0628 -0.0175  0.2923
15990W        W32464   7.945   0.300   3.165 -0.0853  0.1307  0.3092
15991W        W32465  14.675   7.701  11.640 -0.1640  0.1530  0.2618
15992W        W32466   8.147   1.083  12.284  0.3357  0.2526  0.1055
15993W        W32467   6.057   6.201  15.851  0.0878  0.1083 -0.1161
15994W        W32468   8.240  16.533   0.564  0.2006  0.1379  0.4076
15995W        W32469  11.309   6.988   3.734 -0.1024 -0.0311  0.1195
15996W        W32470   6.883   2.634   4.206  0.2899 -0.2073 -0.0700
15997W        W32471   8.312   8.938   0.392  0.0198 -0.0654 -0.0523
15998W        W32472   1.258   8.632   0.784  0.0701 -0.3263 -0.1922
15999W        W32473   6.898   1.506   3.163 -0.1127  0.2134  0.1971
16000W        W32474  16.913  16.303  16.007  0.4132 -0.2569 -0.0470
16001W        W32475   6.856  18.186   1.550 -0.3541  0.0666  0.0370
16002W        W32476   5.262   5.597   1.434 -0.2683  0.3341  0.1383
16003W        W32477   1.816  13.370  15.302 -0.0503  0.2396  0.0361
16004W        W32478  11.157   3.046   3.358 -0.1057 -0.1515 -0.0114
16005W        W32479   5.417  14.826   3.305 -0.1963  0.0455 -0.1982
16006W        W32480   4.203  12.543  13.929  0.1197 -0.0393 -0.0056
16007W        W32481  17.124  12.143  11.448  0.0051 -0.0197  0.1255
16008W        W32482  14.781   9.693   5.018 -0.3942  0.0388  0.1116
16009W        W32483   1.008   9.010  14.557 -0.0649 -0.0196  0.0483
16010W        W32484   4.849  14.150  15.513  0.0166  0.1624 -0.0074
16011W        W32485  11.962  10.513  15.391  0.0257  0.4723 -0.0338
16012W        W32486  18.172  10.651   2.377  0.2348  0.0108 -0.2051
16013W        W32487  15.999   1.078  13.628  0.0299 -0.3865  0.3216
16014W        W32488  13.530  17.215  14.674  0.0384  0.0512  0.2003
16015W        W32489   6.619  14.699  15.402 -0.0194  0.0418  0.0101
16016W        W32490   9.222   2.455  11.492  0.3919  0.1588  0.0490
16017W        W32491   1.849   8.543  12.034 -0.1223  0.0550 -0.1559
16018W        W32492  16.334   3.323   2.994  0.2106  0.0611 -0.5048
16019W        W32493   2.512   9.292   2.969 -0.0709  0.0151 -0.0722
16020W        W32494   4.891   1.793  12.993 -0.0765  0.3349  0.1669
16021W        W32495   3.631   9.185  12.078  0.1897  0.0450  0.1066
16022W        W32496  16.105   3.422  14.379  0.2618  0.0521 -0.0428
16023W        W32497   7.381  15.180  11.302  0.0211  0.5516 -0.0230
16024W        W32498   2.940   7.330   2.394 -0.1656 -0.1835 -0.0574
16025W        W32499  11.724  12.400   0.897  0.3134 -0.0367  0.2704
16026W        W32500  18.238  15.667   1.435 -0.1330 -0.2098 -0.3456
16027W        W32501  12.256  18.049  13.356 -0.3256 -0.1058 -0.1215
16028W        W32502   9.973   8.851   5.921 -0.1366  0.0258 -0.0956
16029W        W32503   0.087  13.278   1.120  0.0100  0.5521  0.0687
16030W        W32504  11.553   9.595  14.527  0.1415  0.1434 -0.1135
16031W        W32505  16.075   3.254   4.034 -0.2440  0.0168 -0.0137
16032W        W32506   1.734   2.189   4.613  0.2646 -0.0630  0.3112
16033W        W32507   1.393  11.196  16.060  0.4192  0.2143 -0.2467
16034W        W32508   3.899  14.108  14.060  0.0367 -0.1680  0.0467
16035W        W32509   5.192  11.034   3.683  0.0046  0.2002 -0.0573
16036W        W32510  16.995   9.062   5.660 -0.0887  0.1359  0.2290
16037W        W32511   3.824  15.981  15.623  0.0368  0.2767  0.0688
16038W        W32512  14.813  18.091  11.053  0.0365 -0.0145  0.2067
16039W        W32513  15.535  12.075  13.944 -0.0673  0.0009 -0.0946
16040W        W32514  16.267   6.688   2.261 -0.1035 -0.1712  0.0271
16041W        W32515  11.191  14.531   2.766 -0.1460  0.0923 -0.0662
16042W        W32516   7.389   7.941  14.357 -0.0348  0.0617 -0.0047
16043W        W32517   4.485  18.033  12.423  0.1598 -0.2628  0.1838
16044W        W32518  14.972  10.377   1.365 -0.4174 -0.3591 -0.2250
16045W        W32519   8.759   2.711   5.223 -0.0133  0.1557  0.1142
16046W        W32520   6.435  17.571  12.786 -0.0491  0.0359  0.0342
16047W        W32521   6.768   2.810   4.648  0.1087 -0.0569  0.0947
16048W        W32522  14.411  12.089  11.428  0.0486  0.1548 -0.0216
16049W        W32523  13.384  11.439   4.503 -0.3827 -0.0449 -0.0388
16050W        W32524  12.247  14.759  16.328  0.1649  0.0646 -0.3612
16051W        W32525   3.867   6.407  13.452 -0.3794  0.0836 -0.1475
16052W        W32526   3.792   7.506   5.168 -0.1603  0.1354 -0.2480
16053W        W32527  15.563   0.465  13.052 -0.2113  0.0787  0.1924
16054W        W32528   1.726  12.548   4.789 -0.0692  0.1847  0.1290
16055W        W32529   7.538  12.139  14.742 -0.0130 -0.0454  0.0512
16056W        W32530   5.433  18.015   2.624  0.2710 -0.2221 -0.0466
16057W        W32531   6.870  10.527   0.119  0.0256 -0.2687  0.1667
16058W        W32532   8.125   9.716   2.729 -0.0198 -0.0084  0.3449
16059W        W32533  10.280  12.284  13.564 -0.0221 -0.0917 -0.3499
16060W        W32534   9.881  13.704  12.817  0.3731 -0.1482  0.0746
16061W        W32535  10.677  10.278   1.187 -0.0142 -0.0563  0.1104
16062W        W32536  12.797  16.236  15.551 -0.2916 -0.1781  0.1366
16063W        W32537  13.011  15.497   5.373  0.3468  0.0648  0.0598
16064W        W32538   2.148   3.248  16.082 -0.0088  0.0518 -0.1495
16065W        W32539   2.337   8.222   0.022 -0.0681 -0.0462  0.2178
16066W        W32540  15.998  16.979  14.908 -0.0947  0.1302 -0.1227
16067W        W32541  12.195  11.273   1.699  0.1053  0.1306  0.2741
16068W        W32542   7.301   9.626   3.828 -0.1751 -0.0156  0.2259
16069W        W32543  13.507  10.988   2.317 -0.0993  0.0391  0.2952
16070W        W32544   3.299  12.165   3.543 -0.0223  0.1192  0.0379
16071W        W32545  17.984   2.064   2.995 -0.1797  0.0879 -0.1754
16072W        W32546   7.203   4.743   3.974  0.2542  0.0804 -0.2981
16073W        W32547   7.890   1.169  14.156 -0.0491 -0.0375  0.0425
16074W        W32548   4.772   2.452   4.639 -0.1386  0.0050 -0.4172
16075W        W32549   7.440  14.486   2.169  0.1168  0.1506  0.0101
16076W        W32550  13.536   8.446  13.781 -0.0159 -0.1620 -0.3593
16077W        W32551   4.032   3.520  15.663  0.0060  0.1927  0.1434
16078W        W32552  18.303  10.149   0.298 -0.1292  0.1534  0.0914
16079W        W32553  11.987  16.582  14.117 -0.0082 -0.3573  0.0530
16080W        W32554   9.032  14.476   2.318 -0.1548  0.0923  0.1088
16081W        W32555   0.548  12.030   4.745  0.5168 -0.1530 -0.1663
16082W        W32556  17.302  11.537   0.522  0.0770  0.0624 -0.0357
16083W        W32557   7.674   8.173   0.101  0.0027 -0.0126  0.0174
16084W        W32558   5.566  18.100   4.917  0.0789 -0.2414 -0.2406
16085W        W32559  18.029  16.205  12.109  0.2424  0.2066  0.3236
16086W        W32560  13.309  18.349  11.465 -0.3078  0.1523  0.1072
16087W        W32561   0.434   1.293  13.761 -0.2629  0.1627  0.2781
16088W        W32562  10.931  17.154  14.776  0.0880 -0.1300 -0.0805
16089W        W32563   0.591  13.351   1.268  0.0405 -0.1169  0.1620
16090W        W32564   8.537  17.912   3.352  0.4895 -0.6260 -0.0778
16091W        W32565   4.920  15.700   4.950  0.2517  0.1209  0.2446
16092W        W32566  12.856   8.851  16.026  0.0744 -0.2800 -0.2114
16093W        W32567  15.142   3.867   0.457 -0.0437  0.2729 -0.1832
16094W        W32568  16.140   6.246   1.910 -0.0494  0.0308 -0.0785
16095W        W32569   1.593   4.603  15.359  0.2775 -0.0511 -0.0357
16096W        W32570   2.449  18.268   1.799 -0.2913 -0.0897  0.3647
16097W        W32571   8.014   0.898  15.987  0.0597  0.1759 -0.0033
16098W        W32572   1.266   0.237   0.689 -0.1660 -0.0454  0.0653
16099W        W32573   4.670   5.448  13.163 -0.2304  0.1025  0.1416
16100W        W32574  13.037   6.552  10.622  0.0903 -0.0075 -0.0276
16101W        W32575  15.122   0.165   0.026  0.1306 -0.3259 -0.2101
16102W        W32576  16.978  16.082   6.149  0.0280  0.5775 -0.1979
16103W        W32577   8.766   0.883   5.537 -0.2334  0.0504 -0.1770
16104W        W32578   8.192  13.870  15.326 -0.1640  0.2377 -0.0707
16105W        W32579   6.097   5.007  10.002 -0.0548  0.3053  0.1248
16106W        W32580  10.782  11.559   3.518  0.3436 -0.2961  0.0989
16107W        W32581   4.751   2.877   3.256 -0.0510 -0.0956  0.1022
16108W        W32582   3.439  14.025   1.189 -0.0541  0.0648 -0.0797
16109W        W32583  10.399  13.963   2.319 -0.1044  0.0366 -0.0994
16110W        W32584  11.198   7.555  10.769  0.0090 -0.1953 -0.0814
16111W        W32585   5.378   4.525   2.266  0.2316  0.0857 -0.2927
16112W        W32586   7.648  15.135  11.991  0.0005 -0.0976 -0.0716
16113W        W32587   6.541   8.967   4.459  0.0320  0.0010  0.4480
16114W        W32588  12.414   1.196  12.433 -0.2362  0.2679  0.3710
16115W        W32589   0.053   7.389  15.768 -0.0665  0.1615 -0.0617
16116W        W32590   1.847   9.261   0.901 -0.0891 -0.0841 -0.0983
16117W        W32591  13.343  14.696  11.616  0.0260  0.0988  0.2122
16118W        W32592   1.009  12.383   0.457 -0.4330 -0.1266  0.1972
16119W        W32593  11.567  15.248  15.210 -0.1383  0.2118  0.0773
16120W        W32594  15.519   0.286   0.397 -0.3951  0.2008  0.2497
16121W        W32595  11.564  10.104  14.773  0.0310  0.1270 -0.0352
16122W        W32596   1.278   6.765   2.707  0.1546  0.1074 -0.1070
16123W        W32597  15.392   2.580   2.486  0.1029 -0.2007 -0.2036
16124W        W32598  17.494   7.978  13.614 -0.2211 -0.0857 -0.3569
16125W        W32599   3.696  17.619   0.038  0.2016 -0.1221 -0.2297
16126W        W32600   7.326  13.591   1.877 -0.2622 -0.1397 -0.2274
16127W        W32601   8.813   3.501  14.933  0.1193 -0.0875  0.3232
16128W        W32602  10.625  18.164   2.398  0.0817  0.1355  0.0165
16129W        W32603   0.964  13.004   1.127 -0.0337 -0.0703 -0.1497
16130W        W32604  18.018   8.657   4.074 -0.1139 -0.1621 -0.0470
16131W        W32605  10.828   2.141   4.708 -0.1494 -0.3384 -0.1624
16132W        W32606   4.127  15.525   1.945 -0.3369 -0.0220 -0.4241
16133W        W32607  17.962  13.905  11.059 -0.2964  0.2254 -0.1984
16134W        W32608  16.724   8.568  15.105 -0.1777  0.1772 -0.0239
16135W        W32609  10.509   5.848  15.705 -0.1171 -0.0396  0.0343
16136W        W32610   5.148   1.124   5.155 -0.1787 -0.0849  0.0675
16137W        W32611   1.882   5.777  15.635  0.0408 -0.0053  0.2672
16138W        W32612  13.065  12.047   0.959  0.1318  0.1426 -0.2631
16139W        W32613   9.407   8.389   4.860 -0.1007  0.1583 -0.1308
16140W        W32614   7.086   8.005  11.150  0.2840 -0.0772 -0.2698
16141W        W32615  16.478   0.664   3.505  0.1311  0.5902 -0.0360
16142W        W32616   6.274  17.670   4.736  0.2402  0.0204  0.2330
16143W        W32617  11.269  13.949   0.375 -0.1009  0.2477 -0.3116
16144W        W32618   8.638   4.759   4.161  0.3319  0.0805 -0.0872
16145W        W32619   1.087   9.609  12.088  0.1875  0.4281 -0.1571
16146W        W32620  10.625  12.806   2.221  0.2769  0.0449  0.1951
16147W        W32621   1.030  17.671  14.774  0.0519  0.2341  0.0798
16148W        W32622  14.428   4.032  10.407  0.1369  0.0770  0.3123
16149W        W32623  15.375   0.891   4.273 -0.1667 -0.2257  0.1389
16150W        W32624   2.709   5.341   5.605  0.1638  0.0631  0.1782
16151W        W32625   5.332  18.097  12.152  0.0378 -0.2799 -0.0493
16152W        W32626  14.278  16.714  15.052  0.0313  0.1436  0.1356
16153W        W32627  16.231  14.321   2.524  0.3280 -0.1280 -0.1330
16154W        W32628  14.740   8.109   1.521  0.1572 -0.1188  0.1409
16155W        W32629  14.664   5.096  12.479  0.0791 -0.1259  0.4701
16156W        W32630   9.264   2.474   0.762 -0.0417  0.0272  0.0178
16157W        W32631  10.554  17.091  11.839  0.1229  0.0948  0.0769
16158W        W32632  10.876  15.258   0.414  0.0060 -0.1616 -0.1974
16159W        W32633  11.790  13.135  14.546  0.0708 -0.1213  0.0332
16160W        W32634  11.207   2.129   2.923  0.1480 -0.6146  0.0413
16161W        W32635   3.672   9.806   5.000 -0.1257 -0.3849 -0.3448
16162W        W32636   3.348   0.933   1.613  0.3467  0.4088 -0.0265
16163W        W32637  16.006   0.163   2.926  0.0241 -0.1652 -0.0994
16164W        W32638   9.405  16.252   4.158  0.0528 -0.0083  0.1581
16165W        W32639  12.438  10.545   3.249  0.4026 -0.0647 -0.0009
16166W        W32640   1.954   3.893  13.477  0.0498 -0.0773  0.0164
16167W        W32641   3.307  17.667   1.531  0.3056 -0.3195 -0.0215
16168W        W32642   1.262  15.950   1.612  0.0817  0.0053  0.3951
16169W        W32643   4.288  12.178  15.654 -0.0313 -0.1932 -0.2315
16170W        W32644  14.050   9.607  12.720  0.5386  0.0215 -0.1808
16171W        W32645  12.482   3.623  10.919 -0.0247  0.0458  0.1193
16172W        W32646   1.239   7.338   1.904  0.3574 -0.1028  0.0519
16173W        W32647  13.253   4.485  11.419 -0.1302 -0.2581  0.0837
16174W        W32648  16.421  18.287   5.523 -0.0033  0.2754  0.2338
16175W        W32649  16.958  17.779  11.429 -0.0844  0.1089 -0.0835
16176W        W32650   2.706  17.700  14.971  0.1404 -0.0733  0.0330
16177W        W32651  13.971  15.835   0.278  0.0005  0.0825 -0.0248
16178W        W32652  17.655  10.313  13.779  0.1934 -0.0095  0.1817
16179W        W32653   3.371  11.427  12.210 -0.1452  0.0155  0.1624
16180W        W32654  10.454   5.421   0.724  0.0621  0.0010 -0.1871
16181W        W32655   6.228  14.765   6.128  0.4885  0.2386  0.2041
16182W        W32656   5.115   7.467   4.205 -0.0394 -0.0729 -0.0608
16183W        W32657  16.361   8.115  10.478 -0.1052 -0.3719  0.1691
16184W        W32658   9.303   1.100  11.891  0.0653  0.1566 -0.2020
16185W        W32659   9.113   4.840   4.234  0.0805 -0.0060  0.0955
16186W        W32660  11.141  13.919  11.321  0.1843 -0.0862 -0.0543
16187W        W32661   6.269   8.648   2.742  0.0031 -0.1431  0.0600
16188W        W32662  13.019  15.025  13.126 -0.1548 -0.0286 -0.1547
16189W        W32663  16.318  15.800  11.991  0.2268  0.0414  0.1663
16190W        W32664  10.925   3.114   2.732  0.1257 -0.2464  0.0501
16191W        W32665   3.657   2.770  16.326 -0.3094 -0.2100  0.1000
16192W        W32666   0.606  14.535  11.476  0.2803  0.1593 -0.0007
16193W        W32667   5.423   8.918  13.709  0.1317 -0.0665  0.2115
16194W        W32668   7.139  15.357  11.820 -0.1109 -0.0682 -0.2015
16195W        W32669  10.071  18.379   5.232 -0.0844 -0.1935 -0.1235
16196W        W32670   8.423  17.696  16.139  0.0493  0.1703 -0.0308
16197W        W32671   9.735   2.797   3.164 -0.0212 -0.0192  0.3839
16198W        W32672  13.158  15.455  16.321 -0.0605  0.0476  0.1215
16199W        W32673  13.097   2.614  12.511  0.2071  0.0298 -0.2559
16200W        W32674  13.820   4.748  10.705 -0.3400 -0.2680 -0.0570
16201W        W32675   3.964   5.728  11.579 -0.3612  0.3049  0.0965
16202W        W32676   1.651  13.726  11.548 -0.0379 -0.1662 -0.0622
16203W        W32677  16.937   7.108   2.243  0.1978 -0.1154 -0.1166
16204W        W32678   9.577   4.228   2.168 -0.0802 -0.2767  0.0680
16205W        W32679  15.652   3.283  14.799 -0.1207  0.1277  0.2313
16206W        W32680   5.521   8.420   3.404 -0.1201 -0.2967 -0.2257
16207W        W32681  13.369   5.862   3.895  0.2611 -0.5889  0.1694
16208W        W32682   3.895   8.873   3.283 -0.0080  0.3997 -0.3311
16209W        W32683  14.107  14.692   3.359  0.0377 -0.0278 -0.1855
16210W        W32684   1.768   5.170  13.040 -0.0464 -0.1322 -0.2387
16211W        W32685   9.966   3.264  13.823  0.0935  0.0198  0.1736
16212W        W32686   2.835  15.562   4.301 -0.0885 -0.2821  0.0294
16213W        W32687  13.000   5.912   3.503 -0.1306  0.1696 -0.1171
16214W        W32688   6.999   0.974   2.600  0.0314 -0.2373  0.2994
16215W        W32689   2.711  12.334   4.833 -0.3099  0.1417  0.1052
16216W        W32690   0.526  11.710   3.773  0.0169  0.1218  0.1841
16217W        W32691  17.690  12.367   2.331 -0.4774  0.3430 -0.2332
16218W        W32692   1.184  11.167  13.747 -0.0252  0.0033  0.0312
16219W        W32693   7.652   9.378   3.540 -0.2981 -0.2071  0.0104
16220W        W32694  13.102  14.250   1.498  0.0306  0.0633  0.0038
16221W        W32695  17.469   6.669  11.167  0.1084  0.5321  0.3933
16222W        W32696   4.897  18.026  11.697 -0.1318 -0.2333 -0.1826
16223W        W32697  18.319   1.982  16.117  0.2148 -0.1790 -0.0304
16224W        W32698   0.839  12.213   3.642  0.1772 -0.1624  0.2670
16225W        W32699   4.638  13.672  15.845  0.0640  0.0519  0.1164
16226W        W32700   3.557   5.193  15.897  0.1699 -0.0133 -0.0989
16227W        W32701  18.294   1.905  12.820  0.0414  0.1387  0.1027
16228W        W32702  11.044  11.900   1.704  0.3166  0.4338  0.2238
16229W        W32703   7.999   3.360  15.205  0.0110  0.1658  0.3095
16230W        W32704  14.372  11.576  15.104 -0.1249  0.0107 -0.2045
16231W        W32705   0.940  12.952   2.129  0.5989  0.2243 -0.0605
16232W        W32706   1.288   0.686  16.108  0.1403  0.5654 -0.2510
16233W        W32707   2.910   5.347  11.536 -0.1234 -0.1547 -0.3478
16234W        W32708  14.349   8.542  12.046 -0.0444  0.2417  0.1414
16235W        W32709   4.478   4.974  13.153 -0.3795 -0.0545 -0.0436
16236W        W32710   0.571   5.626   3.029 -0.1487 -0.0681  0.0850
16237W        W32711   8.848   6.183  13.753  0.0099 -0.1171 -0.0721
16238W        W32712   4.220   6.921  12.289 -0.0923 -0.2177  0.0634
16239W        W32713   5.436   7.643  11.891 -0.2329  0.3250  0.1086
16240W        W32714  17.010  10.282  12.447 -0.1152 -0.1689 -0.0908
16241W        W32715   6.965  16.354   1.427 -0.1200  0.1074  0.1380
16242W        W32716   6.409   6.255  11.297  0.0900  0.3347 -0.2736
16243W        W32717   4.422   8.980  13.198  0.0096 -0.1814 -0.1792
16244W        W32718   9.197   6.399  16.200  0.0697  0.2434  0.2749
16245W        W32719   6.693   6.084  10.373  0.0549 -0.0705 -0.1795
16246W        W32720  17.206  14.674  11.982 -0.0425  0.2577 -0.3116
16247W        W32721  17.794  16.605  15.938 -0.1752  0.1700 -0.2686
16248W        W32722  10.581   4.713   0.371 -0.2424  0.1660 -0.0375
16249W        W32723   6.171   1.571   0.860  0.0777  0.1991  0.1717
16250W        W32724  16.912   7.679  13.229 -0.0000  0.0821  0.1286
16251W        W32725   4.201  15.755  14.734 -0.4902 -0.1903  0.2377
16252W        W32726   0.370   0.547  13.096  0.0460 -0.1173 -0.1073
16253W        W32727  10.601  10.498  11.699 -0.1337 -0.0161 -0.1452
16254W        W32728  15.255  11.542   1.805 -0.0372  0.2559  0.0629
16255W        W32729  16.175   2.930   1.386  0.1812 -0.1057 -0.0047
16256W        W32730  15.921   7.702   4.538  0.0860 -0.0496 -0.0453
16257W        W32731   8.989  11.900   3.027 -0.1646 -0.0451  0.2276
16258W        W32732  15.970  16.078  14.489  0.0646 -0.0245  0.2297
16259W        W32733  11.933  17.386   2.535 -0.1101  0.1518  0.2197
16260W        W32734  16.394  15.456   0.956  0.2059  0.4018 -0.1846
16261W        W32735   6.793  14.886   2.685  0.0706  0.1332 -0.1451
16262W        W32736  11.141  15.383  11.552 -0.2759 -0.3192 -0.4459
16263W        W32737  15.696   2.867   1.350  0.0041  0.3834 -0.1520
16264W        W32738  17.500   1.228   0.790 -0.0572  0.2636 -0.3121
16265W        W32739   8.922   6.037  15.920  0.0652 -0.1996 -0.3056
16266W        W32740   2.303   7.578  14.350  0.0534 -0.0801  0.0687
16267W        W32741  12.560   6.802   0.407  0.0184 -0.1753  0.0005
16268W        W32742  14.194  18.025   1.318  0.1065 -0.1413  0.0989
16269W        W32743  17.155   4.887   1.592  0.0063 -0.3063  0.0177
16270W        W32744   0.931  12.945  15.375  0.2549  0.0108 -0.1837
16271W        W32745   3.219   1.168  15.886  0.1893 -0.2702  0.0192
16272W        W32746   9.775  17.229  13.963 -0.2383  0.0320  0.1104
16273W        W32747   3.786  12.757  14.873 -0.0618  0.0169  0.0232
16274W        W32748   1.737  11.993  11.809  0.1485 -0.1721 -0.0854
16275W        W32749  11.477   9.608   4.108  0.0024  0.1287 -0.2100
16276W        W32750   9.975   5.458  15.126 -0.2607  0.1079 -0.2152
16277W        W32751   5.117   8.314  12.179 -0.0921  0.1896 -0.0645
16278W        W32752  13.932   6.245  13.840 -0.3357  0.0656  0.0349
16279W        W32753  12.101   8.806  11.780  0.0301 -0.1339  0.1230
16280W        W32754   9.169  13.268   3.208  0.0620  0.0843  0.0505
16281W        W32755  17.271  18.028   0.199 -0.1679 -0.0069 -0.0119
16282W        W32756  11.997   6.577   2.568  0.3667 -0.0498  0.0696
16283W        W32757   3.114  16.879  14.986 -0.2573  0.1606 -0.1689
16284W        W32758   6.660  16.695   3.251  0.0178  0.0417 -0.0214
16285W        W32759  18.135   6.289  13.027  0.1408 -0.0244 -0.2183
16286W        W32760  11.130   8.227  11.307  0.3202 -0.2193  0.0109
16287W        W32761  11.198   9.316  14.655  0.2178 -0.0136  0.3069
16288W        W32762  17.666   1.827  12.277 -0.0163 -0.2207  0.1770
16289W        W32763   2.797   7.813  12.665  0.1838  0.0312  0.0177
16290W        W32764  17.364  10.093   0.361 -0.2629 -0.1358  0.1921
16291W        W32765   6.118  10.451   4.966  0.3033  0.2925  0.0524
16292W        W32766  10.454  17.050   5.670 -0.3054  0.0524 -0.3167
16293W        W32767   1.939  13.335   1.047 -0.2781 -0.1123  0.2760
16294W        W32768  11.054  17.260   1.877  0.3316 -0.0808 -0.2405
16295W        W32769   3.649   1.087  13.452 -0.0470 -0.1574  0.0995
16296W        W32770   2.106  11.004  14.812 -0.3163 -0.0243  0.0386
16297W        W32771  12.879   3.386   4.668 -0.2669 -0.1383  0.2627
16298W        W32772   4.764   9.630   1.705  0.1392  0.0701 -0.1422
16299W        W32773   8.343  13.339  14.711  0.3015 -0.1181  0.1087
16300W        W32774   7.673  13.869   4.170  0.0641 -0.0040 -0.0895
16301W        W32775  11.818   4.272  11.404 -0.0840 -0.1501 -0.2952
16302W        W32776  17.484  12.929   3.372  0.1795 -0.3729 -0.4250
16303W        W32777   2.752   2.363  16.302 -0.0835  0.1347  0.0026
16304W        W32778  14.332   4.464   4.387 -0.3257  0.1323 -0.1336
16305W        W32779   3.014  16.495   4.308 -0.1319  0.1747  0.0435
16306W        W32780  11.925  18.159  14.837  0.1802 -0.0310 -0.1342
16307W        W32781   4.813  12.434   4.601 -0.2342  0.2659 -0.0868
16308W        W32782  11.761  10.392   0.319  0.1648 -0.3801  0.0457
16309W        W32783  17.656  15.425  11.514 -0.0092  0.0045 -0.0417
16310W        W32784   3.263   7.649   2.689  0.0882 -0.0435 -0.3733
16311W        W32785   6.186  14.906   5.300 -0.2229 -0.0037  0.4006
16312W        W32786   3.967   1.318   0.290  0.1185 -0.3210 -0.0678
16313W        W32787   3.308  16.996   2.552 -0.1529  0.1640  0.0652
16314W        W32788  10.519   3.672  11.845  0.0978  0.2180  0.2400
16315W        W32789   9.559  10.872   3.512 -0.1342 -0.1007  0.3165
16316W        W32790   1.208  16.107   2.765  0.1873  0.1582 -0.1054
16317W        W32791  15.008  10.757   2.298 -0.4370  0.1603  0.3382
16318W        W32792   8.964  13.193   2.791 -0.1744  0.2581 -0.1853
16319W        W32793   9.357   7.582   0.087  0.0702  0.1819 -0.3586
16320W        W32794  16.283  14.939   5.907  0.1651  0.0963  0.1893
16321W        W32795   5.260  16.365  14.406 -0.1716 -0.0061  0.0400
16322W        W32796   0.001   5.849  15.208  0.2727  0.0410 -0.1717
16323W        W32797  14.434  12.087  13.404  0.3126 -0.2735 -0.2458
16324W        W32798   6.063   7.031  14.751  0.0296 -0.0425  0.0937
16325W        W32799  16.546   2.985  15.631  0.1581 -0.2133 -0.0868
16326W        W32800  18.057   4.739   2.216  0.0088 -0.1369  0.0396
16327W        W32801  13.849   2.013  15.251  0.0507  0.0184  0.0026
16328W        W32802   7.342  13.533  14.151 -0.0591  0.1602  0.2451
16329W        W32803  15.243  18.007   5.854  0.2567  0.0898  0.0575
16330W        W32804   0.083   1.674  14.530 -0.0265 -0.0646  0.2767
16331W        W32805   0.719  12.096   1.999 -0.1222  0.4053 -0.3102
16332W        W32806   8.984  13.269   1.160  0.1041  0.0076 -0.0730
16333W        W32807  10.033   3.921   5.326 -0.1374 -0.0568 -0.1937
16334W        W32808   9.017   5.002  11.294  0.0870  0.4285 -0.3731
16335W        W32809  12.061   4.159   1.281 -0.0115 -0.0293 -0.3958
16336W        W32810  11.164   5.366   3.529  0.1663  0.0699  0.1067
16337W        W32811   4.368  13.701  16.289 -0.3144  0.4715 -0.1914
16338W        W32812   6.876   8.341  11.535 -0.1990 -0.3011 -0.3435
16339W        W32813  15.147   6.090   4.830  0.0417  0.0498  0.1762
16340W        W32814   0.817   0.210  12.306 -0.1574  0.1918 -0.0421
16341W        W32815  17.851   4.356  15.006  0.1032 -0.0162  0.0029
16342W        W32816   3.618   7.524   4.257 -0.2462 -0.1317  0.1732
16343W        W32817   5.534  11.817  10.624 -0.2067  0.0483  0.3971
16344W        W32818   4.022   7.628   2.006 -0.1085  0.0566  0.0467
16345W        W32819   0.585   8.463  14.046 -0.2120  0.0417 -0.0216
16346W        W32820  14.586  11.659  11.364 -0.0802  0.0894 -0.1582
16347W        W32821   7.808  14.323   4.325  0.4448  0.4852 -0.0360
16348W        W32822   2.300   9.424   4.868 -0.0127 -0.2149  0.0795
16349W        W32823  17.032  10.597   0.688  0.0121  0.0222  0.0187
16350W        W32824   7.249   2.568   3.747 -0.1232 -0.2656  0.0506
16351W        W32825  13.696  17.307  15.560 -0.2240  0.0463  0.1188
16352W        W32826  17.412   7.000  13.384 -0.0556 -0.1536 -0.2007
16353W        W32827   0.921   4.832   3.281  0.2177 -0.0505  0.2310
16354W        W32828  16.137  16.522   2.965 -0.1213  0.3535  0.1397
16355W        W32829   7.052  14.046   5.096  0.0437 -0.1864 -0.1215
16356W        W32830  16.157   3.315  15.483 -0.0530 -0.0023 -0.3188
16357W        W32831   8.260   5.060   5.107  0.0305  0.3483  0.2368
16358W        W32832  17.752  18.203  13.570 -0.2499  0.1379 -0.0158
16359W        W32833   7.955  17.352   2.259  0.2234  0.1868  0.1690
16360W        W32834  11.813  15.731  12.793 -0.0416  0.1838  0.1433
16361W        W32835   8.819   8.586   4.981  0.1446 -0.3694 -0.0448
16362W        W32836  12.637   4.835  11.403 -0.0953  0.2313 -0.1586
16363W        W32837   6.647  14.144   5.406 -0.4579  0.0363 -0.1941
16364W        W32838   9.733   9.745  15.357  0.1471 -0.0042 -0.0125
16365W        W32839   4.137   2.669   0.030 -0.0390 -0.0589  0.1110
16366W        W32840  18.080   3.529   2.705  0.0511 -0.2122  0.1386
16367W        W32841  15.457   6.423  16.201  0.1577 -0.0749  0.0203
16368W        W32842  11.464   6.962  14.045  0.0633  0.1135 -0.0543
16369W        W32843   9.387   1.045   1.944 -0.0812  0.0137 -0.0222
16370W        W32844   1.201  10.633   1.119  0.0969  0.2062 -0.1310
16371W        W32845  14.732  12.494   1.638 -0.2056 -0.4210  0.0761
16372W        W32846  12.013  14.031   1.940 -0.0336  0.0431  0.0019
16373W        W32847   6.985   9.122  14.171  0.1099  0.1918 -0.5127
16374W        W32848   7.800   3.831   3.259  0.0147  0.1602  0.1457
16375W        W32849  16.425  13.585  14.051  0.2355 -0.1928  0.0379
16376W        W32850   0.809   2.642   3.569 -0.1883  0.3047 -0.0555
16377W        W32851   3.015   6.017  15.182  0.1479  0.0767  0.1129
16378W        W32852   4.460   7.784  14.842  0.0309 -0.0674 -0.2036
16379W        W32853   0.993   9.529   4.041  0.0384 -0.0590  0.0547
16380W        W32854  10.818   4.455  12.313  0.0775  0.1233  0.1400
16381W        W32855   7.756   0.308  15.769  0.1531 -0.0170 -0.2450
16382W        W32856   2.255   1.603   1.146  0.0077 -0.2492 -0.1577
16383W        W32857   1.567  14.082   1.599 -0.0991 -0.0687 -0.0562
16384W        W32858  11.419  13.916  14.375 -0.0977 -0.1228 -0.1570
16385W        W32859  14.076   4.162  10.836 -0.2162  0.4044 -0.0181
16386W        W32860  10.308  12.563   4.664  0.0124 -0.0270  0.0451
16387W        W32861   9.975   4.716   4.573 -0.1594 -0.0422 -0.2089
16388W        W32862  17.485  16.696  12.809  0.0609  0.1441  0.0818
16389W        W32863  11.907  17.487  16.065  0.3481  0.1561 -0.0550
16390W        W32864   1.345   3.847   1.413 -0.1059  0.2515  0.2443
16391W        W32865  11.852   2.552  12.557 -0.0272  0.0546 -0.1872
16392W        W32866   2.651   3.561   0.768 -0.0622 -0.3109 -0.2201
16393W        W32867   1.548  15.307   2.779  0.2115 -0.0994  0.0649
16394W        W32868  16.715   1.581  12.770  0.2308  0.0030 -0.0584
16395W        W32869   2.548  18.377  15.824  0.0321  0.0602  0.0118
16396W        W32870  11.549   2.494   3.094  0.0174 -0.4004  0.4871
16397W        W32871   5.908  11.641  12.530  0.1787  0.1251 -0.2607
16398W        W32872  17.392  15.884   2.886 -0.0275  0.1684  0.1830
16399W        W32873   7.114   7.881   2.611 -0.0354  0.0565 -0.0356
16400W        W32874   3.735  14.914  13.611  0.0466  0.1524 -0.1958
16401W        W32875  16.636  17.569   0.939 -0.1877 -0.1468 -0.2471
16402W        W32876   6.625  16.049  15.885  0.0030 -0.3214  0.0671
16403W        W32877  18.162   4.395   2.614  0.2989 -0.2250 -0.5098
16404W        W32878  15.003   5.809  11.663  0.3737 -0.0912  0.0065
16405W        W32879   7.221  16.070  14.187  0.1451  0.2441 -0.0969
16406W        W32880  17.452   4.252   4.678 -0.0310  0.0200  0.5956
16407W        W32881   5.946  14.817  11.785  0.2219 -0.0727  0.1728
16408W        W32882  14.514  12.937   5.245 -0.0913  0.3954 -0.1412
16409W        W32883  12.389   8.696   2.186 -0.0419 -0.1142  0.3580
16410W        W32884  16.041   3.805  15.417 -0.0869 -0.2622 -0.1210
16411W        W32885   9.274   9.297  14.238 -0.0752  0.1898 -0.2616
16412W        W32886   2.794  17.196  15.297 -0.0685 -0.1139 -0.1324
16413W        W32887   9.810   9.668  14.506 -0.0559  0.0351  0.2552
16414W        W32888  11.817   3.697   5.543  0.1891  0.1168 -0.0648
16415W        W32889  15.424  10.912  12.457 -0.1397 -0.0836 -0.1976
16416W        W32890   8.588  17.125  14.917  0.1943  0.5268  0.0207
16417W        W32891   2.800  13.785  16.028  0.1392  0.1563  0.0062
16418W        W32892  16.305   0.298   1.488  0.1205 -0.3309  0.3035
16419W        W32893  12.174   8.556  15.227  0.0429  0.1875 -0.1342
16420W        W32894   1.059   6.445  11.818  0.0538  0.0164  0.1110
16421W        W32895   9.974   5.895   1.305  0.0867  0.0720  0.2887
16422W        W32896   2.172  15.379   5.365  0.0742 -0.0080 -0.2693
16423W        W32897   6.570  17.055  13.934  0.1930  0.0425  0.3690
16424W        W32898  11.208  17.982   3.590 -0.1760  0.1008 -0.0146
16425W        W32899   4.315  11.439   4.910  0.0538 -0.0198 -0.0333
16426W        W32900   3.873  14.386  11.807 -0.0923 -0.0690 -0.2312
16427W        W32901   2.197  12.894   2.681  0.0379 -0.0466  0.1748
16428W        W32902  10.527   0.594   3.549  0.0152  0.4354  0.0981
16429W        W32903  11.348   5.993   1.730  0.3163 -0.0387 -0.4645
16430W        W32904   7.047   5.210  15.704  0.2161 -0.0763  0.0459
16431W        W32905   7.502  10.244   5.081  0.2653  0.1037 -0.4337
16432W        W32906   3.875  13.891   4.306  0.0952 -0.0825 -0.0140
16433W        W32907   4.042   2.219  11.856 -0.3924 -0.1495 -0.2619
16434W        W32908  15.249   6.876   1.476 -0.1178 -0.1401  0.0756
16435W        W32909   8.232   2.044   3.506 -0.1301 -0.0359 -0.2865
16436W        W32910  14.364   2.260  15.043  0.0931  0.0204 -0.3155
16437W        W32911  10.018   2.850   2.748  0.0039 -0.1757  0.2289
16438W        W32912   5.963  15.105   4.759 -0.1214  0.1092 -0.2206
16439W        W32913   3.671   4.362   5.427 -0.0645 -0.4318  0.0256
16440W        W32914   7.152  11.706  16.251  0.0747 -0.0371  0.0438
16441W        W32915  13.303  12.559   1.689  0.3044 -0.0175  0.0817
16442W        W32916  17.724  12.793   2.580 -0.0740 -0.1392  0.5963
16443W        W32917  16.982   4.414   4.688 -0.0434 -0.0096 -0.0485
16444W        W32918   8.917  14.684   1.372 -0.0506 -0.0129 -0.2397
16445W        W32919   6.048   4.085   2.746  0.1850 -0.0969  0.1433
16446W        W32920   3.547   5.855  15.434  0.2674 -0.0327 -0.0749
16447W        W32921  14.189  12.986   0.413  0.1109  0.1795  0.0229
16448W        W32922  12.880  10.919   1.935 -0.1171  0.2441 -0.1369
16449W        W32923  16.599  13.603   0.747  0.1172 -0.3590  0.0917
16450W        W32924   1.920  17.471  13.679 -0.0280  0.1789  0.0705
16451W        W32925  11.823  12.117  13.126  0.0883 -0.0888  0.0184
16452W        W32926  10.075  14.914   5.061  0.0332  0.1532 -0.0507
16453W        W32927   3.711   8.125  15.174  0.2360  0.1649  0.2914
16454W        W32928   3.255   1.964   2.918  0.0871  0.0251  0.1525
16455W        W32929  12.263   1.495  15.441 -0.1892 -0.3287  0.0461
16456W        W32930   0.440   2.782  11.965  0.1128  0.1493 -0.0026
16457W        W32931  15.904   6.832  10.893  0.0446 -0.1245  0.3715
16458W        W32932  13.554  15.099   0.609 -0.1410 -0.1379 -0.0280
16459W        W32933   2.553   5.592   4.117  0.1389  0.1988 -0.1645
16460W        W32934  17.722   4.220   0.710  0.2960  0.2344  0.4376
16461W        W32935  12.347   2.838   1.722  0.2383 -0.2396  0.0701
16462W        W32936   4.216  14.843  13.405  0.2205 -0.1496 -0.1597
16463W        W32937  12.907   4.760   1.346  0.1257 -0.0034  0.0810
16464W        W32938  12.356  10.108  16.334  0.1251 -0.1436 -0.3239
16465W        W32939  11.084   3.851   0.388 -0.0583  0.3551 -0.0002
16466W        W32940   9.627   3.026   3.831  0.3993 -0.1102  0.0618
16467W        W32941  17.464  13.839  13.853 -0.0613  0.1403 -0.2635
16468W        W32942   1.348   4.929  14.921 -0.0623 -0.3761 -0.1421
16469W        W32943  16.920   0.080  12.298 -0.1256  0.1363 -0.0211
16470W        W32944   2.121   7.707  14.763  0.0927 -0.0516  0.3116
16471W        W32945   0.594   9.338   4.236  0.4079 -0.0280  0.1363
16472W        W32946   6.180  16.977   3.315 -0.1112  0.0301  0.1761
16473W        W32947   1.444   2.859  11.597 -0.2185 -0.4153 -0.0294
16474W        W32948   9.791  10.655  15.554  0.0714  0.1982 -0.1001
16475W        W32949  13.077  10.770  12.980 -0.2567  0.1276 -0.0223
16476W        W32950  15.068   3.571  12.554 -0.2997 -0.1812 -0.0040
16477W        W32951   6.200  14.996  15.085 -0.2726  0.1577 -0.1927
16478W        W32952  14.213   7.241  14.145 -0.3352 -0.0882  0.0223
16479W        W32953  13.800  15.418   4.726  0.2786 -0.0397 -0.0804
16480W        W32954   3.248   9.804  15.014 -0.2827  0.4401 -0.2835
16481W        W32955   9.694   9.910  12.117  0.1187  0.3802  0.2724
16482W        W32956  17.051  13.431   0.919  0.0075  0.0904  0.2859
16483W        W32957   5.168  16.908   2.358 -0.0026 -0.1351  0.1930
16484W        W32958  13.545   8.210  11.499 -0.0370  0.3960  0.2391
16485W        W32959  15.242  10.375  11.895  0.0135  0.2361  0.0303
16486W        W32960   4.963   1.114   3.086 -0.2596  0.2627  0.0442
16487W        W32961   6.785  10.819   5.803 -0.1647 -0.1499  0.1634
16488W        W32962   0.997   6.260  14.188  0.1203 -0.1458  0.1676
16489W        W32963   1.228   5.285  13.413  0.3839  0.1197  0.0214
16490W        W32964   3.700  16.655  13.888 -0.0784 -0.0228  0.2150
16491W        W32965   9.269   3.037   4.366 -0.1624 -0.2603  0.0978
16492W        W32966   0.787  15.778  12.127 -0.1666  0.2614 -0.3246
16493W        W32967   2.151   3.824   1.881  0.1449  0.3532  0.1595
16494W        W32968   6.818   5.872   0.935 -0.2057 -0.1489 -0.1467
16495W        W32969   9.357  13.267   4.492  0.1752 -0.0732 -0.2239
16496W        W32970   7.309   4.665  14.643  0.2014 -0.2913  0.0602
16497W        W32971  17.473   0.567  15.438  0.0256  0.0842 -0.3049
16498W        W32972   8.806   0.078  12.877 -0.0183 -0.0554  0.1445
16499W        W32973   9.652   9.001  11.620 -0.0253 -0.0364  0.0830
16500W        W32974  15.862   9.235   4.166 -0.0205  0.2332  0.0701
16501W        W32975  13.940  12.408  16.240  0.1194  0.2324  0.0888
16502W        W32976  16.764  18.366   5.195 -0.0357 -0.2567 -0.1821
16503W        W32977  10.306  12.075   2.404 -0.0407  0.0759  0.3859
16504W        W32978   7.689   6.146  15.930 -0.2296 -0.0677  0.2047
16505W        W32979   4.169  11.568   3.380 -0.1016 -0.0499  0.1610
16506W        W32980  15.268   6.514   5.118 -0.1973  0.3730  0.2221
16507W        W32981  16.714   4.598  11.689  0.0225  0.0859  0.0969
16508W        W32982  10.464   3.779  15.339  0.0902 -0.0069 -0.0878
16509W        W32983  12.312  12.744   1.676  0.0608 -0.1022 -0.1821
16510W        W32984  17.075  15.493  12.689 -0.0512 -0.1221  0.0735
16511W        W32985   1.445  10.050   3.328 -0.1569 -0.2211 -0.0601
16512W        W32986  17.735  10.423   1.668 -0.2024 -0.1057  0.2846
16513W        W32987   4.706  16.806   1.884  0.2504 -0.1997  0.1802
16514W        W32988   2.745   8.536  16.285  0.1164 -0.1422 -0.1574
16515W        W32989   0.172   3.685   1.458  0.0811  0.0516  0.0800
16516W        W32990  17.285  10.801   1.679 -0.0120  0.0384 -0.1313
16517W        W32991  15.069  17.888  15.505  0.1014  0.1921  0.2513
16518W        W32992  15.135  10.018   0.513  0.2289  0.1610 -0.1185
16519W        W32993  11.234   4.114   4.328  0.0617  0.3623 -0.1163
16520W        W32994   8.347  15.612   5.668 -0.0210  0.0148  0.1214
16521W        W32995  16.990  13.960   2.024 -0.2708  0.1560  0.0519
16522W        W32996  13.023  17.784   5.121 -0.2148  0.1558  0.2512
16523W        W32997  15.091  16.737  11.898  0.2260 -0.0500 -0.0064
16524W        W32998  12.218   8.565   0.517  0.1080 -0.0246 -0.0696
16525W        W32999  15.059  13.958   1.652  0.1310 -0.1342  0.3492
16526W        W33000  12.400  14.309   5.634  0.0343 -0.0481  0.1791
16527W        W33001   9.790   5.572  12.598  0.4081  0.5364  0.0427
16528W        W33002  13.893  11.568  15.152 -0.0319 -0.1694  0.1436
16529W        W33003  16.722  10.915  12.318  0.0474 -0.0115  0.0726
16530W        W33004   2.411   2.706   2.259 -0.0493  0.1254  0.2435
16531W        W33005  18.095   1.348   3.986 -0.1602 -0.1730  0.1354
16532W        W33006  13.134  13.944   3.927 -0.3904  0.0956 -0.0890
16533W        W33007   2.043   7.658  11.906  0.0745  0.0828  0.0956
16534W        W33008   2.056   2.584  14.000  0.3349  0.1069 -0.2387
16535W        W33009   1.641  13.898   0.161 -0.1571  0.1799 -0.1521
16536W        W33010  16.510   6.864  15.977 -0.0043  0.1876  0.0706
16537W        W33011  18.293  11.964  11.403 -0.0141  0.0992 -0.0668
16538W        W33012   8.721   0.151  11.412  0.0939  0.0931  0.1383
16539W        W33013  12.037   1.948  13.457 -0.0581  0.0642 -0.1358
16540W        W33014  12.747  18.105   4.651  0.2548 -0.0657  0.2806
16541W        W33015  10.070  10.001   0.901 -0.1845  0.1792 -0.1115
16542W        W33016  16.575  11.823  12.187  0.1939  0.1670  0.0444
16543W        W33017  14.064   7.320  13.681 -0.0202  0.2032  0.1002
16544W        W33018   3.323  16.386  12.083 -0.0197 -0.1519  0.3347
16545W        W33019   5.630   1.742   2.857  0.0526 -0.0593  0.1429
16546W        W33020  13.704  15.166   4.279 -0.0225 -0.1384  0.1782
16547W        W33021  12.688  15.470  13.022  0.1976  0.0256 -0.1144
16548W        W33022   9.624  11.562   0.641 -0.0399  0.1235 -0.0045
16549W        W33023   1.591   6.592  16.002 -0.0854 -0.2475  0.1002
16550W        W33024  15.138   2.668   1.519  0.4489 -0.0303 -0.0959
16551W        W33025  10.721   3.679  11.377  0.3786 -0.0193  0.3514
16552W        W33026  13.633   2.305  13.118 -0.0636  0.1145 -0.0542
16553W        W33027  15.809  17.682   0.413 -0.2052  0.2427  0.3097
16554W        W33028   7.417  17.502   5.317 -0.1493 -0.3275 -0.2373
16555W        W33029   0.246   6.027   1.646 -0.1413  0.1972 -0.2236
16556W        W33030   7.774  13.500  11.446 -0.2210 -0.1069 -0.1520
16557W        W33031  11.920  10.310  13.170  0.1293  0.1604 -0.0212
16558W        W33032  13.823   0.620  14.345 -0.0197  0.1044  0.0606
16559W        W33033   0.707   9.519  13.869  0.2823  0.4625  0.1852
16560W        W33034   9.466   6.229   4.329 -0.2480 -0.1855  0.0445
16561W        W33035  16.251  11.267  16.236  0.0836 -0.2133 -0.0511
16562W        W33036   7.022  13.086  14.184  0.2974 -0.0586 -0.2856
16563W        W33037  15.796  16.987   3.555 -0.3934 -0.0106 -0.1940
16564W        W33038  10.377   2.378   4.983  0.0000  0.3081 -0.1064
16565W        W33039  14.807   1.817   3.045 -0.1486 -0.1507  0.0502
16566W        W33040  12.046   5.604  13.266 -0.0288  0.3661 -0.1475
16567W        W33041   8.814   2.037   1.769  0.3193  0.2310  0.3194
16568W        W33042   2.269  13.617  15.084 -0.0207  0.1195  0.0709
16569W        W33043   6.391   9.640   0.444  0.0368  0.0064 -0.3356
16570W        W33044   8.172  11.751   3.224 -0.0925  0.1800 -0.1356
16571W        W33045   0.036  14.583  11.474  0.2688  0.0492 -0.0481
16572W        W33046   6.477   5.116  16.123  0.2274  0.1478 -0.1256
16573W        W33047   3.701  15.802   4.475 -0.4751  0.0483 -0.0243
16574W        W33048  12.034   0.953   2.659 -0.1817 -0.0925 -0.1914
16575W        W33049  17.220  11.707   3.972 -0.1122  0.1467  0.2034
16576W        W33050   3.990  15.303  11.939 -0.1286 -0.2030 -0.3558
16577W        W33051   2.653  12.184  12.220 -0.1384  0.0872 -0.2632
16578W        W33052   0.679   6.503   0.094 -0.1350  0.1105 -0.1795
16579W        W33053  14.391  11.065  14.943 -0.1543 -0.1208 -0.1447
16580W        W33054   7.627   3.318   4.932 -0.2534 -0.0775 -0.1726
16581W        W33055   3.341  18.062  12.145 -0.2023  0.1365  0.0888
16582W        W33056  14.872   6.401   0.638 -0.0774 -0.0105  0.0028
16583W        W33057  12.569  12.683   4.581  0.0048 -0.1310  0.1907
16584W        W33058  15.617  13.149   4.793 -0.0501 -0.0314 -0.3452
16585W        W33059  16.014  13.032  15.811 -0.2942  0.2226  0.0406
16586W        W33060  15.336   1.832  11.778  0.1877 -0.0161 -0.1298
16587W        W33061   3.889   9.943  12.558  0.2800  0.4826 -0.4104
16588W        W33062   6.599   4.777   4.155  0.0419 -0.0717 -0.2167
16589W        W33063  17.033   3.909  15.864 -0.1202  0.0036 -0.0887
16590W        W33064   5.336   2.904  11.668  0.1761  0.1544  0.1609
16591W        W33065   7.616  15.475   2.547  0.1062 -0.1257  0.0131
16592W        W33066   8.191  13.680  14.367 -0.1967  0.2428 -0.0816
16593W        W33067  11.279   7.240   2.149 -0.0415 -0.1359 -0.1246
16594W        W33068   0.869   1.256  14.030  0.1218  0.2897  0.1323
16595W        W33069  14.757   8.680  12.247 -0.1192  0.0972  0.0183
16596W        W33070   7.598   1.421  11.971 -0.2509  0.2174 -0.1700
16597W        W33071  10.593  11.383   0.313 -0.2381  0.0058 -0.1918
16598W        W33072   1.771   7.987   0.219  0.2164  0.0890  0.3164
16599W        W33073  11.645   1.223   4.670 -0.2262  0.0896 -0.1825
16600W        W33074  15.243   4.214   3.150 -0.1273 -0.4243 -0.2017
16601W        W33075  15.821   8.291  11.267 -0.1729 -0.1877 -0.0623
16602W        W33076  16.293  15.747   2.402  0.3338  0.0201  0.2096
16603W        W33077   3.515   4.361   0.032 -0.0444 -0.2435  0.2748
16604W        W33078  10.943  14.066  12.294 -0.2806  0.0073 -0.2333
16605W        W33079  15.714  14.734   0.527 -0.0860 -0.0543  0.2385
16606W        W33080   0.403   5.686   0.451  0.1702 -0.3888  0.0464
16607W        W33081   2.054  18.268   1.365 -0.1895 -0.1750 -0.1105
16608W        W33082  13.997   8.115  12.189 -0.0592 -0.2433 -0.2067
16609W        W33083  13.088   9.988  14.835  0.1289  0.1433 -0.3578
16610W        W33084  14.515   3.625  15.765  0.1000  0.0945  0.0323
16611W        W33085   7.708   8.656   5.833 -0.3573 -0.2328 -0.0202
16612W        W33086   9.986   0.933   2.584 -0.2264  0.1158  0.2200
16613W        W33087   8.296  10.697  13.619 -0.1907 -0.1210 -0.1437
16614W        W33088   5.916  15.757   5.912 -0.0840  0.1500  0.3441
16615W        W33089  11.605  13.097   5.278  0.0060 -0.0208 -0.0280
16616W        W33090   8.674   7.964   3.399  0.0861 -0.0643  0.0806
16617W        W33091  13.245   4.570   0.462  0.0722 -0.1648 -0.3027
16618W        W33092  13.639   1.395   2.992  0.0294  0.4119 -0.1568
16619W        W33093   0.347   2.677  13.010 -0.2248 -0.0430  0.3774
16620W        W33094   6.497   7.313  16.284 -0.0654  0.1547 -0.0364
16621W        W33095   7.305  11.556  15.768  0.4448 -0.0576 -0.2130
16622W        W33096  13.928  12.790   1.029 -0.3869  0.2651 -0.0326
16623W        W33097   4.308  12.545   5.235  0.1214 -0.1938 -0.0157
16624W        W33098   5.668  16.078  16.161  0.0266 -0.0569  0.2733
16625W        W33099  13.044   2.702  13.664 -0.2469 -0.0162  0.0633
16626W        W33100   6.853   9.107   4.115 -0.0379  0.1218  0.1181
16627W        W33101   4.887   6.582   5.721 -0.1399 -0.4003  0.1769
16628W        W33102   2.962   2.972  13.377 -0.3728 -0.3954 -0.2495
16629W        W33103  15.935  13.443  15.575 -0.0164  0.1973  0.0147
16630W        W33104   3.970  13.097   1.078  0.3769 -0.0976  0.0430
16631W        W33105   7.769  17.786   0.351  0.1502 -0.2794  0.0136
16632W        W33106  10.932   4.956  13.534  0.1053  0.0792 -0.1432
16633W        W33107   0.536  13.953  15.512 -0.1448  0.1398  0.3288
16634W        W33108   8.920  14.364   0.669 -0.2978  0.1777 -0.1008
16635W        W33109  17.727   0.237  12.820  0.0603 -0.1161 -0.0611
16636W        W33110  17.380   5.280  13.803  0.4795 -0.0173 -0.1001
16637W        W33111   9.483   0.114   2.346 -0.1389 -0.0396 -0.3715
16638W        W33112   2.056  18.238  14.012 -0.1094 -0.0925 -0.2069
16639W        W33113   9.409  14.156  16.265  0.3743  0.1124  0.2485
16640W        W33114   6.385  10.723  11.951 -0.0027  0.0469  0.1073
16641W        W33115   3.753  13.888   4.882  0.2073 -0.2638  0.0509
16642W        W33116  18.013   4.982  12.959  0.0786  0.1111 -0.1781
16643W        W33117  11.685  11.395  13.835  0.2012 -0.0004  0.3086
16644W        W33118   3.834  18.102   0.499 -0.0811 -0.0254 -0.2018
16645W        W33119   9.197   9.494   0.419  0.2009 -0.2641  0.2355
16646W        W33120   2.442  16.125   1.485 -0.0965 -0.0098  0.2574
16647W        W33121  17.074   1.454   5.674  0.1998 -0.1403 -0.2564
16648W        W33122  10.093  16.238   1.935 -0.1657 -0.0321 -0.1412
16649W        W33123   6.131  15.227  16.056  0.0903 -0.2529 -0.2083
16650W        W33124  16.930  10.262   3.686 -0.3040 -0.0091 -0.1182
16651W        W33125  16.077   1.872   4.335 -0.0089  0.0288 -0.1212
16652W        W33126   7.924  10.362  13.400 -0.0936 -0.0934  0.1608
16653W        W33127   8.275   0.598   2.046 -0.1089 -0.0036  0.3473
16654W        W33128   5.974   8.616  14.412 -0.0036 -0.2927  0.2622
16655W        W33129  17.810  16.567  13.142  0.0205 -0.0638  0.1300
16656W        W33130   6.623   7.016   4.165  0.0108  0.0202 -0.0839
16657W        W33131  17.955   7.402   3.515 -0.0267 -0.0667 -0.0054
16658W        W33132   2.356  16.523   3.274 -0.0778  0.1081  0.1321
16659W        W33133  17.746  14.283   3.641  0.3218 -0.1439  0.2107
16660W        W33134   4.762  10.819  15.514 -0.1549 -0.3738  0.0052
16661W        W33135   7.152  14.854   2.276 -0.0469  0.3301 -0.0071
16662W        W33136   6.905   0.996   3.109  0.0036  0.1046  0.1641
16663W        W33137   7.574   4.040   1.743 -0.0211  0.0592 -0.1921
16664W        W33138   7.885   9.982  14.377 -0.0526  0.1930  0.0531
16665W        W33139  16.437  11.868   3.107  0.2947  0.0203 -0.0102
16666W        W33140  17.374  12.687  14.473  0.0933 -0.0931  0.2243
16667W        W33141  11.912  13.600   4.411  0.3965 -0.0071 -0.1019
16668W        W33142  11.859  12.631  13.249 -0.1688  0.2430  0.0811
16669W        W33143  16.121   4.167  10.342 -0.2316 -0.3714 -0.1482
16670W        W33144   7.312  18.075   0.315  0.0898 -0.2351  0.0639
16671W        W33145   1.978   3.412  11.957 -0.2874  0.3008 -0.2330
16672W        W33146   8.925   2.413   5.893 -0.0236  0.0340 -0.1485
16673W        W33147  16.957   6.325   1.642  0.1201  0.2561 -0.0476
16674W        W33148   3.244  15.999   4.516  0.1671 -0.0755 -0.3337
16675W        W33149  14.176  12.815  12.570 -0.0125  0.1265  0.2441
16676W        W33150   9.909  10.406  10.992  0.0070  0.1951 -0.0432
16677W        W33151   9.474   2.077  13.462 -0.2499 -0.1775  0.1390
16678W        W33152   6.470   0.053  12.781 -0.1566  0.0994  0.2584
16679W        W33153   5.340  18.080   1.898 -0.2899 -0.0047  0.2533
16680W        W33154  17.379  16.702   0.396  0.2357 -0.0308 -0.0200
16681W        W33155   8.982   1.774   1.352  0.0496  0.0287 -0.0956
16682W        W33156   0.467   3.077  11.529 -0.1266 -0.2302 -0.2117
16683W        W33157  17.926   3.342   0.126 -0.2761  0.2459 -0.2452
16684W        W33158   8.163   1.594   2.637 -0.4288  0.1024  0.2358
16685W        W33159   7.248  15.130   4.983 -0.1372 -0.1006 -0.0103
16686W        W33160   8.057  14.693  15.768  0.0215 -0.1667 -0.2381
16687W        W33161   7.507   5.498   3.511  0.0765  0.1988 -0.2968
16688W        W33162  16.696  16.627  14.608 -0.4135  0.3269  0.1308
16689W        W33163  14.403   5.023   4.194 -0.1290 -0.0234  0.1581
16690W        W33164   4.724   9.868  13.406  0.0809 -0.0188  0.1892
16691W        W33165  17.700   8.470   3.200  0.1969  0.1874  0.1544
16692W        W33166  12.129   1.723  11.433  0.1014  0.2347 -0.0296
16693W        W33167  11.043   7.804  14.365  0.1026  0.2675 -0.0084
16694W        W33168  10.383  11.526  15.195  0.2147  0.0018 -0.0176
16695W        W33169   3.591   8.065   3.744 -0.2552  0.2441 -0.2066
16696W        W33170  18.302   3.356   1.711  0.0633 -0.0244 -0.1634
16697W        W33171   1.170  16.001  11.938  0.0287 -0.0283  0.3311
16698W        W33172   8.040   6.213   3.155 -0.1638  0.0443 -0.0036
16699W        W33173  18.316   4.553  11.542  0.0639  0.1770 -0.0343
16700W        W33174  16.296  16.192   0.566  0.2176  0.2365 -0.2737
16701W        W33175  12.189   6.116  12.452  0.3097 -0.0603  0.3233
16702W        W33176  12.943   9.796   1.789 -0.1351 -0.0771 -0.4015
16703W        W33177   5.781  13.693  15.716 -0.1963  0.0590 -0.0642
16704W        W33178   1.167  17.061   3.095  0.1597 -0.0983  0.0510
16705W        W33179  13.037   3.166  15.050  0.0829  0.1101 -0.0740
16706W        W33180  15.113  17.384   0.393 -0.1654 -0.1575 -0.1037
16707W        W33181  14.222   3.331   4.477 -0.0253 -0.1384 -0.0807
16708W        W33182  11.820   8.995  14.138 -0.1267 -0.3455 -0.2273
16709W        W33183   5.712  14.323   2.578 -0.1508  0.1735  0.1074
16710W        W33184   5.534  12.726  14.818 -0.0957  0.2517  0.1282
16711W        W33185  12.947  17.172   2.131  0.0540 -0.1027 -0.3433
16712W        W33186   8.544   0.064  13.770 -0.2173  0.0520 -0.2781
16713W        W33187  13.746   1.697   2.451  0.0525  0.0759  0.3482
16714W        W33188   0.933   8.841  13.154 -0.0113  0.1293  0.0795
16715W        W33189  14.207   5.405   2.915  0.1332  0.1940 -0.1369
16716W        W33190  15.427   6.225  11.783  0.1776  0.2842 -0.1949
16717W        W33191  13.705  18.033  12.654 -0.0335  0.0019  0.0961
16718W        W33192   9.751   9.497   2.177  0.2334 -0.2104  0.1773
16719W        W33193   5.175  14.101  14.583  0.1490 -0.0961 -0.0503
16720W        W33194  16.528  15.862   6.206  0.0506 -0.1020 -0.3331
16721W        W33195  18.111   9.180  15.427 -0.2733 -0.0209 -0.0605
16722W        W33196   1.482   4.171   0.333 -0.1293  0.1227 -0.2319
16723W        W33197   7.745  18.141   2.730  0.0493 -0.0268 -0.1159
16724W        W33198   2.267   1.612   4.005  0.0689 -0.2356  0.3010
16725W        W33199   4.894   4.417   2.266 -0.0947  0.0069 -0.2690
16726W        W33200  10.743  17.323   0.783 -0.1417  0.0864  0.0529
16727W        W33201   9.304  15.612   2.972 -0.2304 -0.1444 -0.3894
16728W        W33202   7.438   4.728  16.139 -0.0438 -0.1833 -0.1789
16729W        W33203  18.345   7.467  12.451  0.1290 -0.0242  0.0798
16730W        W33204   3.954   5.965  15.760  0.2246  0.0772  0.1432
16731W        W33205  11.629   8.806   3.329  0.0257  0.1570  0.1476
16732W        W33206   9.516  15.647  11.796 -0.0013  0.1426 -0.2122
16733W        W33207   8.442  12.259   5.611 -0.1673  0.1384 -0.1484
16734W        W33208   5.109  16.746   0.088  0.0758 -0.0021  0.0586
16735W        W33209   3.558   3.859  12.788  0.2904 -0.0084 -0.1937
16736W        W33210  12.098   5.999  10.988  0.0105  0.2007  0.1054
16737W        W33211   3.605  12.417  15.209  0.0973  0.2041 -0.0662
16738W        W33212  15.156   2.181   1.792 -0.0250 -0.3443  0.1392
16739W        W33213   5.247   8.763  12.661  0.2943 -0.1598 -0.0112
16740W        W33214   1.846   4.515  13.641 -0.0003 -0.2487 -0.0674
16741W        W33215   9.180   7.830  10.957  0.0757  0.0421  0.2944
16742W        W33216  17.284  13.251   3.932  0.1150 -0.1741 -0.0423
16743W        W33217  17.746  11.611   1.205  0.0615  0.1604  0.0897
16744W        W33218  16.639  11.970   3.538  0.0673  0.0135  0.2895
16745W        W33219   7.562  11.814  13.175  0.2018 -0.1405  0.3582
16746W        W33220   9.665  10.134   4.879  0.0553 -0.2458  0.1214
16747W        W33221  11.721   7.627   3.982 -0.1251 -0.3437 -0.1224
16748W        W33222   1.781  16.483   4.589 -0.3682 -0.2846  0.1001
16749W        W33223   0.663   5.335   5.600 -0.2905  0.0860 -0.0919
16750W        W33224  11.003  10.478  12.354 -0.1501  0.0706 -0.0499
16751W        W33225   0.337  10.954   2.221  0.0869  0.0158 -0.0918
16752W        W33226  14.787  13.358   1.031 -0.4236  0.3490  0.0683
16753W        W33227   8.676  16.381   2.217  0.1907 -0.0014  0.1377
16754W        W33228   6.401  17.092  13.116 -0.3041 -0.3015 -0.0210
16755W        W33229   8.086  11.506  14.052  0.1883  0.0646 -0.0223
16756W        W33230   0.712   5.980   0.210 -0.0769  0.0789 -0.4122
16757W        W33231   5.674   5.430   4.925  0.2598 -0.0440 -0.1050
16758W        W33232   6.141  14.263  12.496 -0.2867  0.2207 -0.2051
16759W        W33233   7.418  15.651  15.306  0.0341  0.1122  0.0990
16760W        W33234  10.694   1.204  14.419 -0.1737 -0.1758 -0.1070
16761W        W33235  13.130   8.052   1.205 -0.0765 -0.2542 -0.0018
16762W        W33236   0.364   8.614  14.975 -0.4350 -0.1595  0.1779
16763W        W33237   2.835  10.155   4.667 -0.2150 -0.1709 -0.3355
16764W        W33238   6.103   5.869  11.614 -0.0247 -0.1097 -0.0534
16765W        W33239  13.903  15.120  11.631  0.0279 -0.1271  0.1858
16766W        W33240  12.769  10.001   3.546 -0.0241  0.1864 -0.0772
16767W        W33241   4.410   2.416   3.185  0.2561 -0.1401 -0.0492
16768W        W33242   4.948   9.265   1.305 -0.1025 -0.0997  0.1986
16769W        W33243  15.933   3.644  13.057  0.0043  0.0251 -0.0261
16770W        W33244   5.430  10.421   1.472 -0.0275  0.0330  0.1825
16771W        W33245   5.619   3.805  14.603 -0.0434 -0.1011  0.1415
16772W        W33246  18.209  18.314  12.655 -0.1384  0.3736  0.2271
16773W        W33247   3.573  17.247  13.723  0.2896  0.4350  0.0169
16774W        W33248  17.531   6.871  12.446 -0.1352  0.2299  0.1488
16775W        W33249  12.462   5.182   4.524 -0.0050 -0.0493  0.1300
16776W        W33250  11.054   9.874  10.428 -0.0211 -0.1280  0.0022
16777W        W33251   5.514   9.428   3.035 -0.0389 -0.3518 -0.2454
16778W        W33252  11.781   6.639   3.969 -0.2522 -0.1362  0.1700
16779W        W33253  15.714  11.185  13.406 -0.2008 -0.1936  0.1257
16780W        W33254  17.686   5.624   4.602  0.4027  0.0356 -0.0748
16781W        W33255   6.688  14.202  15.087  0.1016 -0.0286 -0.0682
16782W        W33256  14.523  13.236   0.114 -0.3154 -0.0830  0.0465
16783W        W33257  11.968  14.799   3.379  0.1830  0.2118  0.1610
16784W        W33258  17.482  14.618  13.121  0.0507  0.2288  0.1295
16785W        W33259  15.918   3.697  14.041 -0.1184  0.1581  0.0359
16786W        W33260  14.322  14.604  11.841  0.0747 -0.2514 -0.0454
16787W        W33261   9.429   7.938   3.636 -0.3410  0.3609  0.1198
16788W        W33262  17.097  15.421   2.940 -0.1657 -0.0048  0.2616
16789W        W33263  16.066   8.235   1.051 -0.1150 -0.0611 -0.2273
16790W        W33264  17.392  11.293  11.910 -0.3171  0.0108  0.1410
16791W        W33265   8.323  12.691  12.766 -0.4204 -0.1901  0.4216
16792W        W33266  15.430  12.303  15.304 -0.3131 -0.0668  0.1269
16793W        W33267   5.972   2.352   4.527 -0.1124  0.0346 -0.0600
16794W        W33268   8.778   1.621  12.764 -0.0982  0.0716 -0.3084
16795W        W33269   8.065  10.534   3.195  0.1811  0.0186  0.3202
16796W        W33270   7.063   8.317   2.783  0.4301 -0.2866 -0.3954
16797W        W33271   1.989   8.383   1.411  0.2595 -0.2142  0.0699
16798W        W33272   0.265  13.296   5.706 -0.3590  0.1432  0.3785
16799W        W33273   3.046   3.227  12.501 -0.2827 -0.2941 -0.0072
16800W        W33274   0.209  16.961  11.992 -0.0884  0.0193 -0.1649
16801W        W33275   6.641   8.172   4.309  0.0673  0.2583  0.0026
16802W        W33276  12.437  11.192  16.093 -0.3195 -0.1475 -0.0800
16803W        W33277   1.467   9.870   5.346 -0.1069 -0.0223  0.0930
16804W        W33278   1.207   1.064  12.783 -0.2369  0.0499  0.1182
16805W        W33279  16.364   0.189   6.359 -0.0732 -0.1580  0.2234
16806W        W33280  16.797  11.524  14.028 -0.2443 -0.0402 -0.0356
16807W        W33281   4.760   9.123   1.822 -0.2316 -0.0080 -0.5415
16808W        W33282   9.661   4.963  14.771 -0.2688  0.1918  0.0414
16809W        W33283   3.300   0.308   5.126  0.0712 -0.2299 -0.1462
16810W        W33284   0.301   6.259  13.185  0.0590 -0.3447  0.2034
16811W        W33285   8.400   7.617   3.152 -0.0648 -0.0050 -0.3042
16812W        W33286   4.076   2.848  14.113 -0.4851 -0.2926  0.2831
16813W        W33287  14.190   6.556   2.302 -0.2076  0.1905 -0.3281
16814W        W33288  11.651  10.096   2.403  0.0078 -0.3430  0.0190
16815W        W33289  10.990   5.156   4.517  0.0694 -0.0397  0.1027
16816W        W33290  17.040  14.991  15.622  0.0404 -0.1370 -0.0495
16817W        W33291   2.681  16.476   2.123 -0.2503 -0.1163 -0.1627
16818W        W33292  13.021  15.966   5.206  0.4115  0.1750 -0.1221
16819W        W33293   1.500   4.033  13.840  0.2220  0.1321 -0.3232
16820W        W33294   3.814  17.793   3.926  0.2125 -0.1760  0.1863
16821W        W33295   5.492  15.945   4.844  0.1802 -0.0828 -0.0669
16822W        W33296  10.069   1.284   6.035 -0.1883 -0.2198  0.1939
16823W        W33297   4.181   3.374   4.369  0.1069  0.0716 -0.1436
16824W        W33298  14.778   6.325   5.059  0.1041  0.0873  0.1059
16825W        W33299  12.312   8.394   3.808  0.1121  0.1179  0.1338
16826W        W33300   5.349   8.309  13.488 -0.2066 -0.0751  0.0194
16827W        W33301   6.711  16.210   5.593 -0.1265  0.0440 -0.3190
16828W        W33302  10.940  14.781   4.925 -0.0492  0.1808 -0.2330
16829W        W33303  12.742  13.039   2.793 -0.0211  0.0083 -0.3575
16830W        W33304   4.933  10.003   0.392 -0.1515  0.1125  0.2363
16831W        W33305  11.501   3.829   2.402  0.2047  0.0616 -0.1528
16832W        W33306   6.586   5.229  14.483  0.1679  0.0283  0.1828
16833W        W33307  15.138   7.655  13.010 -0.1205 -0.1810 -0.3027
16834W        W33308  17.411   5.922   3.374 -0.2365 -0.0187 -0.1725
16835W        W33309   8.027   9.784   0.467 -0.0553  0.1822 -0.0826
16836W        W33310   8.732   8.653   2.225 -0.0418  0.1695 -0.2707
16837W        W33311   6.485   0.235  14.439  0.0294  0.3744  0.3494
16838W        W33312  17.112   0.973   5.887 -0.1511  0.0357  0.0935
16839W        W33313   4.853   3.096   0.455 -0.0865 -0.1159 -0.0048
16840W        W33314  15.325  16.541  16.061  0.0239 -0.0979 -0.0400
16841W        W33315  15.391  18.160   1.829  0.0262 -0.2407  0.2360
16842W        W33316   9.307   7.195   1.043  0.0986 -0.1153 -0.1671
16843W        W33317   5.178  14.311  14.040  0.3430 -0.1746  0.0236
16844W        W33318   1.137  14.577  11.664  0.2299 -0.0986  0.0619
16845W        W33319   0.360   4.655   3.186 -0.2430  0.2533  0.0443
16846W        W33320   2.499   8.107   1.954  0.2577 -0.0960  0.1064
16847W        W33321  17.663  11.780  13.629  0.0073 -0.1052  0.0029
16848W        W33322  18.363   1.797   3.995  0.1836  0.1571 -0.0881
16849W        W33323  15.295   3.292   4.503  0.0281 -0.1325  0.1468
16850W        W33324   3.877   1.092  12.928  0.0799  0.1414 -0.0807
16851W        W33325   7.317   9.393  14.801 -0.0132  0.0065 -0.4183
16852W        W33326   5.034  15.120   3.169  0.0184 -0.1139  0.2889
16853W        W33327   8.987   1.653   0.234 -0.1518 -0.5049 -0.2296
16854W        W33328  17.393   3.887   5.037 -0.0091 -0.4260  0.0341
16855W        W33329   8.627  12.591   1.039  0.2337  0.1278 -0.0863
16856W        W33330   6.446  14.369   3.753 -0.1314  0.3228 -0.0557
16857W        W33331  15.728  15.267   1.273  0.3134 -0.0584 -0.1567
16858W        W33332  15.464   3.451  13.268 -0.1118  0.4853  0.1776
16859W        W33333   9.484   1.120  15.081  0.2421  0.0781  0.0485
16860W        W33334  17.396  11.812  12.748 -0.2288  0.4085 -0.2861
16861W        W33335  16.705   7.134   1.041  0.2921 -0.0457 -0.1098
16862W        W33336   7.373   7.317  16.211  0.2710 -0.1226 -0.0069
16863W        W33337   0.627  16.798   2.470 -0.0381  0.2137 -0.1338
16864W        W33338   1.484  18.221  14.127 -0.0294 -0.0616 -0.0842
16865W        W33339   8.724  16.069   6.328 -0.0887 -0.1242  0.1926
16866W        W33340  10.933  13.154   0.716  0.2893 -0.0092  0.2569
16867W        W33341  12.424   2.156   2.362 -0.0501  0.1016  0.2685
16868W        W33342   6.553  10.064  15.827  0.0006  0.1956  0.0181
16869W        W33343  17.891  14.383   3.113 -0.1232 -0.1196  0.1851
16870W        W33344  11.876  14.659   4.870 -0.1473 -0.0302  0.3181
16871W        W33345   4.723   6.955   0.076  0.0560 -0.1066 -0.5186
16872W        W33346   1.085   1.175   5.815 -0.1148  0.0408  0.1555
16873W        W33347  17.478   3.073   0.065 -0.1182 -0.3232  0.3027
16874W        W33348  14.344  16.677   6.536 -0.0853 -0.2871  0.2581
16875W        W33349  13.068  14.371  15.216 -0.0783 -0.1819  0.1556
16876W        W33350   7.215   5.780  12.947 -0.3425  0.1981  0.1738
16877W        W33351   8.837  10.112   4.791  0.0449 -0.1889 -0.1450
16878W        W33352  15.207   8.870   9.739 -0.1003 -0.1459 -0.0817
16879W        W33353   4.448  14.844   2.470  0.4579 -0.1093 -0.0089
16880W        W33354   2.238   2.185  15.148 -0.1184 -0.1672  0.1606
16881W        W33355   2.248  11.256  11.954 -0.2026  0.0847 -0.1324
16882W        W33356   0.436  13.191   2.010 -0.2112  0.0824  0.0695
16883W        W33357   3.217   7.411  12.999  0.2659  0.2334  0.3394
16884W        W33358   2.796   5.769   0.541  0.0146  0.1681 -0.0577
16885W        W33359   1.942   7.280  14.057 -0.1694  0.0976 -0.2910
16886W        W33360   9.322  18.326   5.257 -0.0872 -0.0663 -0.0834
16887W        W33361  16.732   9.691   1.045 -0.1935  0.1741  0.0027
16888W        W33362  12.136  11.752   3.961 -0.2691  0.0339  0.0887
16889W        W33363  11.646   8.204   5.484  0.0388 -0.0626 -0.0617
16890W        W33364   2.655   3.485  12.184 -0.1237  0.2582  0.2142
16891W        W33365  16.041  11.314   3.744  0.1532  0.0464 -0.0675
16892W        W33366   6.277  15.325  12.462  0.1854  0.2301 -0.0245
16893W        W33367  15.717   5.817   0.832 -0.0791 -0.4279 -0.0128
16894W        W33368   7.300   4.620  12.516 -0.2673 -0.0222 -0.5559
16895W        W33369   1.638   3.908   1.825 -0.0443 -0.1024  0.0554
16896W        W33370  13.240  14.607   3.843 -0.3243  0.3744 -0.0976
16897W        W33371  10.590   7.603  13.025 -0.1527 -0.0263  0.0980
16898W        W33372  15.250   8.074  15.318 -0.0116  0.4922 -0.0955
16899W        W33373   3.159  10.826   5.686 -0.1923 -0.0005  0.2010
16900W        W33374   2.874   8.931  14.536 -0.2144 -0.0017 -0.0284
16901W        W33375  16.564   8.081  11.915 -0.2368  0.0489  0.0641
16902W        W33376   3.886   4.347   1.413 -0.1063 -0.3688  0.1030
16903W        W33377   7.035   5.424  15.168  0.2481  0.0092  0.0573
16904W        W33378   7.227  12.255   1.507  0.0796  0.1000  0.1345
16905W        W33379   9.796  18.203  12.774 -0.2847  0.0320  0.1588
16906W        W33380   0.884   8.023   0.328 -0.1033 -0.3254 -0.0671
16907W        W33381   6.808   2.455  15.268 -0.2534  0.1632 -0.0041
16908W        W33382  18.187   4.647   3.205 -0.0055  0.1984  0.1629
16909W        W33383   4.100  16.178   4.356 -0.1959  0.3010  0.2522
16910W        W33384   5.204  10.161   4.659 -0.0255  0.0734 -0.0901
16911W        W33385   2.129  13.373   3.390 -0.7676 -0.1784 -0.0646
16912W        W33386  10.673   3.566   2.661  0.1387 -0.2314  0.0057
16913W        W33387   5.464   1.341  14.147  0.0616 -0.1602  0.3571
16914W        W33388  14.854  12.708   1.232 -0.2169 -0.1281 -0.0712
16915W        W33389   0.930   0.718  14.127 -0.0658  0.4421  0.1110
16916W        W33390  15.226   9.886  13.164 -0.1090 -0.3207 -0.2083
16917W        W33391   5.066   7.988  11.841 -0.2416  0.2625 -0.0195
16918W        W33392  10.793  16.140   3.114  0.0113  0.1953 -0.0253
16919W        W33393   0.683  15.792   2.570  0.0817 -0.0771 -0.1257
16920W        W33394  11.872  10.083   0.715 -0.2407  0.0041  0.0206
16921W        W33395   6.064   6.549  11.596  0.0529  0.0533  0.1704
16922W        W33396   1.660  17.189  12.796 -0.1159  0.0343  0.0173
16923W        W33397  16.339  16.868   1.604  0.1381  0.4324  0.2079
16924W        W33398  13.792   9.333  11.622 -0.2669  0.0763 -0.1914
16925W        W33399   1.241  15.120   1.548 -0.2200  0.1022 -0.0868
16926W        W33400   0.725   5.195  16.155  0.2817 -0.1431  0.3054
16927W        W33401   7.921   4.312  15.322 -0.0195  0.4186  0.3008
16928W        W33402   0.007   1.641  13.910 -0.3429 -0.2530 -0.0173
16929W        W33403  17.349  10.111   3.171 -0.1822 -0.0775 -0.0092
16930W        W33404   8.823   5.940  15.395  0.1381  0.2801 -0.0366
16931W        W33405   0.603   6.812   3.969 -0.1372  0.2491  0.0979
16932W        W33406   3.412  12.329  14.757  0.1223 -0.2849  0.1578
16933W        W33407   0.767   0.718  12.591 -0.0381 -0.0929  0.0525
16934W        W33408  17.409   8.128   3.440  0.0819  0.4468 -0.4689
16935W        W33409  15.605   8.926  15.329  0.1013  0.1647 -0.5450
16936W        W33410   7.211   5.834   4.671  0.0528 -0.1352 -0.0414
16937W        W33411  16.438   4.451  12.914 -0.3067  0.0505 -0.2030
16938W        W33412   2.617   8.850   0.289  0.4313  0.1365  0.1386
16939W        W33413   2.037   3.525  15.195  0.1331  0.2516  0.0224
16940W        W33414   7.188  17.563   2.175  0.4365  0.1443  0.0226
16941W        W33415   0.414   1.730  13.436  0.0487 -0.1131 -0.2522
16942W        W33416  10.192   7.611   3.716  0.2776 -0.0488  0.0229
16943W        W33417  18.027  15.281  11.817  0.0285 -0.1841 -0.2369
16944W        W33418   1.957  18.340   4.898  0.1538  0.0594  0.0822
16945W        W33419  16.579  11.475   0.313  0.0075 -0.0494  0.0417
16946W        W33420  16.475  15.377   4.645 -0.2707  0.3699  0.1105
16947W        W33421   8.494  17.184   6.739 -0.2286  0.0136 -0.0484
16948W        W33422  13.873  10.080  14.503 -0.2165 -0.2841  0.1901
16949W        W33423  18.089  17.275   4.950  0.1725 -0.3415 -0.3909
16950W        W33424   5.185   6.288  11.104 -0.0964  0.0534 -0.0968
16951W        W33425  10.587   3.962   1.760  0.0728 -0.4556 -0.0622
16952W        W33426  16.449   9.231   0.055  0.0014  0.2210 -0.2509
16953W        W33427  12.914  17.736   0.725  0.0339  0.1076 -0.1326
16954W        W33428  17.001  17.003   2.244  0.0429 -0.1926 -0.3566
16955W        W33429   4.837   2.062   2.725  0.5225 -0.0471 -0.2298
16956W        W33430   9.086  18.134   2.507  0.0027 -0.2143 -0.0356
16957W        W33431   4.928  11.585  16.218 -0.0733 -0.0699 -0.1435
16958W        W33432  17.266   7.442  13.555 -0.2116  0.0242  0.3042
16959W        W33433  12.142  15.930  11.006 -0.1660  0.1974 -0.4233
16960W        W33434   3.803   7.999  13.674 -0.1123 -0.2794  0.0482
16961W        W33435   3.325  11.067   0.208  0.0313 -0.0658 -0.0700
16962W        W33436   4.141  15.948   1.078 -0.0053 -0.1088  0.0682
16963W        W33437   7.531  11.777   3.358 -0.0308 -0.0703 -0.0517
16964W        W33438   6.305  17.392   1.528  0.0121 -0.3826 -0.1586
16965W        W33439   9.607   6.391  11.331  0.1866  0.0680  0.0308
16966W        W33440   2.872   8.907   1.419 -0.1442  0.1121 -0.1143
16967W        W33441   7.630   7.767  16.169  0.1444 -0.0695  0.1106
16968W        W33442  16.826  13.694   2.530  0.3188 -0.1674  0.1564
16969W        W33443  17.790  10.851   4.977  0.0018 -0.0195 -0.0555
16970W        W33444  16.683  16.721   1.953 -0.1860  0.0091  0.3193
16971W        W33445   7.735  11.920   4.535 -0.0059  0.1817  0.0170
16972W        W33446   7.888  15.389   4.198 -0.3373 -0.1000 -0.0111
16973W        W33447   7.435  17.732   3.427  0.1126  0.1263  0.3774
16974W        W33448   6.894  13.777  12.710 -0.1709  0.2717  0.1843
16975W        W33449  13.386   8.659  12.855  0.2054 -0.2000 -0.0828
16976W        W33450  16.206   2.689  12.137 -0.1847  0.2157  0.2378
16977W        W33451   6.994  11.915   0.424  0.2235  0.0063 -0.2203
16978W        W33452  17.566   8.143   0.011  0.0537  0.4322  0.3317
16979W        W33453  15.120   3.717  13.590 -0.0250  0.0661 -0.1097
16980W        W33454  14.806  13.888   3.533  0.0429 -0.1368  0.0645
16981W        W33455   1.402   3.405  12.051 -0.1374 -0.0011  0.0648
16982W        W33456   9.167   4.838   4.737 -0.0864  0.1859  0.0290
16983W        W33457   9.925  12.661  11.931  0.2450 -0.1553 -0.0841
16984W        W33458  11.163   7.449  11.922 -0.1406 -0.0951 -0.0098
16985W        W33459  10.987   9.435  11.304 -0.1626 -0.1050 -0.1328
16986W        W33460   5.843   3.132  13.467  0.0635 -0.1201 -0.1621
16987W        W33461  11.360   4.771   4.465 -0.0696 -0.2688  0.3168
16988W        W33462   9.502  15.316  14.330 -0.1072  0.4262  0.1365
16989W        W33463   8.184  17.699  14.166 -0.0325 -0.0961 -0.0893
16990W        W33464  12.977   0.915  11.912  0.0482  0.0009  0.1861
16991W        W33465  18.383  14.242   2.363  0.3336  0.0013  0.2762
16992W        W33466  17.447   3.456   1.287 -0.2470 -0.2871 -0.2318
16993W        W33467   1.709  16.948  13.807 -0.0282 -0.2718 -0.0527
16994W        W33468  18.255   5.253   5.259 -0.1393  0.3359 -0.0980
16995W        W33469   1.948   9.612   0.007 -0.0832 -0.1872  0.2527
16996W        W33470   1.008  10.920  14.635  0.2212  0.2188 -0.1381
16997W        W33471  17.309   9.236  11.581 -0.0554 -0.1063 -0.2284
16998W        W33472   3.890   3.560   5.291  0.0285 -0.3679  0.1379
16999W        W33473   6.884   1.212   3.600  0.1354 -0.1322  0.1594
17000W        W33474  10.786   6.772  15.134  0.1251 -0.0562 -0.0283
17001W        W33475  17.234   0.001   1.092  0.0623  0.1432  0.1600
17002W        W33476  10.826  15.129   1.549  0.0237  0.1825  0.0953
17003W        W33477  12.052   7.201  15.280 -0.0660 -0.3531 -0.1231
17004W        W33478   3.972  10.569   3.070 -0.0970  0.0450  0.0903
17005W        W33479  16.892  15.771  14.479  0.2845  0.0574  0.4103
17006W        W33480  15.437   4.205  12.527 -0.1984 -0.0640 -0.2863
17007W        W33481   4.278  15.449  15.187  0.2931 -0.1341  0.2226
17008W        W33482   5.390   1.376   3.135 -0.1488  0.2169 -0.1495
17009W        W33483   5.995   8.042  15.654  0.2328  0.1962  0.3585
17010W        W33484  15.375   1.563   3.634 -0.1520 -0.0685  0.2478
17011W        W33485   9.056   3.332   5.760 -0.2655  0.0722 -0.2930
17012W        W33486  16.300   3.078   0.883  0.2985  0.0163  0.1722
17013W        W33487   1.188   3.496  16.103  0.0984  0.0214 -0.0839
17014W        W33488   6.102   1.720   3.366 -0.2815 -0.3153  0.5044
17015W        W33489   2.650   5.413   0.144  0.1075 -0.1654 -0.0647
17016W        W33490  15.754   9.072  13.086  0.1994 -0.0858  0.0146
17017W        W33491   8.519   5.572  15.722 -0.1144  0.0778  0.1748
17018W        W33492  10.973  12.728  15.605 -0.0203  0.0424 -0.1575
17019W        W33493  13.788   7.532  13.220  0.3285  0.0704  0.0091
17020W        W33494   4.629  11.912  13.146  0.1102  0.1316  0.1380
17021W        W33495  17.903  14.782   0.062 -0.0501 -0.0993  0.1660
17022W        W33496   6.192  10.244   2.250  0.1490 -0.1288  0.2677
17023W        W33497   8.213  12.631   0.758 -0.2266  0.0217  0.1835
17024W        W33498   0.403  12.047  14.814 -0.1714 -0.4433 -0.1067
17025W        W33499  16.697   3.465   2.137 -0.2443  0.1061 -0.2476
17026W        W33500  12.021  13.534   3.335 -0.0770  0.0518  0.0589
17027W        W33501   2.339   3.172   4.885 -0.0057 -0.2758 -0.2206
17028W        W33502  16.616   2.115   0.003 -0.2391  0.0921  0.2592
17029W        W33503  15.446  16.005  11.395  0.3403 -0.2739 -0.1192
17030W        W33504  17.893  10.346  12.037  0.1638 -0.1278 -0.2955
17031W        W33505  15.823   4.040   0.783 -0.0868 -0.1666 -0.1001
17032W        W33506  14.292   1.671  15.368  0.3579 -0.0440  0.1232
17033W        W33507   6.072   1.887   4.038 -0.0168 -0.0593  0.3824
17034W        W33508   5.798   4.181   0.446 -0.5523 -0.1129  0.1478
17035W        W33509  18.144  16.152   4.454 -0.0128 -0.5017  0.1889
17036W        W33510   8.493  14.764  15.451 -0.2083  0.0590 -0.0521
17037W        W33511   6.580   3.893  13.260 -0.2184  0.1640 -0.1204
17038W        W33512  15.756   6.115  12.212 -0.0416 -0.0085 -0.1729
17039W        W33513   1.514  14.032  13.914 -0.1822 -0.0415 -0.2950
17040W        W33514  14.846   9.565  15.418 -0.0440  0.1063  0.0460
17041W        W33515  12.236  14.731  14.314  0.1367  0.0880 -0.3480
17042W        W33516   9.859   4.541   0.747 -0.1581 -0.2390  0.3358
17043W        W33517   7.794   7.605  13.055  0.1226 -0.0336 -0.0512
17044W        W33518  13.006   8.324  15.187  0.2575 -0.0510  0.1143
17045W        W33519  17.938   6.507  11.748 -0.2068 -0.1595  0.1638
17046W        W33520  13.675  14.563  16.117 -0.2938  0.2183  0.0630
17047W        W33521  13.543  15.763  14.669 -0.0207  0.0001  0.0725
17048W        W33522  13.832  17.583  14.924  0.1289  0.1822  0.0216
17049W        W33523   8.471   8.881  12.775  0.0001 -0.0290  0.5510
17050W        W33524  10.720   7.924  12.056 -0.0897 -0.1659 -0.1237
17051W        W33525   2.263   2.790  15.918 -0.2239  0.0655  0.3225
17052W        W33526   8.627   7.772   5.394  0.2397 -0.0445  0.1367
17053W        W33527   5.497  15.839   0.262  0.1678 -0.0386 -0.1923
17054W        W33528  13.350  13.250  16.255 -0.0305 -0.0054 -0.1110
17055W        W33529  14.743   4.850   1.266  0.4090 -0.1018 -0.0144
17056W        W33530  15.856  15.307  13.582 -0.0348  0.0968 -0.0275
17057W        W33531   3.943  13.169   0.214 -0.0544 -0.1464 -0.0319
17058W        W33532  10.778   5.828   3.174  0.1031  0.1526  0.1052
17059W        W33533  14.414  15.290  14.351  0.0392 -0.0128 -0.0460
17060W        W33534  10.010  16.914  13.527 -0.0129 -0.0230 -0.3519
17061W        W33535   2.996  11.365   4.804 -0.1885  0.1300 -0.4700
17062W        W33536   4.212   7.598  11.263  0.0203  0.3124 -0.2964
17063W        W33537  16.546  16.930   3.757  0.1201  0.1281  0.2564
17064W        W33538  12.054   8.509   3.424  0.1500  0.0323  0.0162
17065W        W33539   5.568   9.021   0.596  0.2849 -0.0325  0.0316
17066W        W33540   5.122  13.460   4.327  0.2687 -0.1273 -0.0096
17067W        W33541   2.716  15.229  13.328  0.3363  0.2781  0.4854
17068W        W33542   2.495   7.241   4.601  0.0745  0.3509 -0.0589
17069W        W33543   5.087   5.499   4.936 -0.1457  0.6266  0.2945
17070W        W33544  10.027   7.273   0.904 -0.0527 -0.0039 -0.0217
17071W        W33545  16.455   2.927  16.100  0.0600  0.5396 -0.0548
17072W        W33546   7.674  14.673   3.884  0.1491 -0.4774 -0.1180
17073W        W33547   7.853  16.116  11.919 -0.1037 -0.1698  0.2467
17074W        W33548   1.313  12.348   3.852 -0.2148 -0.0301  0.3282
17075W        W33549   1.906  10.556  15.860 -0.1382 -0.0943  0.1114
17076W        W33550   7.821   3.913   0.149  0.0376  0.1911  0.1968
17077W        W33551   9.591   5.650   1.684 -0.0553  0.2247 -0.0967
17078W        W33552   8.050   0.336   5.024 -0.1263 -0.2141  0.0101
17079W        W33553   9.659  14.527  15.971 -0.0853 -0.0850 -0.5302
17080W        W33554   2.982   7.522  10.339  0.1410 -0.1330 -0.2473
17081W        W33555   4.531   4.906   1.505  0.0100  0.1754  0.1332
17082W        W33556   4.662  18.337   3.718  0.1704  0.0642  0.0102
17083W        W33557   1.129   0.827   5.440 -0.3513 -0.3886 -0.1463
17084W        W33558  17.316   6.078  13.493  0.1520  0.0107 -0.1326
17085W        W33559  14.544   5.106  11.189  0.1542  0.0606 -0.1736
17086W        W33560  12.027  12.169   3.465  0.1249 -0.1894 -0.3797
17087W        W33561   1.308  12.873   3.171  0.1426 -0.1961  0.4382
17088W        W33562   8.654   8.655   0.184  0.0617 -0.3489 -0.0217
17089W        W33563   1.676   1.213  13.420  0.0114  0.3192 -0.1239
17090W        W33564   2.204  12.714  14.774 -0.0679  0.1895  0.0956
17091W        W33565  13.644   7.649  13.689 -0.0462 -0.0591  0.0750
17092W        W33566   2.878  13.214   4.224 -0.1603 -0.3428  0.2115
17093W        W33567  15.005   3.906  14.558  0.0852 -0.2446 -0.1949
17094W        W33568   4.545  11.124   5.265  0.2899  0.0246  0.1193
17095W        W33569  12.083  11.558   2.089 -0.1917  0.0512 -0.0713
17096W        W33570   3.224   4.664  16.001 -0.1514  0.1249 -0.1581
17097W        W33571   6.548  16.283  16.326  0.0875 -0.2377 -0.0493
17098W        W33572  15.862   1.721   3.898  0.1595 -0.0757 -0.0828
17099W        W33573  13.279   9.334  14.149  0.0499 -0.1482  0.0585
17100W        W33574   5.340  17.299   3.204 -0.2869 -0.0327  0.2284
17101W        W33575   6.669   0.179   5.813 -0.1526  0.0004 -0.4632
17102W        W33576  13.689  10.443  12.086 -0.0597 -0.0753 -0.0189
17103W        W33577   8.603   1.666  11.800 -0.0422 -0.0608  0.1730
17104W        W33578   5.419   2.674  14.967  0.4356 -0.4199  0.0908
17105W        W33579  17.721   4.113  12.617 -0.2625 -0.1205  0.0549
17106W        W33580  12.090   1.370   4.930  0.0551 -0.1406 -0.0882
17107W        W33581  12.204  11.006  12.858 -0.2923 -0.2001  0.0289
17108W        W33582  10.411  12.477   1.044 -0.3230  0.3127  0.0022
17109W        W33583  12.519  10.742  15.202 -0.0141 -0.1308 -0.1232
17110W        W33584   2.544   0.982  12.195 -0.0830  0.1186  0.1093
17111W        W33585  12.886   1.390   5.664  0.0059  0.1842  0.1367
17112W        W33586   7.562   2.541   5.685  0.1823 -0.0114  0.0884
17113W        W33587  11.841  16.309   0.324  0.2158  0.1190  0.2075
17114W        W33588   7.923  16.611  14.986 -0.3804  0.0775  0.0433
17115W        W33589   4.838  10.455  11.975 -0.1592  0.1516  0.0500
17116W        W33590  14.524   1.704  13.306  0.0216  0.0266 -0.1878
17117W        W33591  12.507  11.013   0.225 -0.2757 -0.1878 -0.1248
17118W        W33592   2.215  17.900  13.612  0.1911  0.3265 -0.0997
17119W        W33593  15.654   7.051  10.149  0.2465 -0.0939  0.0849
17120W        W33594   9.132   3.050   4.882 -0.3985  0.1227 -0.1211
17121W        W33595   4.874  13.812   1.176  0.0441 -0.1443  0.2087
17122W        W33596  13.872   5.052   3.795  0.0746 -0.0758 -0.4131
17123W        W33597  13.659   9.557  12.308  0.0410 -0.4471 -0.0529
17124W        W33598   0.962   9.641   2.606 -0.2239  0.2034  0.0664
17125W        W33599   4.053   1.836  15.926  0.1130 -0.3956 -0.0962
17126W        W33600   0.002  11.212  13.792  0.1383 -0.0602  0.1906
17127W        W33601   5.839   5.971   5.001  0.1562 -0.0103  0.3234
17128W        W33602  17.551   9.975  12.132 -0.2714  0.4979  0.1252
17129W        W33603   2.290   8.429   3.277 -0.0128  0.1661 -0.0653
17130W        W33604  12.616  12.620  16.128  0.0484  0.1086  0.3118
17131W        W33605   2.992  15.259   2.565  0.0735 -0.1717 -0.0792
17132W        W33606   4.520  13.812   5.749 -0.7401  0.2829  0.0486
17133W        W33607   9.625  14.230  13.620 -0.1955  0.1107 -0.0380
17134W        W33608  12.919  13.239  13.029 -0.0646 -0.3890 -0.0805
17135W        W33609  15.366  15.301   2.094  0.1849 -0.1328  0.0860
17136W        W33610   2.199  12.803   6.638 -0.3402  0.0893 -0.1314
17137W        W33611  14.062   2.788   2.092 -0.0748  0.0878  0.1219
17138W        W33612  12.905   5.005   4.129  0.0365 -0.2171  0.1963
17139W        W33613   2.667   0.009  16.324  0.1473  0.1751 -0.1162
17140W        W33614   1.360  15.005  12.183  0.2198  0.1056 -0.5601
17141W        W33615  17.332  13.380  13.975 -0.2766  0.1533 -0.2847
17142W        W33616   4.551  14.722   3.899  0.0508  0.0918 -0.1531
17143W        W33617   8.680  11.145  14.793 -0.3710 -0.0276  0.1166
17144W        W33618  17.677   5.334  15.812  0.0206  0.0616  0.0128
17145W        W33619   9.774   6.616   1.696 -0.0974  0.0952  0.2097
17146W        W33620   8.817  14.906   4.045  0.0469 -0.2426  0.2918
17147W        W33621   6.095   4.948  15.707  0.1616 -0.1721  0.2001
17148W        W33622   8.812  11.895  16.012  0.1704 -0.1035 -0.1931
17149W        W33623  12.855   2.916   3.936  0.1241 -0.3473 -0.1035
17150W        W33624   1.208   1.782   3.413 -0.0524  0.0919 -0.1310
17151W        W33625   2.931  10.419   3.943 -0.1214  0.1053 -0.0960
17152W        W33626  12.260   9.889   2.175 -0.1273  0.3133  0.0347
17153W        W33627  11.003   4.741   4.848  0.1406 -0.1059  0.0030
17154W        W33628   5.109   1.425  16.143  0.0907  0.0919  0.3606
17155W        W33629  15.804  11.493   1.830  0.1622 -0.2481  0.3284
17156W        W33630  15.548   6.526  14.686 -0.1279  0.0220 -0.0987
17157W        W33631   0.141  14.061  13.193 -0.2609  0.0418  0.2559
17158W        W33632   7.552   1.465  15.364 -0.0400 -0.3480 -0.0214
17159W        W33633   2.565   5.905   1.270 -0.0411  0.0595 -0.0040
17160W        W33634   9.243  14.882  14.174  0.2038 -0.1686 -0.1597
17161W        W33635   4.541  13.539   5.067 -0.0029  0.2492  0.0551
17162W        W33636  12.613  14.652   1.563  0.0217 -0.0847  0.0696
17163W        W33637   7.838   2.600  15.499 -0.3289  0.3462 -0.1607
17164W        W33638   8.511  17.742  12.108  0.0174 -0.0613  0.2487
17165W        W33639   8.893   7.915   4.511  0.0015  0.0877  0.1630
17166W        W33640   1.552  14.303   3.176 -0.0929 -0.0252 -0.1672
17167W        W33641   6.475   3.115   4.945 -0.1299 -0.0650 -0.1631
17168W        W33642   3.835   6.737   0.007 -0.0973  0.3257  0.1596
17169W        W33643   8.491  14.823   3.681  0.0419 -0.3551  0.3334
17170W        W33644  13.854  14.808   5.707 -0.2760  0.0199 -0.1280
17171W        W33645  16.688  18.236   1.548  0.1405  0.2403  0.0384
17172W        W33646  12.177   8.396   2.951 -0.0591  0.0974  0.0469
17173W        W33647   8.578   4.463  12.250  0.0192 -0.0834  0.0555
17174W        W33648  18.026  15.168   4.572  0.0998  0.0549 -0.1716
17175W        W33649  10.758  10.922   3.435 -0.2809 -0.2486 -0.2082
17176W        W33650  11.560   9.809   4.555 -0.1270  0.3518  0.1267
17177W        W33651   7.470  16.675   2.517  0.0717 -0.0088 -0.0565
17178W        W33652   4.545   2.694  12.551  0.3053  0.0437  0.0550
17179W        W33653   2.541  14.757  15.378  0.0864  0.3130 -0.1633
17180W        W33654   1.556  16.635   1.465 -0.0911 -0.1473 -0.0025
17181W        W33655  14.689  10.335   5.582  0.5421 -0.0299 -0.1233
17182W        W33656   5.823  10.398  14.589 -0.1242  0.0282  0.1092
17183W        W33657  13.367   9.904  13.796  0.3074  0.0682 -0.1203
17184W        W33658  12.114   6.860   0.882  0.1027 -0.3340 -0.1017
17185W        W33659   3.912   0.365  11.832  0.0402  0.1754  0.2662
17186W        W33660   1.327  13.342  13.647 -0.0481  0.2291  0.1533
17187W        W33661  14.254   2.350   2.002 -0.1893 -0.3517 -0.2283
17188W        W33662   3.249   2.566   0.668 -0.0597  0.0098  0.1853
17189W        W33663  13.639   3.818   3.543  0.2648 -0.2554 -0.1264
17190W        W33664  13.557  14.692   5.371  0.2275 -0.0992  0.0331
17191W        W33665   3.969   6.724   2.129  0.0944  0.4370 -0.1597
17192W        W33666   4.180  12.020   4.162 -0.1519 -0.1010  0.1411
17193W        W33667  17.617   4.850  13.894 -0.2537 -0.0988 -0.0707
17194W        W33668   7.042  17.674  14.544 -0.1480 -0.2846  0.2007
17195W        W33669   1.994   2.088  10.410 -0.1267 -0.4576 -0.1862
17196W        W33670  14.276   1.780   5.895  0.2179  0.2344  0.0725
17197W        W33671   0.256   4.181  15.706 -0.0147 -0.1334  0.3848
17198W        W33672   2.459   8.898   4.035  0.1853 -0.0312 -0.1634
17199W        W33673  14.952   1.635   3.966 -0.5230 -0.0631  0.1639
17200W        W33674  16.413   8.693  14.000 -0.1042 -0.0968  0.1768
17201W        W33675   0.188  16.453  13.536 -0.2645  0.2672  0.0081
17202W        W33676   3.570   6.318   5.398 -0.1044  0.1395  0.2639
17203W        W33677   4.269   6.438  15.558 -0.1467 -0.0596 -0.0771
17204W        W33678   6.680  15.372   3.498 -0.0474 -0.2006  0.2536
17205W        W33679   0.148   3.650   2.978 -0.2028 -0.0660  0.0851
17206W        W33680  13.652   4.672  14.607 -0.1400  0.2036 -0.0291
17207W        W33681   9.062   8.195   2.913  0.1613 -0.0449  0.1547
17208W        W33682   7.918  14.816  15.210 -0.0917  0.0245  0.0820
17209W        W33683   8.934   6.147  14.926  0.2241  0.1986  0.0182
17210W        W33684   6.422   8.950  14.288 -0.2615 -0.0908 -0.1380
17211W        W33685  10.670   7.439   0.272 -0.1664  0.0368  0.2081
17212W        W33686  10.465   0.357   5.126  0.2107  0.0104  0.0898
17213W        W33687  18.076   1.785  15.633  0.0585 -0.1368  0.2312
17214W        W33688   9.943  16.515  14.518 -0.3114 -0.2130 -0.1757
17215W        W33689   3.894   8.718  12.589  0.1188 -0.1885 -0.0508
17216W        W33690  18.068  12.616   3.905 -0.0690 -0.2495  0.3175
17217W        W33691  16.464  10.742  12.863 -0.0941  0.0106  0.0450
17218W        W33692  15.698  14.875  15.421  0.2299 -0.0154 -0.1838
17219W        W33693  12.065  16.933  11.074  0.1346  0.0716 -0.0993
17220W        W33694   8.679   8.483   2.671  0.1828 -0.3273 -0.0364
17221W        W33695  13.582  10.569  10.749 -0.0327  0.0729  0.1901
17222W        W33696   4.194  17.564   5.376 -0.0420  0.1411  0.2309
17223W        W33697  13.541   2.012  14.386 -0.4057  0.1933 -0.2995
17224W        W33698   2.803   2.354   4.445  0.0706  0.0513 -0.0978
17225W        W33699  16.889   7.944  14.408  0.0035 -0.0568  0.3055
17226W        W33700  18.262   5.732   4.277 -0.2192 -0.0909  0.1481
17227W        W33701   5.562   5.299   0.694  0.0641  0.0885  0.1285
17228W        W33702  10.291  17.483   4.723 -0.0734  0.0831 -0.0389
17229W        W33703  12.286   7.676  11.795 -0.0447 -0.3100 -0.1256
17230W        W33704  15.611  16.374  15.690 -0.0095 -0.0994  0.0657
17231W        W33705   1.816   1.495  16.104  0.0516  0.2129  0.0268
17232W        W33706  16.020  15.607   2.831 -0.2101  0.0161  0.0891
17233W        W33707   8.808  14.654   3.289  0.1315  0.2826  0.4315
17234W        W33708   0.584  14.451  12.161  0.0060  0.1173 -0.0197
17235W        W33709  14.396   4.302   3.270 -0.1656  0.0546  0.1385
17236W        W33710  11.868  11.352  12.997 -0.0176 -0.1815  0.0610
17237W        W33711   9.896   2.165   4.985 -0.0231 -0.1896  0.3314
17238W        W33712   6.546   9.894   1.555 -0.0347  0.2657  0.0554
17239W        W33713   1.430   2.842   4.762  0.0382  0.1677  0.0293
17240W        W33714   5.597   4.067   4.818 -0.5655 -0.1512  0.0456
17241W        W33715   2.228  14.830   4.556 -0.1956  0.0094 -0.3171
17242W        W33716   2.952   0.178   3.759  0.1837  0.1597 -0.1546
17243W        W33717  12.140   5.895   4.139  0.1223  0.0037 -0.5908
17244W        W33718   5.199   4.880   1.976  0.1240  0.1223 -0.1194
17245W        W33719   5.844   6.136  14.962  0.0351  0.3804 -0.0760
17246W        W33720  17.062   3.565  11.631  0.3615 -0.2340 -0.0431
17247W        W33721  13.461   6.984   0.615  0.1360  0.0196  0.0391
17248W        W33722   6.139   6.609   4.458  0.0723  0.0686 -0.1222
17249W        W33723   4.684  16.556   4.709 -0.3674  0.1222  0.1314
17250W        W33724  11.895   5.085  15.131 -0.1159  0.0193 -0.1182
17251W        W33725   0.264   8.585  11.164  0.2018 -0.1572 -0.0821
17252W        W33726  17.119  10.192   0.922  0.2475 -0.1964  0.3243
17253W        W33727   0.012   2.246   3.162  0.1284 -0.0340  0.1146
17254W        W33728   6.903   0.345   4.879 -0.0049  0.2216  0.0935
17255W        W33729   5.710  13.038  15.104  0.1511 -0.0766 -0.0776
17256W        W33730  16.287  10.604   2.074  0.0036 -0.2071 -0.1854
17257W        W33731   0.813  11.507  13.647 -0.0262  0.0720 -0.0984
17258W        W33732   0.990  11.982  13.584  0.1665  0.1133 -0.0181
17259W        W33733   0.273   2.170  13.101 -0.0637 -0.1167 -0.1053
17260W        W33734   4.186  16.575   4.651  0.1225  0.0272  0.1437
17261W        W33735  11.251   1.637   1.078  0.1655 -0.2773  0.1578
17262W        W33736  15.546   0.067   3.645  0.1855  0.1289  0.2535
17263W        W33737   3.714   7.140   0.903 -0.1550 -0.1490  0.3300
17264W        W33738   1.438  10.698  13.656 -0.1399 -0.0189 -0.0760
17265W        W33739   0.812   9.045   3.851 -0.0424  0.3734  0.1041
17266W        W33740   6.757   4.774  14.217  0.1704 -0.0470  0.1634
17267W        W33741  12.484  18.179   3.562  0.0185  0.0693  0.2792
17268W        W33742  14.318  10.673   3.352  0.1378 -0.3594  0.2445
17269W        W33743  13.580  12.384  15.836 -0.0159  0.0310 -0.1260
17270W        W33744   3.629   1.685   1.968  0.2415 -0.2902 -0.6375
17271W        W33745   7.376   8.204   2.358  0.1029  0.0351 -0.1465
17272W        W33746  16.419   2.795  11.617  0.2359 -0.2535 -0.0491
17273W        W33747  14.131   0.123  12.986 -0.0699 -0.0558  0.2584
17274W        W33748   3.629  16.037   2.288 -0.0415  0.0722  0.1530
17275W        W33749   9.107  14.933   2.436 -0.0741  0.0266  0.0285
17276W        W33750  17.021   0.842   1.674 -0.4910  0.1325  0.2774
17277W        W33751  16.769  16.760  16.173  0.0029  0.1482  0.3006
17278W        W33752   1.930  13.409   2.637 -0.0308 -0.1917 -0.2167
17279W        W33753   4.843  17.546   3.264 -0.4850  0.0409  0.0010
17280W        W33754   7.283   5.741  14.177  0.0584  0.0075  0.0561
17281W        W33755   4.142  14.690   0.448  0.0656 -0.2305 -0.1536
17282W        W33756  17.890  13.130  16.143  0.1842 -0.0544 -0.1024
17283W        W33757   8.716  11.240   3.676  0.0427 -0.0542 -0.0534
17284W        W33758   4.164   8.553  13.041 -0.3696 -0.3941  0.0999
17285W        W33759   3.784  13.414  15.654  0.0009  0.0381 -0.2108
17286W        W33760   1.840   1.314  15.258 -0.0087 -0.0353  0.0101
17287W        W33761   8.604  12.837   1.565  0.0042 -0.1392 -0.0828
17288W        W33762  10.502  16.472   4.955  0.0324  0.0106  0.0943
17289W        W33763   6.782  15.314  12.670  0.1896  0.0031  0.3548
17290W        W33764  16.123   4.729   0.954  0.0321  0.2001  0.0480
17291W        W33765  11.547   5.627   2.093 -0.5738 -0.2365  0.1690
17292W        W33766   5.377  17.963  13.378  0.0069  0.2046 -0.1589
17293W        W33767   4.460   5.967  15.575 -0.1540 -0.1188 -0.0154
17294W        W33768   8.961   2.207  14.157  0.1219 -0.2925 -0.3490
17295W        W33769  10.859  12.235  13.556  0.0996  0.2515  0.0375
17296W        W33770   3.518   8.517   2.107 -0.0012 -0.1023 -0.1869
17297W        W33771   6.977  11.913  15.856 -0.0109 -0.1707  0.0588
17298W        W33772   4.712  11.014   6.123  0.0490  0.0441  0.0529
17299W        W33773  10.733   6.472   3.367  0.1030 -0.1299  0.1570
17300W        W33774   7.691  11.859   1.642  0.1933  0.0443 -0.0711
17301W        W33775  12.933   8.093  14.723 -0.0288  0.0035  0.1184
17302W        W33776  10.805  15.663   0.695  0.1517  0.0329 -0.3572
17303W        W33777   0.536  10.340  12.170 -0.2517  0.2802 -0.0838
17304W        W33778  15.087  17.612   0.989 -0.1633 -0.0412  0.0660
17305W        W33779  16.239  11.124   5.174 -0.0237 -0.0423  0.1925
17306W        W33780  13.334   1.180   5.324 -0.0148 -0.3187  0.1505
17307W        W33781   2.338   3.161   1.704  0.1466 -0.0197 -0.1834
17308W        W33782   8.142  17.973  13.247  0.0801  0.2062 -0.0103
17309W        W33783   1.145  10.983   2.359 -0.0342  0.3184 -0.1535
17310W        W33784  11.811  11.757  14.826  0.2670  0.0341  0.0626
17311W        W33785   8.420   2.617   4.220  0.3045 -0.2154 -0.0179
17312W        W33786  10.964  18.133   3.084 -0.0072 -0.1943  0.1630
17313W        W33787   0.088  17.129  13.779 -0.2979 -0.0766  0.0718
17314W        W33788  12.315  12.240   4.315  0.2512 -0.0593  0.2758
17315W        W33789   0.123  15.614   5.155 -0.0376 -0.1389  0.1568
17316W        W33790  17.853   5.916   0.455  0.3426 -0.2608 -0.0883
17317W        W33791  13.887   9.301  14.046  0.1990 -0.1053 -0.2617
17318W        W33792  15.350   1.665  15.939 -0.2214 -0.1409 -0.0755
17319W        W33793   1.805  12.769   1.800 -0.2162 -0.0063 -0.0628
17320W        W33794   9.464   3.954  14.120  0.0373 -0.4374 -0.2408
17321W        W33795   6.936  10.392   1.101 -0.3226  0.1558  0.1816
17322W        W33796   4.085   4.635  15.210 -0.0016  0.0109 -0.4488
17323W        W33797  11.778  13.801  12.629 -0.2022 -0.2339  0.1170
17324W        W33798  16.413   7.197  13.815 -0.0192 -0.1179 -0.3809
17325W        W33799  15.837   1.678  12.725  0.0109  0.2094  0.0026
17326W        W33800   3.246  15.627  13.083  0.2960 -0.0077 -0.0192
17327W        W33801  17.154   0.199   5.410 -0.0339  0.1856 -0.0982
17328W        W33802  17.083  10.573  15.479  0.0938  0.1266 -0.3141
17329W        W33803   2.938   6.702   3.305  0.0045 -0.0193 -0.0359
17330W        W33804   3.601   2.033  14.995  0.0037 -0.3467  0.1497
17331W        W33805  13.696  11.447   1.137 -0.5599  0.1589 -0.1437
17332W        W33806  18.333  13.758  14.837  0.0370  0.2405 -0.1538
17333W        W33807  10.340  13.914  11.825  0.1801  0.1201 -0.0019
17334W        W33808  11.775  14.276   0.847  0.0205  0.0585  0.1347
17335W        W33809   4.727  14.161   3.603  0.2133  0.0643  0.0807
17336W        W33810  13.060   6.046   5.371 -0.0961 -0.1885  0.1720
17337W        W33811  15.509   3.411  13.806  0.2164 -0.2194 -0.1148
17338W        W33812   6.942  10.924  11.443  0.3577  0.0909 -0.3340
17339W        W33813   0.565   1.589  12.529 -0.3462  0.0594  0.1198
17340W        W33814   7.853   3.278  14.237  0.0628  0.0407  0.0149
17341W        W33815  13.699   4.608  12.233  0.0266  0.4035 -0.3232
17342W        W33816   1.234  12.734   4.710  0.0859 -0.0726 -0.1305
17343W        W33817   3.350   9.559   3.475 -0.0414 -0.1158  0.0154
17344W        W33818  12.157   0.559  13.704  0.1618 -0.0829 -0.0481
17345W        W33819  10.257  14.098  10.931  0.1524 -0.1710 -0.1749
17346W        W33820  10.059  11.979  12.655  0.0312  0.0517 -0.1067
17347W        W33821   9.973  17.912   3.056  0.1283  0.0178 -0.1449
17348W        W33822   5.028  10.921  15.064 -0.1947 -0.1419 -0.2207
17349W        W33823  12.880  12.457  14.489 -0.1995 -0.3226  0.4593
17350W        W33824   2.781  15.058   5.246  0.2948  0.1596 -0.1255
17351W        W33825   6.904  11.858  14.030  0.3195 -0.1802 -0.2482
17352W        W33826   0.494  10.544  13.050 -0.0353 -0.1545 -0.0704
17353W        W33827  13.378   5.746  12.977 -0.2282 -0.2965 -0.2306
17354W        W33828   6.555   9.615  16.183 -0.0100 -0.0387 -0.4280
17355W        W33829  15.675   3.554  15.253  0.2714  0.1662  0.1709
17356W        W33830  18.240  13.936  11.895 -0.0095 -0.1180  0.0973
17357W        W33831  12.094  16.063  12.507  0.0562 -0.0483 -0.0473
17358W        W33832   2.586  10.137  16.067  0.0082 -0.2026 -0.2349
17359W        W33833   1.163  10.792   1.712 -0.1839  0.1425  0.1261
17360W        W33834  16.655   2.412  11.831 -0.6133 -0.4279 -0.3796
17361W        W33835  17.795  11.478   0.160  0.1741 -0.0306  0.0046
17362W        W33836  14.365   0.462   3.395 -0.4975  0.0490  0.0630
17363W        W33837   2.924   0.795  14.519 -0.1557 -0.1488 -0.1175
17364W        W33838  17.650  12.557   5.240 -0.0521 -0.0902 -0.0966
17365W        W33839   7.573  17.137   1.557 -0.2655  0.0179 -0.2281
17366W        W33840  10.003  14.528  13.406  0.2412 -0.1125 -0.0220
17367W        W33841   3.318   8.094   1.909 -0.0420  0.0554 -0.1517
17368W        W33842   6.365   8.520   4.545 -0.0302 -0.0679 -0.0611
17369W        W33843   4.479  11.343   0.205 -0.0836 -0.3515  0.1195
17370W        W33844  11.910   1.376  15.124  0.2184  0.2782  0.0746
17371W        W33845   7.734   1.952  14.817 -0.3603  0.0677 -0.0339
17372W        W33846   2.801   3.304   1.650  0.0932  0.1770  0.2139
17373W        W33847  16.163   7.850   0.709  0.0455  0.0825  0.0582
17374W        W33848   3.035   0.009   0.401  0.2663 -0.0416  0.1784
17375W        W33849  17.387  13.912   1.089 -0.2792 -0.0760 -0.1562
17376W        W33850   9.608  10.099  14.731  0.0619  0.3115 -0.3673
17377W        W33851   9.095  17.528  15.673 -0.1717  0.1609 -0.0778
17378W        W33852  14.967  10.247   3.641  0.0425 -0.2340  0.0585
17379W        W33853  16.921   4.389   1.372 -0.1688 -0.0277  0.1038
17380W        W33854  18.056   2.979   0.500 -0.0857  0.1016 -0.2976
17381W        W33855   6.553  10.843   0.489  0.2749 -0.0913  0.3720
17382W        W33856   9.002  16.969   0.999 -0.0815  0.3076  0.0949
17383W        W33857  15.024  16.889  11.410  0.0067 -0.1584 -0.1770
17384W        W33858   6.542   6.813  11.547 -0.1736  0.1281 -0.1064
17385W        W33859   2.649  12.932  14.433  0.2250  0.1818  0.1057
17386W        W33860   5.863   9.466   4.002 -0.3276  0.3374 -0.3186
17387W        W33861   1.614  16.189  12.036  0.3136  0.1001  0.1110
17388W        W33862   1.499   3.719   4.115 -0.2666 -0.1309  0.6941
17389W        W33863   2.447   1.983   3.281 -0.0683  0.0501 -0.0523
17390W        W33864   5.871   9.839   3.096  0.1098  0.1755 -0.0396
17391W        W33865   0.600   3.639  11.634  0.1286  0.1798  0.0457
17392W        W33866   6.464  15.596   5.806 -0.1544 -0.1632  0.3573
17393W        W33867  15.545   8.990  10.718 -0.0988 -0.1109 -0.1229
17394W        W33868  11.631  14.939   4.237  0.0435 -0.1467  0.2207
17395W        W33869   1.763  15.487  15.463 -0.0624  0.0026 -0.1398
17396W        W33870   9.593   5.070  11.336  0.0538 -0.1313 -0.1640
17397W        W33871   1.821  13.447   4.422 -0.0161 -0.0226 -0.1280
17398W        W33872  13.037  10.361   6.034 -0.0569  0.1597  0.1263
17399W        W33873   6.751   7.992   5.970 -0.0128 -0.0268 -0.2085
17400W        W33874  15.974   1.257  15.979  0.1229 -0.1503  0.1319
17401W        W33875   6.763  17.003  12.235 -0.1079 -0.0378  0.1188
17402W        W33876  15.063  16.030   3.225 -0.0636 -0.3933 -0.0593
17403W        W33877   7.065   0.140   0.273  0.0376 -0.5903 -0.1504
17404W        W33878  10.583  12.890   4.319 -0.2393 -0.2081 -0.1445
17405W        W33879  14.161  13.604  12.167  0.0113 -0.0676 -0.1265
17406W        W33880  16.434  17.016  14.727 -0.1824  0.3488  0.0943
17407W        W33881   3.859   5.175   0.798 -0.2217  0.2840 -0.0021
17408W        W33882   6.574   6.493   4.202 -0.0386 -0.1310  0.2556
17409W        W33883   3.373   2.343   5.593 -0.1564  0.0897  0.2275
17410W        W33884  14.085  18.257   2.787 -0.1268  0.1791 -0.0664
17411W        W33885   4.778   1.296  14.797 -0.3519  0.0479 -0.2911
17412W        W33886  14.944  14.394   2.587  0.0341  0.0576  0.1832
17413W        W33887   8.828   6.436   0.235 -0.0537 -0.2171 -0.1731
17414W        W33888  10.942   2.874  15.648 -0.0215 -0.5349  0.1583
17415W        W33889   6.340   4.555  11.902  0.1462  0.0549  0.0854
17416W        W33890   5.610  12.779  15.931  0.0653 -0.1610  0.4071
17417W        W33891  11.872  18.116  12.422  0.0201  0.0769  0.1312
17418W        W33892  11.372  17.972  14.761 -0.0061  0.2388 -0.4396
17419W        W33893  13.117   3.792  12.147 -0.0367 -0.6043 -0.1287
17420W        W33894  10.137   7.207  10.653  0.0636  0.0871  0.0862
17421W        W33895   8.724   9.549  13.243  0.0427  0.1905 -0.2833
17422W        W33896   7.518   3.262  15.061  0.2804 -0.0132  0.0281
17423W        W33897   2.279   6.798   1.175  0.0746  0.1628 -0.0539
17424W        W33898  12.901   2.900  10.741  0.0285  0.0748 -0.0886
17425W        W33899   9.242   2.924   5.353  0.0051 -0.0537 -0.2124
17426W        W33900  11.884   8.417   4.668  0.0550 -0.1438 -0.1306
17427W        W33901  11.554  13.049   4.530  0.0555  0.1463  0.0341
17428W        W33902  15.450   4.012  11.179  0.0195  0.0724 -0.0212
17429W        W33903   3.494   6.087   2.786 -0.0030  0.4944  0.2285
17430W        W33904   4.154   3.483  11.400 -0.0812 -0.0322  0.0283
17431W        W33905  13.114  15.961  12.545  0.0760  0.1544 -0.0397
17432W        W33906  18.166   3.695   5.703 -0.3414 -0.0956 -0.2272
17433W        W33907   2.647  17.318  12.878 -0.0973  0.3037  0.0845
17434W        W33908  10.346   8.496   2.811  0.0323  0.0669 -0.3822
17435W        W33909   1.483   7.242   2.895 -0.4815 -0.0417  0.2137
17436W        W33910  11.448  13.480  15.660  0.0909 -0.0069  0.3221
17437W        W33911   8.407   2.435   1.026 -0.0029 -0.2767  0.0563
17438W        W33912   7.297  18.365   2.587  0.0278 -0.2313  0.2145
17439W        W33913   0.204  13.238  14.275  0.0872  0.0879 -0.3908
17440W        W33914  10.235  13.325  14.875 -0.1644 -0.1526 -0.0052
17441W        W33915   1.314  15.250   3.228  0.2684  0.1070  0.1385
17442W        W33916   1.249   8.482   3.456  0.2707 -0.0491  0.1661
17443W        W33917  14.764   7.207  15.361 -0.0241  0.1648 -0.1243
17444W        W33918   3.351  13.374  13.231 -0.2078  0.0325 -0.3039
17445W        W33919   2.248   3.216   6.225  0.0521  0.0490  0.0612
17446W        W33920  18.200   5.104  15.713  0.2587 -0.5243 -0.0248
17447W        W33921   2.010   3.717   0.077  0.2190 -0.0530  0.0407
17448W        W33922   2.190  16.033  12.269  0.0934 -0.0477  0.2497
17449W        W33923   0.352  16.388   3.282  0.0060  0.2861 -0.3388
17450W        W33924   7.434  17.045  14.358 -0.1823 -0.0254 -0.0027
17451W        W33925   3.860  15.737   0.424 -0.0100  0.0465 -0.0905
17452W        W33926  17.821   7.562   4.843  0.1428 -0.0213 -0.0775
17453W        W33927   9.764   8.890  12.845  0.2671  0.0169 -0.1224
17454W        W33928  12.000   4.490  14.513 -0.0600 -0.1543 -0.2824
17455W        W33929  16.000  16.165  12.940  0.1154 -0.3203 -0.2513
17456W        W33930   3.806  13.592  13.300  0.1310  0.2528  0.1330
17457W        W33931   7.863   4.821   4.745  0.2993  0.0974 -0.1919
17458W        W33932   1.818  10.208   2.872  0.3443  0.3590  0.1702
17459W        W33933   8.352   9.369   3.761  0.1736  0.0367  0.0166
17460W        W33934   7.240  13.890   0.985 -0.0870 -0.3955 -0.0711
17461W        W33935  11.331   8.493  11.723 -0.0477  0.3437 -0.3778
17462W        W33936   7.263  11.272  13.866  0.1243  0.1090  0.0436
17463W        W33937  12.307  16.867  14.608 -0.1172  0.2036  0.2518
17464W        W33938  10.227   2.045   0.532  0.1149  0.1829  0.3889
17465W        W33939   9.306   5.508  11.186 -0.1279 -0.0237  0.1243
17466W        W33940   3.221   6.248  11.813 -0.1694  0.1610  0.0636
17467W        W33941   0.045  12.037  15.905  0.0071  0.1249 -0.1646
17468W        W33942   6.696   0.730   3.570  0.1661 -0.2621  0.1462
17469W        W33943  14.097   7.506   4.588 -0.0439 -0.2548 -0.1099
17470W        W33944  16.211   7.622  13.981  0.1505 -0.0053 -0.1994
17471W        W33945   9.508   1.654   0.730  0.2075 -0.0549 -0.0182
17472W        W33946   8.373   1.971   3.981 -0.2516 -0.1607  0.1806
17473W        W33947  18.200   0.352   2.667  0.2793  0.3158 -0.1233
17474W        W33948  14.391  15.686   0.544  0.0372  0.0952  0.1873
17475W        W33949  14.375  14.400  14.778  0.0157 -0.1550  0.1775
17476W        W33950   5.438  13.525   5.213  0.1790 -0.0040 -0.1702
17477W        W33951   8.383  14.237   1.427 -0.1825 -0.0784  0.0195
17478W        W33952   6.906   9.649  14.979 -0.1149 -0.1248  0.2015
17479W        W33953   2.630   0.738  12.791 -0.3276  0.0048  0.0879
17480W        W33954   2.844  17.110   4.410  0.0726  0.0017  0.0880
17481W        W33955  10.796  11.254   2.255  0.1423 -0.0008  0.0453
17482W        W33956  16.768  17.027   4.653 -0.0186  0.4118  0.1699
17483W        W33957   5.881   9.385   3.386  0.2288 -0.0681 -0.2587
17484W        W33958  11.835   1.825   2.142  0.1286 -0.2347  0.1240
17485W        W33959   8.862  13.941  11.852  0.3101  0.1920  0.0036
17486W        W33960   0.784   1.535   5.956  0.1422 -0.1894  0.0877
17487W        W33961   2.667  12.447  14.193 -0.0312  0.4989 -0.2586
17488W        W33962   3.242   3.114   1.483 -0.3882  0.3136  0.1737
17489W        W33963  16.556   6.795   0.395  0.1905  0.1222  0.1536
17490W        W33964  11.581   9.732  12.446  0.1844  0.2163 -0.1725
17491W        W33965   4.968  15.811  12.520 -0.1997  0.0969  0.0828
17492W        W33966  17.922   9.899  14.192 -0.3572  0.6025  0.4377
17493W        W33967  17.833  16.684  15.001 -0.0728 -0.0042 -0.0153
17494W        W33968   1.637  17.198   1.535 -0.1346  0.3358 -0.0424
17495W        W33969   6.730  10.126  14.953  0.0031 -0.0151 -0.2041
17496W        W33970   9.940   7.254  12.253 -0.0603  0.0809 -0.2069
17497W        W33971  17.164  15.394  11.644  0.0352  0.3402  0.2215
17498W        W33972   0.108  14.286  12.228 -0.0242 -0.0019  0.0163
17499W        W33973  11.862   9.734  11.422 -0.0164  0.1181  0.0402
17500W        W33974   2.336   7.020   5.088  0.0293  0.1459  0.0640
17501W        W33975  16.486   9.470  11.204  0.0951 -0.3325  0.1177
17502W        W33976  14.584   5.123  13.400  0.1098  0.0356  0.0568
17503W        W33977   1.283  11.257   1.968 -0.2201 -0.0144 -0.1645
17504W        W33978   7.051   2.969   2.074  0.2054  0.0435 -0.0181
17505W        W33979  13.529   3.731  13.500  0.1217  0.0739  0.2292
17506W        W33980  16.283  17.254  14.299  0.0776  0.0542 -0.1444
17507W        W33981   0.229  11.947   0.522 -0.0098 -0.0513  0.1110
17508W        W33982   7.155   2.808   5.827  0.1736 -0.3445  0.1464
17509W        W33983   0.149   0.722   3.453  0.1066 -0.1200 -0.1972
17510W        W33984   6.167  13.222  14.456  0.1605  0.0077 -0.1090
17511W        W33985   3.693  12.237  16.163 -0.0408 -0.0348  0.1812
17512W        W33986  12.105  12.083   2.073  0.0685  0.1228 -0.0418
17513W        W33987  11.326   9.447   2.704 -0.0184 -0.2882  0.0504
17514W        W33988   0.540  10.285   6.067 -0.1097 -0.1418 -0.0371
17515W        W33989  10.723   3.008   0.650 -0.2725 -0.0443  0.0251
17516W        W33990   3.553   2.933  13.338 -0.0920  0.3038  0.0195
17517W        W33991  16.387   8.280  13.676 -0.1073  0.0774  0.1015
17518W        W33992  12.556   7.403   2.607 -0.0960 -0.3058  0.0926
17519W        W33993   5.505  17.860   5.852 -0.2556  0.3093  0.0580
17520W        W33994   3.660   5.080  12.603  0.1267 -0.0228 -0.1522
17521W        W33995  10.854   7.239  11.438  0.1409  0.1754 -0.1229
17522W        W33996  17.097  10.903   5.699  0.2966  0.0658  0.3481
17523W        W33997   1.978  17.585   4.261 -0.2781  0.2958  0.1193
17524W        W33998  10.679   9.910   0.807 -0.0015  0.2605 -0.2145
17525W        W33999  12.603  14.043   0.428 -0.2018 -0.2428 -0.0737
17526W        W34000   8.934   2.002  13.425 -0.2368 -0.3064  0.0641
17527W        W34001   0.482   5.928   3.545  0.1454 -0.2646  0.3155
17528W        W34002   7.682   2.483  13.793  0.4485  0.0041  0.2088
17529W        W34003   1.343   4.532  15.793  0.0286  0.0469  0.0396
17530W        W34004  18.339   7.943   3.766  0.1310  0.0598  0.0406
17531W        W34005   1.090  15.865  15.103  0.0173  0.0660 -0.2329
17532W        W34006  11.703  14.620   1.289  0.0428 -0.1092  0.0575
17533W        W34007   1.940   6.668   0.822 -0.0341  0.1541  0.2111
17534W        W34008  17.649  15.743  15.708  0.0255  0.0567  0.0537
17535W        W34009   5.299   4.363   3.579  0.1378 -0.0489 -0.1679
17536W        W34010  16.709  11.144  16.320 -0.1270 -0.0216  0.4832
17537W        W34011  17.732   2.491   2.724  0.0333  0.0700 -0.2570
17538W        W34012  16.497  12.800  11.854  0.0500 -0.2408  0.4182
17539W        W34013   6.854   6.482  11.285  0.2591 -0.0866 -0.1975
17540W        W34014  10.788   3.739  14.012 -0.0398 -0.2532  0.0973
17541W        W34015   4.133   1.471  12.190  0.2256  0.2387  0.2254
17542W        W34016  13.638   7.678   4.540  0.0322 -0.4388  0.1440
17543W        W34017   5.747   6.272  13.101  0.1724  0.0683 -0.0365
17544W        W34018   8.348   9.952   0.907  0.0211 -0.0534 -0.2562
17545W        W34019  12.116  13.541  12.855 -0.1473  0.2285 -0.1808
17546W        W34020  14.278  11.261   1.928 -0.3444 -0.0479 -0.1261
17547W        W34021   8.207  17.341  12.629  0.0217 -0.3141 -0.0783
17548W        W34022   4.585   3.366  14.875  0.2067 -0.2135 -0.0788
17549W        W34023  16.402   7.101  12.925  0.2665  0.1147 -0.0196
17550W        W34024  15.998   7.122   2.372  0.0226  0.3081  0.1808
17551W        W34025   6.965  18.132  16.337 -0.3379  0.1538  0.1154
17552W        W34026   0.258  11.026   2.826  0.3609  0.3206 -0.0651
17553W        W34027  10.707   5.684  12.734  0.1087  0.2450  0.0308
17554W        W34028   2.821   0.212   3.070  0.0930  0.0606  0.0273
17555W        W34029   7.198  10.155   0.196  0.0825 -0.0957  0.0970
17556W        W34030   3.678  12.145   1.800  0.0617 -0.4400 -0.1837
17557W        W34031   1.223  12.717   0.769 -0.3392 -0.0020  0.1306
17558W        W34032   3.416  11.843  14.008 -0.0113  0.0695 -0.1269
17559W        W34033   6.939   2.411   1.606  0.0218 -0.3285  0.1258
17560W        W34034   4.969  15.189   5.074  0.0439 -0.3450 -0.0356
17561W        W34035  11.168   3.760   3.949 -0.1646  0.0656  0.0796
17562W        W34036   0.898  16.803  16.104 -0.1418  0.3111  0.0560
17563W        W34037  11.075   7.639   1.837 -0.0913  0.1670 -0.2621
17564W        W34038  11.742  12.079  11.361 -0.2299  0.2875  0.0128
17565W        W34039  13.281   9.243  12.318 -0.1411 -0.1835 -0.0062
17566W        W34040   9.442  16.952   3.590 -0.0529 -0.1359 -0.2036
17567W        W34041  11.757   1.008  13.619 -0.0300 -0.0158  0.3278
17568W        W34042   7.640  11.061   4.064  0.1027  0.4331  0.0726
17569W        W34043  12.629  17.759  13.050 -0.3718  0.0009 -0.2027
17570W        W34044   3.952   1.697   4.696  0.1144  0.0081 -0.3925
17571W        W34045  17.407   1.608  16.201  0.1188 -0.1495 -0.0819
17572W        W34046   6.112   0.846   5.567 -0.0608  0.3773  0.0109
17573W        W34047  11.506  10.333   4.719  0.0957  0.1504  0.0099
17574W        W34048   7.330   7.411   1.748  0.4747  0.2869  0.1506
17575W        W34049  12.405  15.585   4.538 -0.2720 -0.0741 -0.1354
17576W        W34050   2.493  16.904   0.658 -0.1546 -0.0372 -0.1275
17577W        W34051   2.348  11.536   5.908 -0.3642 -0.3151  0.1544
17578W        W34052   5.712  18.055  13.948 -0.1355  0.1221 -0.1048
17579W        W34053  17.171   1.187  16.052 -0.1701  0.3736  0.0323
17580W        W34054  18.159   7.276   0.761  0.0590 -0.1637 -0.0336
17581W        W34055   7.423   1.464   0.419 -0.3792 -0.0748  0.1020
17582W        W34056  12.743  10.268  11.151  0.0518 -0.3927  0.0794
17583W        W34057  11.950   3.626   2.185 -0.2329 -0.1312 -0.0829
17584W        W34058  15.739  12.160   2.487 -0.2651  0.0580  0.2177
17585W        W34059  14.524   9.913  14.040 -0.1566  0.1150 -0.0443
17586W        W34060  17.708  14.584   4.871 -0.0561 -0.3553  0.1227
17587W        W34061  13.831  11.844  12.987  0.1707 -0.0918 -0.1500
17588W        W34062  14.073   1.975  13.224 -0.1412 -0.0057 -0.1275
17589W        W34063   9.119  12.642   3.668 -0.0296  0.0342 -0.0069
17590W        W34064  13.574  12.784   4.629 -0.1009 -0.1359 -0.0584
17591W        W34065   7.543  12.523  16.206 -0.2618  0.4209  0.2655
17592W        W34066  15.991   0.904   3.708  0.1614 -0.2093  0.0215
17593W        W34067  14.756  17.547   2.558  0.2336  0.5824 -0.1782
17594W        W34068   8.210  18.044   2.963  0.2234 -0.2867 -0.2439
17595W        W34069   8.980   3.821   3.876 -0.1411  0.2788 -0.1533
17596W        W34070  16.623  11.521   2.404  0.1075  0.1698  0.1041
17597W        W34071   0.312  15.704  15.308  0.4381  0.3320 -0.2317
17598W        W34072   1.854   4.105  14.566 -0.3948  0.0685  0.2027
17599W        W34073   4.938  16.310   5.675 -0.3458 -0.3111 -0.0087
17600W        W34074   1.150  17.196  16.002 -0.2500  0.0015  0.2132
17601W        W34075   0.930   8.429  12.850  0.1784  0.1970 -0.1241
17602W        W34076   3.765  17.689   1.445 -0.0719 -0.3229  0.1048
17603W        W34077   1.861   4.032   1.386  0.0322  0.4413 -0.1645
17604W        W34078  14.708   9.055  14.719  0.0761 -0.0139  0.3991
17605W        W34079   0.160   4.291  16.188 -0.1862  0.1555 -0.0746
17606W        W34080   5.591  14.137  14.971  0.0318  0.0915 -0.2255
17607W        W34081   0.453   4.212  14.731 -0.0749 -0.0762  0.3862
17608W        W34082  13.691  14.158  13.028  0.2823  0.0908  0.0901
17609W        W34083  15.437  10.283   1.196 -0.0787  0.2012 -0.0151
17610W        W34084   2.141   7.426  15.533  0.0339  0.0504  0.0580
17611W        W34085   7.339  10.498  15.591  0.1039 -0.4309 -0.0349
17612W        W34086   5.663   4.258   1.957 -0.0063  0.0577 -0.2125
17613W        W34087  14.796  14.416  13.437  0.1861 -0.3614 -0.2992
17614W        W34088   0.085  10.450  12.641 -0.2199  0.0840 -0.4264
17615W        W34089   7.658  11.316   0.166 -0.0939 -0.0685 -0.0072
17616W        W34090   0.271  14.312  12.746  0.2108 -0.0324  0.3226
17617W        W34091   5.117  14.635  13.612 -0.4244 -0.1179  0.1602
17618W        W34092  11.249   6.932  15.406 -0.1148  0.2440  0.0628
17619W        W34093   0.230   3.680   1.973 -0.0908 -0.2902 -0.1495
17620W        W34094  16.644  18.224   4.063 -0.0796  0.1728  0.1472
17621W        W34095  14.029   6.908   0.599 -0.2186  0.2550 -0.0208
17622W        W34096  13.037   6.317   1.774 -0.3111 -0.1917  0.2332
17623W        W34097   7.544  14.658  15.527  0.1971 -0.1294  0.0889
17624W        W34098   4.538  14.744   3.353  0.1085 -0.1197  0.0358
17625W        W34099  14.711   6.859  12.059 -0.1285  0.0509  0.0702
17626W        W34100  17.286   5.338   4.748  0.1972  0.1333 -0.1896
17627W        W34101  10.074  14.268   1.360  0.0173  0.6094  0.0908
17628W        W34102   1.641   8.422   2.509  0.2256 -0.0038  0.2286
17629W        W34103   1.686  10.119   2.006  0.1338  0.0940  0.1882
17630W        W34104   0.135  16.540   4.592  0.0101  0.2000  0.0986
17631W        W34105  14.972   9.432  16.325  0.1950  0.1303 -0.2854
17632W        W34106   9.465  11.698  13.859 -0.0621 -0.2483 -0.1589
17633W        W34107   3.888   7.678  16.340  0.1960  0.4101  0.1917
17634W        W34108  17.714   9.468  10.578 -0.2424 -0.3234  0.1815
17635W        W34109   4.791  11.667   1.865  0.0211 -0.2085 -0.0643
17636W        W34110  13.453   1.689   1.496 -0.0679 -0.1611 -0.0187
17637W        W34111   7.984   5.210   0.198 -0.3213 -0.3772 -0.1463
17638W        W34112   6.497  13.873   0.672 -0.0605 -0.0671 -0.3532
17639W        W34113   6.210   7.527  14.890 -0.1798 -0.0034 -0.0324
17640W        W34114   5.973  10.620   3.057  0.2380 -0.2378  0.1260
17641W        W34115  12.699  14.636  12.312  0.0307 -0.3053  0.2145
17642W        W34116  15.507   3.679  12.742  0.1930  0.3423 -0.0933
17643W        W34117  11.717   8.634   5.139 -0.2315  0.0017  0.0993
17644W        W34118   7.455   9.908  12.717  0.0689  0.5564 -0.0394
17645W        W34119   6.147  16.695  14.368  0.0299 -0.0888  0.0733
17646W        W34120  16.963  11.178   1.579  0.0873  0.1839  0.1972
17647W        W34121  10.921   7.954   2.195  0.0170 -0.3556  0.3860
17648W        W34122  16.259   2.108  14.359 -0.0978 -0.1105 -0.0195
17649W        W34123  15.727  15.434  15.184 -0.0015 -0.0764  0.0699
17650W        W34124   5.308   5.145  13.805  0.4474  0.1142  0.4349
17651W        W34125   8.212   8.823  11.674  0.2766  0.0801 -0.0253
17652W        W34126  16.427   0.782  13.347  0.2864 -0.2582  0.1344
17653W        W34127   1.343   1.608   6.348 -0.0610 -0.2452  0.2595
17654W        W34128   3.306  11.423   6.138 -0.0363  0.1271 -0.2340
17655W        W34129  11.307  18.303   3.971 -0.0657 -0.0306 -0.0328
17656W        W34130  12.596  16.806   2.224  0.0340 -0.1551 -0.0776
17657W        W34131  17.064   6.243  11.155  0.0437  0.0310  0.1274
17658W        W34132   3.025  16.478  15.313  0.2169 -0.1743  0.0281
17659W        W34133  16.524  17.230   3.328  0.0376  0.1550  0.3999
17660W        W34134   6.996   5.624  11.988  0.0320  0.3144 -0.2166
17661W        W34135  16.824  18.076  13.965 -0.0440 -0.2057  0.0541
17662W        W34136   8.663  13.826   4.970  0.0656 -0.1944  0.2918
17663W        W34137   0.799   4.171   4.587  0.2359 -0.0146  0.3423
17664W        W34138   4.716  14.510  12.076  0.3095 -0.1927  0.2690
17665W        W34139  17.805   1.479   2.471 -0.1343  0.3468  0.1366
17666W        W34140  12.725   5.601   0.164  0.0419 -0.1517 -0.1605
17667W        W34141  10.984  11.287  14.075 -0.0681  0.0417 -0.1210
17668W        W34142   1.826  11.132  15.220 -0.1769  0.0543  0.4292
17669W        W34143  11.245  10.713   3.445 -0.2429  0.0044  0.1578
17670W        W34144   0.219   8.967   4.074 -0.3378  0.2065  0.1175
17671W        W34145  17.400   2.499  15.497  0.1734  0.0039  0.2949
17672W        W34146   9.696  14.971  14.731  0.0198 -0.0123  0.4112
17673W        W34147  15.510  10.361  15.632  0.0119  0.0296 -0.0215
17674W        W34148  10.631  17.189   2.738 -0.1661 -0.1268 -0.0529
17675W        W34149   5.952   3.262  15.440 -0.2845 -0.1463  0.2228
17676W        W34150  18.317   2.743  15.826  0.2751  0.0744  0.1760
17677W        W34151  17.856  10.122   3.359 -0.1972 -0.1053  0.1623
17678W        W34152   8.137  13.797   1.288 -0.1516  0.2626 -0.2615
17679W        W34153  15.636   0.744   1.998  0.3273 -0.1141 -0.0702
17680W        W34154   2.194  16.094   3.010 -0.3419  0.0181 -0.3635
17681W        W34155   0.792  12.121  15.453  0.1444  0.0015  0.0745
17682W        W34156  13.973  17.001   5.189 -0.0432 -0.1808  0.1015
17683W        W34157   2.990   9.858  11.392  0.0842 -0.0535 -0.2908
17684W        W34158  13.942   4.425  15.979 -0.4685 -0.0145  0.3876
17685W        W34159   1.823   0.613   2.047 -0.1930 -0.1335  0.2334
17686W        W34160   9.469  12.147   2.862 -0.0657  0.1603  0.0743
17687W        W34161   0.270  10.740   1.764 -0.3235  0.0011  0.0753
17688W        W34162  10.277  12.283  11.899  0.1774 -0.0287  0.0028
17689W        W34163   3.610  11.756   2.134 -0.0783  0.1508  0.2335
17690W        W34164   7.124   9.522   4.314 -0.0992 -0.2955  0.0192
17691W        W34165   7.739   1.280  13.560  0.2731 -0.1011 -0.0565
17692W        W34166  12.920   9.328  16.089  0.1507 -0.0256 -0.2071
17693W        W34167   7.660  13.828  14.346 -0.2361 -0.1320  0.3333
17694W        W34168  10.712   0.922   1.771 -0.1578  0.3232  0.2255
17695W        W34169   7.351   7.004  14.208  0.0889  0.1384 -0.1786
17696W        W34170  16.238  11.005   3.382 -0.1719  0.3843 -0.0398
17697W        W34171   4.607  10.047   0.822  0.4486  0.0612 -0.0697
17698W        W34172  12.828  15.569   1.833  0.4097  0.0636 -0.1020
17699W        W34173  12.181  10.779   5.909  0.2898  0.0568  0.1056
17700W        W34174   3.450  13.175  14.612  0.0981  0.2102 -0.2526
17701W        W34175   6.420   2.209  13.367 -0.1266 -0.1116  0.0214
17702W        W34176   5.193  17.571   2.108  0.2565 -0.2586  0.0917
17703W        W34177  16.585   8.324   2.275 -0.2270 -0.1670  0.1242
17704W        W34178  17.485  17.299  15.515  0.0927 -0.0387  0.1109
17705W        W34179   3.736   2.900  11.971  0.2527 -0.3707 -0.1243
17706W        W34180   0.457   6.853   5.603  0.2436 -0.0304  0.2461
17707W        W34181   5.352  15.025   1.314  0.2415  0.1246  0.0919
17708W        W34182   8.472  15.801  16.177 -0.1286 -0.1247  0.0102
17709W        W34183   7.111   7.330  15.521 -0.4687  0.0460 -0.1863
17710W        W34184   4.635   5.209   0.446  0.0628 -0.0651 -0.1906
17711W        W34185  13.799   7.163  15.175  0.2962 -0.0423  0.0887
17712W        W34186   6.568   0.911   2.268  0.2503 -0.5172  0.1246
17713W        W34187   4.682   6.790   2.409  0.0602 -0.0675  0.0591
17714W        W34188   9.415   6.701   2.607  0.0404 -0.1432  0.1408
17715W        W34189  11.034   5.812   5.048  0.0903  0.1378 -0.3513
17716W        W34190  18.322   7.992   1.070  0.0765 -0.0903  0.1238
17717W        W34191  15.889  11.774  14.231  0.2090 -0.0073 -0.3058
17718W        W34192  12.387   0.250   3.294  0.1595 -0.1742 -0.1397
17719W        W34193   9.728   4.347   3.810 -0.0862 -0.0913  0.0914
17720W        W34194   0.050  12.564   1.270  0.2249 -0.1982 -0.1390
17721W        W34195   0.182   0.642  16.005  0.5155  0.1156  0.1149
17722W        W34196   6.474   7.695  11.968  0.1285 -0.2360 -0.0197
17723W        W34197  16.333  10.657  12.242  0.0820  0.4006  0.0894
17724W        W34198   8.612   7.642  14.179 -0.1078 -0.0280  0.2196
17725W        W34199   7.329   1.989   1.391  0.0551 -0.0225  0.1636
17726W        W34200   0.864   3.162   1.254 -0.3269  0.0198  0.1041
17727W        W34201   7.758   8.902   4.299 -0.4163  0.3064 -0.1220
17728W        W34202  15.332   5.815  14.703 -0.1560 -0.2759  0.1744
17729W        W34203   2.406  13.282   0.606 -0.2281  0.0140 -0.6547
17730W        W34204  14.508  13.618  13.590 -0.2070 -0.1601  0.1173
17731W        W34205  14.943   2.366  14.296  0.2676 -0.1772  0.1650
17732W        W34206   0.103  15.472   1.836  0.2272 -0.4171  0.0443
17733W        W34207   6.390  16.245  14.497 -0.1510 -0.1224 -0.0840
17734W        W34208   4.229   7.447  15.869  0.0016  0.0170  0.0056
17735W        W34209  12.121  16.776  15.067  0.2358 -0.1283  0.0499
17736W        W34210   4.070  11.084   5.640  0.1397 -0.0846  0.0921
17737W        W34211  14.830   5.844  11.018 -0.0493 -0.1241 -0.1988
17738W        W34212   3.143   5.808   1.983  0.4355  0.3186 -0.4178
17739W        W34213   9.969  17.830  13.812 -0.0705  0.2051 -0.0516
17740W        W34214  12.575   8.241  14.392  0.1805 -0.1470 -0.1518
17741W        W34215  15.557   8.288  12.552  0.2813 -0.1452  0.0559
17742W        W34216  13.700  14.929   2.855  0.2539 -0.2236  0.0823
17743W        W34217  10.205  13.340   0.283  0.2265 -0.3516 -0.0103
17744W        W34218  18.165   5.629   4.889  0.1764  0.0335  0.3641
17745W        W34219   6.330   2.902   2.431  0.2109 -0.1256 -0.6209
17746W        W34220  11.918  10.249   1.297 -0.1863 -0.0403 -0.2826
17747W        W34221   3.489   5.773  14.497 -0.1500 -0.0436  0.0396
17748W        W34222   6.722   7.231   2.941  0.2545  0.1269 -0.2600
17749W        W34223   0.130  14.222  15.762  0.2834  0.0180  0.3620
17750W        W34224  18.012   3.697   1.348  0.1273  0.1173  0.0990
17751W        W34225   1.920  10.168  15.503  0.0475 -0.0169  0.0779
17752W        W34226  11.284   3.390   4.867  0.0822 -0.0627 -0.1663
17753W        W34227   3.545   7.098  11.580 -0.0484  0.1944 -0.2230
17754W        W34228  17.677  16.590   5.781 -0.1400  0.1101  0.1641
17755W        W34229  17.120   9.803   3.545  0.1166 -0.1520  0.1092
17756W        W34230   0.984  15.958  14.624  0.0014 -0.1715 -0.0959
17757W        W34231  17.981   4.379   0.312 -0.0159  0.1498  0.0366
17758W        W34232  12.866   7.718   1.432 -0.2267  0.0649  0.0537
17759W        W34233  17.349   3.199   2.664  0.0196 -0.4960  0.0056
17760W        W34234  16.899   2.903   4.056  0.1160  0.1289 -0.1096
17761W        W34235   4.348   6.521   2.627 -0.1447 -0.1192 -0.0676
17762W        W34236  16.612  11.116   3.777  0.1286 -0.1181  0.1879
17763W        W34237  17.330  14.884   1.824 -0.1901 -0.2551  0.1954
17764W        W34238  18.051  18.351  13.142 -0.3469 -0.0473  0.0747
17765W        W34239  13.085   2.667  15.686  0.0301  0.3413  0.0360
17766W        W34240   9.691   3.987   0.098  0.0756 -0.1207 -0.1197
17767W        W34241  18.078  10.605   1.180 -0.1817 -0.2939  0.0647
17768W        W34242   5.055   7.667  15.529  0.0505  0.2314  0.0434
17769W        W34243   1.050   6.268  15.185 -0.1677  0.1463  0.3623
17770W        W34244   1.717   5.119   0.581  0.0460  0.1561 -0.0004
17771W        W34245  15.757  13.390  12.981 -0.0298  0.2438  0.1337
17772W        W34246   5.745   0.928  11.065  0.0879  0.0289 -0.0743
17773W        W34247   1.757   3.984  12.528  0.0542  0.1276 -0.0805
17774W        W34248  10.233  13.523   2.555  0.1145  0.0609 -0.2836
17775W        W34249   4.773   5.074  16.107  0.3673 -0.2988  0.0861
17776W        W34250   3.783  14.049  13.605  0.1685 -0.1779  0.1378
17777W        W34251  14.076   9.871   4.305  0.1178  0.1267 -0.0838
17778W        W34252   1.520  12.841  10.549 -0.2609  0.1235 -0.1320
17779W        W34253   5.782   0.772  14.169  0.0712 -0.0548  0.1515
17780W        W34254   4.254   7.731  14.193  0.3459 -0.2054 -0.2888
17781W        W34255   3.205  18.340   3.023 -0.2825  0.2925 -0.0841
17782W        W34256   7.440   2.847  12.996  0.1462 -0.1219 -0.0023
17783W        W34257   6.780   1.203   4.532  0.0686  0.1671 -0.2743
17784W        W34258   1.893  16.703  12.783 -0.1045  0.0475  0.1670
17785W        W34259  17.151   5.012  12.402 -0.0707  0.1263  0.2093
17786W        W34260   4.846  17.576   1.170 -0.3196 -0.0676 -0.1495
17787W        W34261  18.247   4.646  12.197 -0.1725  0.1623 -0.0174
17788W        W34262  10.740   7.550  16.120  0.1151  0.2595  0.1411
17789W        W34263   1.828   8.716   2.861 -0.0919  0.2289  0.2253
17790W        W34264   7.848   6.181   1.747  0.3078 -0.1074 -0.0917
17791W        W34265  10.906   6.901  12.469 -0.1464  0.1460 -0.6038
17792W        W34266   3.766  10.084  10.488  0.2175 -0.1567  0.0103
17793W        W34267   9.512  11.634  11.377 -0.0109 -0.0663 -0.0016
17794W        W34268   3.779  16.467  11.881 -0.1346  0.2091 -0.1225
17795W        W34269   1.776  15.456   3.629 -0.0878 -0.2597  0.3381
17796W        W34270  12.291   5.038  12.441  0.1585  0.1439  0.1552
17797W        W34271  11.657  17.609   4.809  0.3994  0.0035 -0.1896
17798W        W34272  17.985   0.431  11.508 -0.0484  0.2153 -0.1729
17799W        W34273   2.157  11.104   3.239 -0.2593 -0.0423 -0.1796
17800W        W34274   9.780  15.054  13.353 -0.1348 -0.0301  0.0831
17801W        W34275  12.127  12.032  11.684 -0.0412 -0.1670  0.0103
17802W        W34276   5.957   5.400   3.181 -0.1283  0.2034 -0.0192
17803W        W34277   1.635  17.460   0.993  0.2731  0.5537  0.0972
17804W        W34278  16.608   8.099  14.924  0.2701  0.0018  0.1412
17805W        W34279   3.773  12.505   4.907 -0.2271  0.2339 -0.3693
17806W        W34280   5.463   0.502   2.294 -0.0521  0.2461 -0.1510
17807W        W34281  11.697  14.706  14.385 -0.1113 -0.1398 -0.0697
17808W        W34282   6.936  15.660   2.030 -0.2561  0.1151 -0.0938
17809W        W34283   4.787  14.897  12.530 -0.3357  0.1422  0.1803
17810W        W34284   1.473   2.528   1.184 -0.2570  0.2349 -0.1494
17811W        W34285   0.720   9.532   2.145  0.1310  0.2204 -0.0367
17812W        W34286   2.795  15.404   4.807 -0.1280 -0.4833  0.2288
17813W        W34287   6.713  15.135   2.273  0.0864  0.1085  0.0572
17814W        W34288   4.287   3.299  15.258  0.1510 -0.0254 -0.2810
17815W        W34289  14.788  15.052   6.270  0.0588  0.5523  0.2496
17816W        W34290   8.910   1.924  11.377  0.2518 -0.0397 -0.1122
17817W        W34291  17.459   9.698  13.056  0.0846 -0.1241 -0.3168
17818W        W34292   2.036  11.999  13.469  0.0918 -0.0448  0.1225
17819W        W34293  14.363  17.545  14.813 -0.0949  0.0829  0.0086
17820W        W34294   0.867   2.869  15.667  0.0958  0.3154  0.1311
17821W        W34295  12.363   3.139  15.658  0.2847  0.0094 -0.1229
17822W        W34296   4.958   3.615  15.277 -0.2229  0.2781  0.1459
17823W        W34297  14.802   6.682   0.200 -0.1434 -0.1171 -0.0034
17824W        W34298   4.603  14.410  12.580 -0.0095 -0.0483 -0.5501
17825W        W34299  10.968   4.815   4.093  0.1206 -0.1633  0.1678
17826W        W34300   3.621   5.401   4.898  0.2105 -0.1919 -0.2437
17827W        W34301   8.708  15.057   1.010  0.0308  0.0565 -0.2775
17828W        W34302  16.847  10.740   1.972 -0.1129 -0.1564  0.1112
17829W        W34303  11.937   3.809  12.779 -0.0640 -0.1787 -0.0312
17830W        W34304   8.455   4.221   0.663  0.2082 -0.1434  0.0828
17831W        W34305   0.836   5.521  12.291  0.1115 -0.1582  0.0996
17832W        W34306   7.134   5.122  14.415 -0.1187 -0.0921 -0.1007
17833W        W34307  13.007   4.414   3.063  0.1412 -0.2297  0.1816
17834W        W34308  11.065  15.573   1.679  0.2326  0.1819 -0.1888
17835W        W34309  14.852  14.887   3.414  0.2327 -0.0274 -0.3021
17836W        W34310   3.016   2.678   5.203 -0.2675  0.0321 -0.3244
17837W        W34311  12.530  17.205   1.200  0.1461 -0.0796  0.1933
17838W        W34312   0.054   2.586   2.259  0.3363 -0.0949  0.3134
17839W        W34313   2.270   3.461  13.332  0.0495 -0.3241  0.0138
17840W        W34314  14.007   8.604  15.320  0.0813 -0.2111  0.1499
17841W        W34315   4.098   1.576  13.014 -0.1795 -0.3109  0.0180
17842W        W34316  16.558  12.698  11.063 -0.0978 -0.0834 -0.0535
17843W        W34317  17.286   4.675  13.158  0.1552 -0.2354  0.2084
17844W        W34318   5.724  12.335   5.917 -0.0416 -0.1823  0.1208
17845W        W34319  15.811  18.061  13.696  0.1932 -0.1137 -0.0856
17846W        W34320   6.720  13.934   2.243  0.0747  0.1952 -0.2110
17847W        W34321  14.505  17.624   6.176 -0.2035  0.0692  0.2218
17848W        W34322   6.004   2.447   1.143 -0.1052  0.0622  0.0657
17849W        W34323  13.309   6.090  15.412  0.0627  0.1288  0.3241
17850W        W34324   3.702   6.381  15.061  0.0057  0.1119 -0.4272
17851W        W34325   8.318  10.368  16.060  0.0541  0.2641  0.0872
17852W        W34326  10.125   8.778   5.102  0.1900  0.1270  0.0619
17853W        W34327  16.641  10.392   1.074  0.0931  0.0111 -0.1248
17854W        W34328  17.190  17.207   2.654  0.0841 -0.1782 -0.2336
17855W        W34329  13.414  14.474  13.812 -0.3552  0.3431 -0.1602
17856W        W34330   9.212   0.670  13.607 -0.1096  0.0687 -0.0617
17857W        W34331   3.717   2.387   4.031  0.0877  0.3088  0.0035
17858W        W34332  11.878  18.117  13.821  0.2292  0.2816 -0.0315
17859W        W34333  10.582   0.444   5.602 -0.1952 -0.2034  0.0133
17860W        W34334  15.906  15.738   0.073 -0.2071 -0.0522  0.0535
17861W        W34335   4.335  16.217   3.670 -0.0439  0.0536  0.3644
17862W        W34336   3.161   3.214   5.758 -0.0569  0.1101 -0.3599
17863W        W34337  12.223   7.427   4.000 -0.0690  0.2468  0.2655
17864W        W34338   6.086   3.446   2.030 -0.4023 -0.1860  0.3069
17865W        W34339  16.761  11.698  11.274 -0.0009 -0.0407  0.1033
17866W        W34340   0.118  16.447  15.370 -0.0210  0.4176  0.1943
17867W        W34341   2.187  12.923  14.345 -0.4217  0.0142  0.0929
17868W        W34342   1.505  13.714  12.894 -0.0225 -0.2692 -0.0914
17869W        W34343   6.364  11.952   1.622 -0.1782  0.0085 -0.0628
17870W        W34344  11.925  18.012  15.409  0.0557 -0.1300 -0.0961
17871W        W34345  14.443   5.768  15.509 -0.1640  0.0402  0.1438
17872W        W34346  15.416   0.582  11.670 -0.4177 -0.0192  0.3681
17873W        W34347  18.354   3.208   2.985  0.3459 -0.2789  0.2100
17874W        W34348   7.324   3.654   1.375  0.1787 -0.1811 -0.4475
17875W        W34349   6.512   3.583  14.663  0.1334  0.1063  0.1023
17876W        W34350  18.389   7.407   4.864 -0.3884 -0.1284  0.2378
17877W        W34351   2.314  17.325  13.304  0.2811 -0.0722 -0.0189
17878W        W34352   3.226  14.852   3.483  0.1080  0.0617  0.1978
17879W        W34353   3.400   6.380  13.823  0.0129 -0.2019  0.3195
17880W        W34354   3.486   5.858  15.965 -0.0311  0.1250 -0.1426
17881W        W34355  16.893  14.627   4.181 -0.1461 -0.3593  0.1314
17882W        W34356   1.668  11.536  13.666  0.3355  0.1102 -0.0455
17883W        W34357   0.545   9.638  11.563  0.2781  0.1521  0.1420
17884W        W34358  17.940   5.908   3.335  0.1428 -0.1182 -0.1997
17885W        W34359   1.213  17.315   0.773  0.2692  0.4041  0.1939
17886W        W34360   3.851  14.981  14.077 -0.1151  0.4051  0.1258
17887W        W34361  13.566  15.472   1.962 -0.4469  0.1077 -0.0110
17888W        W34362  16.685   6.927  14.097  0.1052  0.0027 -0.1328
17889W        W34363  11.925  17.610  15.116 -0.1449 -0.2665  0.0235
17890W        W34364  18.184   1.828  12.361  0.1086  0.0170  0.0281
17891W        W34365  16.864  17.838   3.831 -0.1928 -0.1451 -0.0099
17892W        W34366  10.633  15.627  14.457 -0.1603 -0.0446 -0.0263
17893W        W34367  12.261   5.226  11.577 -0.2241 -0.0798  0.3151
17894W        W34368  13.094   8.602  15.639 -0.1327 -0.0246  0.4081
17895W        W34369   2.500  11.522  14.559 -0.0590  0.2404 -0.3490
17896W        W34370   7.184  13.396   0.369  0.3546 -0.2451  0.0140
17897W        W34371  15.505  14.637   3.692 -0.0040  0.0840  0.1236
17898W        W34372   1.064   3.996   0.136 -0.2698 -0.0764  0.0762
17899W        W34373  13.502   5.741   1.244  0.2019  0.2947  0.3747
17900W        W34374   0.996  15.570  14.275 -0.1321  0.1658 -0.2090
17901W        W34375  12.132   0.021   1.724  0.1060 -0.0561  0.0736
17902W        W34376   5.375   4.942   3.484  0.2258 -0.1066  0.1093
17903W        W34377   5.234   8.451  11.641 -0.4139 -0.2818 -0.0472
17904W        W34378  13.537  16.708  15.825  0.1227  0.0821  0.1494
17905W        W34379   8.069   8.145   5.517 -0.1991 -0.2395 -0.1460
17906W        W34380  17.490  10.544   2.816  0.1079  0.1336  0.0005
17907W        W34381  13.258   7.007   1.069 -0.0909  0.0344  0.5285
17908W        W34382   4.559   8.112  16.249 -0.1312 -0.1221 -0.1906
17909W        W34383  11.615  18.339  16.154  0.2248  0.1251  0.2114
17910W        W34384   6.965   1.991  15.155  0.1584 -0.2139 -0.0373
17911W        W34385   2.818   3.567   2.304 -0.0839 -0.1960 -0.1451
17912W        W34386  13.911  13.096  16.320  0.0030  0.0347 -0.0235
17913W        W34387   4.478   1.857   0.467  0.1136  0.3256  0.1630
17914W        W34388   8.437  16.018   1.959 -0.1626  0.0439  0.1652
17915W        W34389   5.620   3.853   2.710 -0.2874  0.1432  0.0976
17916W        W34390  14.052   6.823  11.327  0.0715  0.0996 -0.0216
17917W        W34391   8.676   8.066  11.567 -0.0321 -0.2519  0.0501
17918W        W34392  17.191  16.773  11.186  0.1671 -0.3202 -0.0292
17919W        W34393  14.860   0.651   5.601 -0.2379 -0.1698  0.0808
17920W        W34394  11.863   8.267  10.779 -0.1423  0.1159 -0.0099
17921W        W34395   7.598  11.630  11.102 -0.0778  0.1225 -0.2040
17922W        W34396  17.989  10.836  13.947 -0.1988 -0.1270  0.0228
17923W        W34397   0.835  15.518  14.777  0.3656 -0.2738  0.3631
17924W        W34398  10.566  16.119   3.568  0.1144  0.0100  0.0711
17925W        W34399   8.598  15.209   6.011 -0.0317  0.1672 -0.3560
17926W        W34400  16.126  16.948   5.934 -0.1159 -0.0268  0.5293
17927W        W34401  16.269   3.067  13.513 -0.0742  0.0484 -0.1434
17928W        W34402   8.596  16.107   1.278 -0.0291  0.3969  0.2680
17929W        W34403   9.487   6.468   3.766  0.1187  0.0432 -0.1268
17930W        W34404  10.246  15.489  11.366  0.4965  0.0616 -0.1094
17931W        W34405   7.362  16.957   0.341  0.1796  0.0462 -0.2130
17932W        W34406   2.568  11.834   4.890 -0.3279 -0.3440 -0.3039
17933W        W34407   7.349  10.833  13.070  0.3965  0.2641  0.0939
17934W        W34408   6.188   5.212  13.586 -0.0484  0.1985 -0.0654
17935W        W34409  14.682   2.043  14.684  0.0509 -0.1892  0.0170
17936W        W34410   3.840   1.343  13.799 -0.2965 -0.3527  0.0053
17937W        W34411   8.332   5.885  15.377  0.2365 -0.1126  0.0476
17938W        W34412  17.397   4.166   2.699  0.1977 -0.4248 -0.2819
17939W        W34413  16.937   7.727  14.870 -0.0087 -0.1984 -0.1166
17940W        W34414  16.077   3.274  11.518  0.1474 -0.0304 -0.0079
17941W        W34415   7.150   0.258   4.427 -0.2944  0.2043  0.1941
17942W        W34416  12.512  16.567  15.747  0.0059 -0.2518 -0.1509
17943W        W34417  17.336   3.808   2.030  0.0068  0.2581 -0.2355
17944W        W34418  13.657   2.278   3.256  0.1646 -0.1440  0.0448
17945W        W34419   9.042   4.826  15.296 -0.1685  0.2998 -0.2440
17946W        W34420   0.122  17.512   4.812  0.3317  0.0235  0.0723
17947W        W34421   6.325   0.587  16.126 -0.3470  0.2510  0.1028
17948W        W34422   3.909   9.521   5.884 -0.1600  0.4287 -0.0520
17949W        W34423   9.024   0.703  11.689 -0.1828 -0.0830 -0.0029
17950W        W34424  13.679   4.005   1.996 -0.0761  0.1129  0.0422
17951W        W34425   7.615   8.193   2.927  0.0044  0.1960 -0.1321
17952W        W34426   4.139  15.832   2.474  0.0940  0.1075 -0.1549
17953W        W34427   4.436   8.459   2.041 -0.0897  0.2757 -0.2691
17954W        W34428  13.282  17.003   3.554 -0.0141 -0.2137  0.1739
17955W        W34429   3.101  14.709   0.055  0.0608 -0.4756  0.5281
17956W        W34430   0.067   6.913   2.593  0.1462 -0.2701  0.0867
17957W        W34431   3.370   0.806  15.544  0.0333 -0.0768 -0.2480
17958W        W34432   8.586  11.463  11.229 -0.2274  0.0831 -0.0466
17959W        W34433   7.965  17.828   1.308 -0.1652  0.0864  0.1681
17960W        W34434  11.088   7.404  12.790  0.0467  0.1113 -0.2691
17961W        W34435  13.212   0.335   4.624 -0.2069  0.2187 -0.0509
17962W        W34436  10.871   2.301   3.772  0.1972 -0.2825  0.2509
17963W        W34437  15.540   6.077   5.322  0.0296  0.2802  0.0717
17964W        W34438  12.120   8.998   4.818 -0.3726  0.0001  0.1250
17965W        W34439   4.577   8.441   5.316  0.3684 -0.2307 -0.1686
17966W        W34440  16.757  12.295   5.308 -0.1703  0.1999  0.2442
17967W        W34441   5.939   4.650   0.263  0.0210  0.0183 -0.1564
17968W        W34442   6.881  10.896   3.546 -0.3345 -0.1904  0.0330
17969W        W34443  13.272  11.185  16.075 -0.2316 -0.0203 -0.0336
17970W        W34444  16.835   9.287  11.646  0.2117  0.2890 -0.2597
17971W        W34445   1.536   8.658  13.950  0.3855  0.2315 -0.2292
17972W        W34446  11.685  11.070   0.844 -0.1439  0.1843  0.0794
17973W        W34447  13.513   8.593   4.752 -0.3104  0.0847  0.0827
17974W        W34448  16.690   4.734  13.286 -0.0519 -0.1291 -0.0449
17975W        W34449   2.144  10.281  15.030 -0.2603 -0.0647 -0.0620
17976W        W34450   1.261  17.713  15.314  0.0149  0.2661  0.0536
17977W        W34451   5.838   4.303   0.950  0.2274 -0.1548 -0.1750
17978W        W34452   5.559  15.679   2.246  0.1156 -0.2004  0.1461
17979W        W34453   7.783  16.864   5.528  0.0429 -0.1937  0.3268
17980W        W34454  13.639   5.028   1.639  0.1746  0.0902 -0.3725
17981W        W34455   8.851   2.799   2.189  0.0771  0.0036  0.2155
17982W        W34456   3.293  15.608   3.078 -0.2432  0.1430  0.1026
17983W        W34457   7.560   6.567  14.125 -0.0968  0.1389  0.1246
17984W        W34458   2.993  14.275  16.096 -0.0478  0.2297  0.2661
17985W        W34459   8.895   9.444  11.710 -0.2432 -0.0828 -0.1451
17986W        W34460   6.576   7.391   3.384 -0.0685 -0.0166  0.2697
17987W        W34461  17.474   5.473   2.577 -0.1515  0.1944  0.3838
17988W        W34462   2.014  16.407   1.259 -0.1527  0.1532 -0.0728
17989W        W34463  13.104   0.892  13.292  0.2504 -0.1441  0.1944
17990W        W34464   8.466   7.783   0.590 -0.1404 -0.2415  0.3955
17991W        W34465  14.302  16.065  11.205  0.0336 -0.1068  0.2060
17992W        W34466  14.848   5.658   0.869 -0.1557  0.1213  0.0603
17993W        W34467  17.432  16.890   6.087  0.1930  0.1339  0.1371
17994W        W34468   4.204  18.156  15.969  0.0795  0.0021 -0.0336
17995W        W34469   7.919  10.957   1.779  0.3569  0.0757 -0.2171
17996W        W34470   6.457   6.447  15.511 -0.1867 -0.2019 -0.0367
17997W        W34471   1.332   2.525   1.814 -0.3102 -0.2845  0.1666
17998W        W34472  12.625   3.700  13.503  0.0404  0.0327 -0.0910
17999W        W34473   8.091  16.846   6.821 -0.2776 -0.1421  0.1066
18000W        W34474  14.744  13.523  16.099  0.2226  0.0158  0.0031
18001W        W34475   2.200   9.417   1.638 -0.4508 -0.0752 -0.2343
18002W        W34476   9.804   4.884  15.791 -0.1838 -0.0339  0.4752
18003W        W34477   3.351   8.015   3.179  0.0026 -0.1575 -0.1974
18004W        W34478   0.899  17.910  13.377 -0.0183  0.1647 -0.0404
18005W        W34479   8.778  17.643  15.181 -0.3199  0.4151  0.1441
18006W        W34480   5.535  15.029  12.911  0.0478  0.1520 -0.1506
18007W        W34481  16.971  12.398   1.254  0.0579  0.1418 -0.0825
18008W        W34482   9.355   9.117   5.249  0.0447  0.0887 -0.0806
18009W        W34483   4.272   4.758   1.882 -0.2728  0.2227 -0.0465
18010W        W34484   4.544   1.457  13.192 -0.2369 -0.5362  0.3329
18011W        W34485   3.607  10.963   2.260  0.4182  0.2570 -0.0041
18012W        W34486   5.430   8.343   5.376  0.2389  0.1151 -0.1100
18013W        W34487   8.353  11.714  12.556 -0.1339 -0.1361 -0.0334
18014W        W34488   2.484   4.562   5.198 -0.0855  0.1569  0.1017
18015W        W34489  11.880   8.588   2.213 -0.1403  0.2181  0.0087
18016W        W34490   9.237   0.659   1.575 -0.0788  0.0044  0.0811
18017W        W34491   9.083   4.945   3.247  0.0697 -0.0821 -0.1003
18018W        W34492   4.004  15.360  13.497 -0.0392 -0.0214  0.2609
18019W        W34493  18.081   9.311  12.009  0.0243  0.4348 -0.1584
18020W        W34494  16.087   3.596   3.381  0.1007  0.0512 -0.2321
18021W        W34495  15.306  18.307  14.218 -0.2751  0.0590  0.0945
18022W        W34496  15.696  10.706  13.602  0.1717  0.1105  0.1607
18023W        W34497   9.450   9.262   0.900  0.1736  0.0481 -0.5610
18024W        W34498  17.613  18.355   0.155  0.0276 -0.1151 -0.2617
18025W        W34499   3.320  12.507   1.784 -0.3517 -0.1380 -0.3331
18026W        W34500   7.297  12.663   1.805  0.1123  0.4430  0.0514
18027W        W34501   8.508   9.215   2.065 -0.0702  0.1109  0.0473
18028W        W34502  11.718  14.218  13.464  0.1458 -0.2259 -0.1458
18029W        W34503  13.843   8.445   2.809 -0.3558  0.1630 -0.0525
18030W        W34504  15.552  13.723   1.558 -0.1373 -0.2060  0.1403
18031W        W34505   4.428   9.638  16.080  0.5013 -0.1538 -0.1414
18032W        W34506  16.184   2.081   1.788  0.1156 -0.1621 -0.0236
18033W        W34507   6.444  16.336  15.478 -0.2999 -0.0607 -0.0165
18034W        W34508   1.399  10.469   3.597 -0.0227  0.0054 -0.1788
18035W        W34509   2.226  15.892   0.403  0.2428  0.0853  0.3499
18036W        W34510  14.359  10.397  12.224 -0.1382  0.1370 -0.0615
18037W        W34511   8.216   2.823  15.219 -0.2094 -0.3119  0.0373
18038W        W34512   8.603   2.251   5.501  0.0956 -0.0615  0.1479
18039W        W34513  14.562   1.250  15.641  0.0679  0.2142  0.1205
18040W        W34514   8.100  16.225  12.406 -0.0625 -0.0658 -0.1799
18041W        W34515   0.145   4.359  14.255 -0.0788  0.0259 -0.0528
18042W        W34516  13.437  13.548   3.180  0.1142 -0.0951  0.2376
18043W        W34517  14.663   1.332  14.071 -0.2047  0.0088  0.0821
18044W        W34518   1.108  13.689  13.936 -0.0686  0.0982 -0.0257
18045W        W34519   8.663   8.365  13.944 -0.0532 -0.2054 -0.0682
18046W        W34520  15.009  10.539  15.663 -0.0428  0.0452  0.2299
18047W        W34521  13.402   9.805  13.250 -0.0836 -0.0697  0.2623
18048W        W34522  18.368   3.040  12.925 -0.0718  0.1798  0.1979
18049W        W34523   7.888  16.928   4.968 -0.1487  0.1550  0.2206
18050W        W34524  16.195   9.507   5.672 -0.1291 -0.2630 -0.3031
18051W        W34525  14.957   0.195  11.189  0.0018 -0.1321 -0.0975
18052W        W34526   6.686   2.344  13.834 -0.2145 -0.4167 -0.1065
18053W        W34527  10.107   0.312  13.523 -0.1368 -0.1788  0.1226
18054W        W34528  16.292  13.537   3.632  0.0553 -0.0851  0.2941
18055W        W34529   6.982   1.918  13.646  0.1115  0.1739 -0.0181
18056W        W34530   4.479  16.947  15.018  0.2706 -0.0730  0.1316
18057W        W34531  17.769   2.188   5.158 -0.2430  0.0233  0.1542
18058W        W34532   4.757  11.071   4.073  0.3425  0.2495 -0.0235
18059W        W34533  14.317  13.972   4.221  0.0998 -0.0591 -0.1035
18060W        W34534  17.968   4.050  13.032 -0.0795 -0.0120 -0.3218
18061W        W34535   0.106  17.375   3.802  0.3047  0.1100 -0.1086
18062W        W34536   9.344   2.756  15.704 -0.2196  0.3000 -0.1037
18063W        W34537  14.837   3.054  14.922  0.3201 -0.0787 -0.2057
18064W        W34538   2.942   3.049  13.950  0.2568 -0.0381  0.0718
18065W        W34539  15.593  17.635   5.993  0.1985  0.0596  0.1470
18066W        W34540  18.115   1.204   1.516  0.0877 -0.0241 -0.2982
18067W        W34541   4.720   5.201  12.730 -0.1212 -0.0447 -0.4404
18068W        W34542  14.300  15.894  15.630 -0.0121  0.2124  0.2095
18069W        W34543   4.095   8.379   0.533 -0.0260 -0.1549  0.0035
18070W        W34544   0.974  15.237   5.323 -0.0199  0.1525  0.1891
18071W        W34545   3.572  17.499  14.223 -0.1172 -0.0672  0.1444
18072W        W34546  15.864   0.398  16.254 -0.0164  0.1543  0.0947
18073W        W34547  13.993   4.080  13.530  0.1463 -0.0882 -0.1082
18074W        W34548   6.486   3.833   4.015 -0.0646 -0.3224 -0.0778
18075W        W34549  10.195   4.534  15.709  0.1441  0.3214 -0.0316
18076W        W34550   9.145  12.566   2.714 -0.0674  0.3009  0.3857
18077W        W34551   5.934  13.931   0.268 -0.1668  0.1694  0.0110
18078W        W34552   1.314   0.507   5.082 -0.0141  0.3277 -0.3748
18079W        W34553  12.704   9.177  12.917 -0.0584  0.2434  0.1209
18080W        W34554   6.487   9.364   4.864  0.1023  0.1371  0.0982
18081W        W34555   4.872   9.926   5.071  0.1333 -0.2654  0.1131
18082W        W34556  17.514   6.006  12.202  0.2703  0.3695  0.3798
18083W        W34557   1.433   3.633   5.076 -0.0947  0.1743  0.0797
18084W        W34558   0.832   8.136  14.357  0.0759  0.1140 -0.1399
18085W        W34559   6.584   2.637  16.277 -0.3062  0.0193 -0.1280
18086W        W34560   6.781   0.241  15.438 -0.0862 -0.2979 -0.0539
18087W        W34561   4.563  13.364   2.754  0.0024 -0.0652 -0.0805
18088W        W34562   3.745   5.339  14.654  0.0851  0.1485  0.0866
18089W        W34563   9.238   2.094   4.025 -0.0929 -0.0973 -0.1899
18090W        W34564   3.690   9.494  12.879 -0.0424 -0.0134 -0.0226
18091W        W34565  11.237   0.939  11.214 -0.0068  0.3209  0.0470
18092W        W34566  14.387  17.724  12.619 -0.2759  0.3949  0.0307
18093W        W34567  14.901  14.593  12.982 -0.3708 -0.1081 -0.1423
18094W        W34568  15.175  13.642   2.667 -0.0219  0.2354  0.0041
18095W        W34569  17.472  14.750   5.416  0.0996 -0.3004  0.0395
18096W        W34570  15.499  10.137   0.193 -0.0427 -0.0426 -0.1273
18097W        W34571  11.761   6.086   1.217 -0.2764 -0.0442  0.1056
18098W        W34572   8.376  14.678  13.906 -0.0879 -0.0586 -0.2058
18099W        W34573  11.420  12.380   3.872  0.3041  0.2641 -0.2139
18100W        W34574   7.765   0.799   3.770  0.4051  0.1450 -0.1192
18101W        W34575  16.408   7.564   4.185 -0.1714  0.1557  0.0168
18102W        W34576   5.607   2.240   5.963  0.5515  0.1252  0.0313
18103W        W34577   5.107   1.348  12.178 -0.0141 -0.0317  0.1318
18104W        W34578  15.297   6.254  15.649  0.3397  0.0895 -0.2860
18105W        W34579  15.704  10.031  12.880 -0.1448 -0.1882 -0.1376
18106W        W34580   7.445   5.681   5.158  0.0920 -0.0095  0.1666
18107W        W34581  15.447   4.675  13.992  0.0493  0.2059  0.1689
18108W        W34582   4.322   0.154  12.991 -0.0009 -0.3174  0.0136
18109W        W34583  11.125  13.134  14.932 -0.0481 -0.0244 -0.2499
18110W        W34584  14.487  10.345   0.924  0.1059 -0.4285 -0.1718
18111W        W34585   4.611  15.369   5.352  0.0752 -0.3113 -0.0053
18112W        W34586  10.662  17.686   3.251  0.1015 -0.0443  0.0812
18113W        W34587   7.742  18.143  12.718  0.1435 -0.2166 -0.3687
18114W        W34588   5.557   1.484  13.180 -0.1845  0.1107  0.1885
18115W        W34589  12.237   6.772   4.581  0.0899  0.0756 -0.0862
18116W        W34590  16.865  10.701  11.084  0.0176  0.1182 -0.1891
18117W        W34591   6.261   9.024   1.324  0.0665 -0.2232 -0.0191
18118W        W34592  15.154   3.404  14.587  0.2689  0.1377 -0.2164
18119W        W34593   8.929   6.743  10.334 -0.0130  0.0680  0.1221
18120W        W34594  15.785  15.592  14.289 -0.1870 -0.2787  0.3492
18121W        W34595   7.132   5.907   1.358  0.0558 -0.1837 -0.0999
18122W        W34596   7.260  18.090  12.856  0.0493  0.1766  0.0167
18123W        W34597  15.306  13.607  14.293 -0.3223  0.0681  0.0776
18124W        W34598   8.773  10.809  11.518 -0.2920  0.0406 -0.3393
18125W        W34599   6.943  14.429  11.882 -0.0200  0.3420 -0.0619
18126W        W34600  15.974  10.919   2.460 -0.2516 -0.0769  0.2749
18127W        W34601   8.654  16.992  12.663  0.2184 -0.1973  0.3879
18128W        W34602   8.256   5.689   0.119 -0.2221  0.3290  0.1176
18129W        W34603   4.917  13.078  12.002  0.1296 -0.1282  0.0048
18130W        W34604   5.245   4.824   5.016  0.3795 -0.1229  0.0391
18131W        W34605   2.912   9.495  13.247 -0.1138  0.0124 -0.3495
18132W        W34606   5.423  11.989   2.598  0.0593  0.1726 -0.0688
18133W        W34607   6.776  16.256  11.636 -0.0312 -0.0719 -0.3724
18134W        W34608   1.692   7.537  13.175  0.0080 -0.0685 -0.0462
18135W        W34609   8.504  11.519   0.204 -0.0735  0.3433 -0.0618
18136W        W34610  12.506   3.694   2.075 -0.1381 -0.2335  0.3084
18137W        W34611   8.935  11.310   4.470 -0.2475  0.1158 -0.0097
18138W        W34612   7.652   5.788  13.294  0.4313 -0.2441  0.0981
18139W        W34613  10.606  14.284   1.437 -0.0057  0.0153  0.2542
18140W        W34614   6.978   1.579  16.097 -0.2995  0.0768 -0.0528
18141W        W34615  10.198  17.905   4.353 -0.2612  0.1291 -0.0988
18142W        W34616   0.723  10.578   1.945 -0.1158  0.1935  0.2247
18143W        W34617   2.243   0.257  16.080  0.2129  0.1001 -0.0385
18144W        W34618   5.928  10.980  14.271 -0.1146  0.1179  0.0111
18145W        W34619   0.053   3.883   2.532 -0.2243 -0.0834  0.2257
18146W        W34620   2.414   1.545  12.366 -0.1238 -0.1023 -0.2509
18147W        W34621   3.820   4.811   5.780 -0.0210  0.1007  0.5573
18148W        W34622  14.144  10.315   0.525  0.2595  0.0152 -0.0991
18149W        W34623   4.610   8.343  14.774  0.0757 -0.0820 -0.2097
18150W        W34624   5.180  10.570   3.490  0.3273 -0.0772  0.0937
18151W        W34625  14.705   3.564   1.270 -0.3154 -0.0857 -0.0771
18152W        W34626  10.777  12.105   3.355 -0.0917  0.1263 -0.1662
18153W        W34627   1.147  10.958   3.823  0.0844 -0.0404  0.1112
18154W        W34628  14.304   7.259  12.698 -0.0429  0.1340  0.1505
18155W        W34629   4.217  15.850  13.613  0.3371  0.2396  0.1104
18156W        W34630   2.041  16.885   0.932  0.3122 -0.1858  0.1550
18157W        W34631   8.523  12.271  15.894 -0.0136  0.0122 -0.0189
18158W        W34632  13.581  12.529  11.379  0.1071  0.3111  0.1026
18159W        W34633   1.579   2.432   5.639  0.1145  0.2237 -0.0016
18160W        W34634   4.834   9.688  15.305  0.0750 -0.0516 -0.2328
18161W        W34635   4.664   0.439   3.946 -0.1289 -0.0246 -0.1181
18162W        W34636  13.067   9.339  10.753  0.1162 -0.1705 -0.1314
18163W        W34637  16.812  13.250   5.501  0.1260 -0.0020  0.1633
18164W        W34638   4.733   7.504  14.398 -0.0550  0.2311  0.2490
18165W        W34639  16.890  10.214   0.344 -0.0671  0.0908 -0.1248
18166W        W34640  13.208  11.920   4.327 -0.0156 -0.0178 -0.1060
18167W        W34641   7.715   4.387  15.792  0.1388 -0.6194  0.0455
18168W        W34642  14.687  14.776  14.880 -0.2592  0.0636  0.0542
18169W        W34643   3.516  15.028   4.557 -0.0287  0.0979 -0.1496
18170W        W34644   8.386   4.244   4.599 -0.0649  0.2096 -0.0945
18171W        W34645  11.554   8.912  11.904 -0.0973 -0.3235  0.0629
18172W        W34646   8.826   3.329   4.654  0.3273  0.1801 -0.1749
18173W        W34647   9.782   4.909  11.853  0.1813 -0.0505  0.4360
18174W        W34648  16.271  11.203  12.929  0.0497  0.1332 -0.1992
18175W        W34649  12.699   5.297   1.918  0.1018  0.2802 -0.2347
18176W        W34650   6.612   9.025   1.825 -0.1636 -0.1309  0.2210
18177W        W34651   7.277  14.823   4.169 -0.3507 -0.1912  0.1015
18178W        W34652  17.921   6.926  12.111  0.3164  0.2045 -0.0393
18179W        W34653   0.647  17.888   4.874  0.2707  0.1486 -0.1681
18180W        W34654  16.991  16.955   3.315 -0.0667  0.0302  0.2851
18181W        W34655   4.066  14.467   2.557 -0.0433  0.4911  0.1773
18182W        W34656  17.385   8.286   2.134 -0.0558  0.0587  0.0242
18183W        W34657   6.256   7.210   4.762 -0.0005 -0.1904 -0.1662
18184W        W34658   0.199   5.691  16.311 -0.0167 -0.0479  0.1504
18185W        W34659   2.035  14.717   4.112 -0.1387 -0.0052  0.0778
18186W        W34660   1.130  16.479   1.659  0.1797 -0.0238  0.0653
18187W        W34661   2.865  15.726  14.079 -0.0945  0.0102 -0.1847
18188W        W34662   9.948   8.422  15.117 -0.1082 -0.0861 -0.4550
18189W        W34663  15.720   3.164  12.888  0.1881  0.3070  0.0729
18190W        W34664  10.687  12.745  10.111 -0.2245  0.1626  0.0071
18191W        W34665  11.831  14.902   6.289 -0.4103 -0.4798  0.1014
18192W        W34666   2.352  10.878   1.364  0.2017 -0.2107 -0.0844
18193W        W34667  17.906   8.182  12.832 -0.1763 -0.3615 -0.2464
18194W        W34668  17.395  17.794  12.223  0.1449  0.1853 -0.2712
18195W        W34669  12.085   7.717   0.331  0.0829 -0.0142 -0.0488
18196W        W34670  15.098   1.589   0.575 -0.0132  0.1022  0.1368
18197W        W34671  11.859  12.479  11.582 -0.1228  0.0129  0.2125
18198W        W34672  10.336   8.177  13.509 -0.1801 -0.6055  0.1799
18199W        W34673   4.877  10.282   4.174  0.4535  0.3072 -0.1297
18200W        W34674  12.224   9.878   1.518 -0.3019 -0.1428 -0.0055
18201W        W34675  12.041  11.703   4.944  0.2236  0.0500 -0.1038
18202W        W34676  18.319   4.136  11.315 -0.2131 -0.5242 -0.0767
18203W        W34677   8.468  10.982   1.067 -0.2617  0.2319  0.1557
18204W        W34678  10.025   7.815  15.260  0.0666  0.2753 -0.0600
18205W        W34679  16.316  17.670  16.220  0.0767 -0.1800 -0.1230
18206W        W34680  10.534  16.831  15.059 -0.0474 -0.0643 -0.1392
18207W        W34681   6.943   3.833  14.648  0.1725  0.1517 -0.0944
18208W        W34682  11.600   8.003  11.466 -0.0960  0.0479 -0.0224
18209W        W34683   1.840  15.058   5.001  0.1555  0.1591 -0.2873
18210W        W34684   3.905  18.077  15.358  0.2626 -0.2759 -0.0605
18211W        W34685   6.887   3.871   3.030  0.1354  0.1947 -0.1709
18212W        W34686  14.210   8.441   0.671  0.2367  0.2012 -0.1522
18213W        W34687   0.549  10.791   0.031 -0.0707 -0.0070 -0.2369
18214W        W34688  12.526   3.137   4.980  0.0297 -0.0885 -0.0968
18215W        W34689  16.579  16.359   2.830 -0.2844 -0.1228  0.0682
18216W        W34690   8.943   9.819   2.075  0.1503  0.2463 -0.0312
18217W        W34691   1.034   1.198   2.491  0.2452  0.0872 -0.1850
18218W        W34692  15.480   5.642   4.884 -0.1643 -0.0421 -0.4739
18219W        W34693   4.915   6.190   4.918  0.3057 -0.1554 -0.0964
18220W        W34694   4.647  15.382   0.359 -0.1871  0.0260 -0.2465
18221W        W34695   4.039  15.273  12.999 -0.3339 -0.0700  0.4252
18222W        W34696   0.218   0.122   4.737  0.0777 -0.1605  0.1354
18223W        W34697   4.588  13.467   1.790 -0.0374 -0.0858 -0.1213
18224W        W34698  17.342   2.971  15.181 -0.3770  0.0851 -0.0642
18225W        W34699   2.156  17.077   4.468  0.4101  0.0104  0.1162
18226W        W34700  17.485   2.423   1.955  0.0452  0.2708  0.4290
18227W        W34701   5.732   7.484   5.135 -0.0520  0.1636 -0.0598
18228W        W34702   9.279   4.675   0.200  0.0078  0.1402 -0.1060
18229W        W34703  14.981   3.221   2.598 -0.1159  0.1289  0.2192
18230W        W34704   3.100  13.374  15.830 -0.1353  0.0246  0.0294
18231W        W34705  13.775   1.935  12.731  0.2597  0.1547  0.2440
18232W        W34706  11.037   8.508   4.379 -0.0352 -0.1936 -0.0735
18233W        W34707  13.161  16.516   3.510 -0.1321  0.0938  0.0795
18234W        W34708  10.835   1.779  14.363 -0.1081 -0.0165 -0.2982
18235W        W34709  18.108  11.685   3.692  0.0728 -0.0002 -0.1715
18236W        W34710  10.468  11.516  11.393  0.3379  0.1093  0.4145
18237W        W34711   8.178   2.607   3.151  0.0357  0.1819 -0.0613
18238W        W34712  10.061  15.493  14.478 -0.2580 -0.1624  0.4529
18239W        W34713  17.658  17.060   3.094 -0.1448 -0.1347 -0.1548
18240W        W34714  16.133  11.167  11.595  0.3744 -0.0169 -0.0461
18241W        W34715   8.286   6.337  11.919  0.1736  0.1433  0.3650
18242W        W34716   6.116  12.773  15.861  0.1481  0.1318  0.0400
18243W        W34717   7.337  16.656   1.626  0.2596  0.2516  0.0343
18244W        W34718   9.584   5.588  15.514  0.0508  0.0932 -0.0857
18245W        W34719   0.386  18.366  12.146  0.2365  0.6509 -0.1292
18246W        W34720   6.482   2.583  12.600  0.1393  0.1494 -0.0619
18247W        W34721   2.799  17.224  11.992 -0.0258 -0.3951 -0.2265
18248W        W34722   1.395  16.052  13.577  0.2962 -0.0988 -0.0272
18249W        W34723   8.804   2.713   0.870  0.1247 -0.2530 -0.0295
18250W        W34724   0.599  14.564   5.212  0.0062  0.1361 -0.3353
18251W        W34725  16.857  13.222  14.028 -0.1725  0.0821 -0.1343
18252W        W34726   3.164   2.507  15.528 -0.0968 -0.1581 -0.1410
18253W        W34727   8.103   5.211   5.573 -0.5321  0.3010 -0.0737
18254W        W34728   6.128  13.012   0.447  0.2589  0.2148  0.0225
18255W        W34729   6.589  11.497   1.834  0.1056 -0.0773 -0.2341
18256W        W34730  15.483  10.485  14.449  0.0179  0.1010 -0.2740
18257W        W34731  15.440  15.065  13.686  0.2865  0.1212 -0.2510
18258W        W34732  11.821   9.995  15.356 -0.6372  0.0984  0.0509
18259W        W34733   0.909   9.520  11.169  0.0288 -0.2109 -0.0032
18260W        W34734   1.893  17.777  14.213  0.2010 -0.1777 -0.0818
18261W        W34735  11.285   3.803  12.162 -0.0876 -0.1050  0.0036
18262W        W34736   4.201   5.936  13.581 -0.0139 -0.0733 -0.1674
18263W        W34737   4.944   0.646   3.342  0.0299 -0.2059 -0.2500
18264W        W34738   7.334   9.352   5.342  0.2177  0.1323 -0.2391
18265W        W34739   2.592  15.560   5.260 -0.1425  0.0175 -0.1337
18266W        W34740  17.704   7.230   0.976  0.0437 -0.0604  0.1768
18267W        W34741   6.502   8.505   3.513  0.3910 -0.3116  0.1783
18268W        W34742   3.115   0.993  13.452  0.0278 -0.1035 -0.0655
18269W        W34743   7.912  13.593  16.064  0.0721 -0.3415  0.0057
18270W        W34744  13.594   0.654   2.422  0.0454  0.1464  0.2636
18271W        W34745  18.222   0.644  13.865 -0.1976 -0.0229  0.2702
18272W        W34746   3.016   0.488   1.990  0.1659  0.0252  0.0576
18273W        W34747   3.985  17.911  12.242 -0.3821 -0.0223 -0.2110
18274W        W34748   5.723   8.614  13.398 -0.0668 -0.0822  0.0164
18275W        W34749  10.159  12.472  14.896  0.1211 -0.1200 -0.0188
18276W        W34750  16.092   1.194  14.114 -0.0224 -0.1031  0.1882
18277W        W34751  13.736  12.651  12.876 -0.2945 -0.0910  0.4239
18278W        W34752  13.916   1.048  13.008 -0.1895  0.4086  0.1280
18279W        W34753  10.839   2.218  11.477 -0.1500  0.3277  0.3738
18280W        W34754  18.235  10.080   2.199  0.1414  0.2798 -0.2592
18281W        W34755  15.634   7.958  15.558 -0.1610 -0.1874 -0.2235
18282W        W34756   0.756  17.897   2.766  0.1019  0.3369  0.3113
18283W        W34757  17.814  11.822  15.552 -0.0474  0.0606 -0.0862
18284W        W34758  15.502   6.491  15.191  0.2317  0.1718 -0.1397
18285W        W34759   5.529  13.471   2.287 -0.1563 -0.0892 -0.1978
18286W        W34760  10.019  15.195   4.667 -0.0508  0.0514  0.1661
18287W        W34761  14.081  10.707   4.982  0.1030  0.3818 -0.0320
18288W        W34762  13.590   6.389   1.482  0.0405  0.0656 -0.3054
18289W        W34763   9.959  14.347   3.824 -0.0615  0.0679  0.0537
18290W        W34764  18.005  16.422  12.678  0.0580  0.4358 -0.3603
18291W        W34765   0.984   7.169   3.227  0.1652 -0.0520  0.1729
18292W        W34766  10.915  15.518   4.008  0.2426  0.1895  0.0871
18293W        W34767   4.029   7.893   2.410  0.2686  0.0648 -0.0162
18294W        W34768  16.717   5.113  12.091 -0.1943 -0.1191  0.0280
18295W        W34769   5.362  16.621   5.547 -0.0680 -0.0221  0.3797
18296W        W34770   4.988  17.994  12.612 -0.1788  0.0922  0.1192
18297W        W34771   3.617  10.535  14.100 -0.2378  0.2981 -0.1428
18298W        W34772  15.963  14.364   0.140  0.0337  0.0515  0.3020
18299W        W34773  11.323   5.193   2.584  0.0800  0.2901 -0.1123
18300W        W34774  11.517   5.822   3.367  0.1412 -0.2091 -0.3616
18301W        W34775   2.095   1.498  13.367  0.1164  0.0721 -0.0130
18302W        W34776  12.142   9.180   2.251 -0.1781  0.2676  0.0594
18303W        W34777   1.697  16.063   0.505  0.0390 -0.0626  0.1404
18304W        W34778  13.117   4.433  15.723  0.0696 -0.0333 -0.1904
18305W        W34779  11.676   4.231  14.797  0.0737 -0.1440  0.1232
18306W        W34780   8.987  10.216   2.917 -0.0372  0.1373  0.1585
18307W        W34781  10.856   7.426   1.182  0.1112 -0.0115 -0.0583
18308W        W34782   5.458  16.590  13.671  0.0961  0.0340 -0.3250
18309W        W34783   7.946   1.038  11.786  0.1237 -0.1723  0.1262
18310W        W34784  11.469   1.530   3.309  0.0054  0.0533 -0.1303
18311W        W34785   7.212   8.916   1.052 -0.0528 -0.0093  0.0501
18312W        W34786   9.923  11.259   4.281 -0.3402 -0.0462  0.0625
18313W        W34787   8.903  15.231   0.474 -0.0271  0.0516  0.1484
18314W        W34788   6.370   2.031   3.669 -0.1854 -0.1033 -0.2040
18315W        W34789   0.486  11.378  16.285  0.0629  0.2636  0.2312
18316W        W34790   2.745   9.779   3.554 -0.0383 -0.0248 -0.2974
18317W        W34791  11.735  16.153  16.093 -0.0012  0.0262 -0.1803
18318W        W34792   4.696  16.647  12.967 -0.5343  0.1849 -0.1336
18319W        W34793   7.348   2.843  13.533  0.1031 -0.0813 -0.0381
18320W        W34794   9.170  17.335  12.541 -0.0370  0.0096  0.0147
18321W        W34795  17.332  12.336  14.106 -0.0705 -0.1050 -0.1056
18322W        W34796   0.618   3.984   5.342 -0.1010  0.0446  0.2065
18323W        W34797   6.341  12.831  13.333 -0.2557  0.2235 -0.1812
18324W        W34798   6.977  18.124  14.347 -0.2083 -0.1951  0.1062
18325W        W34799   4.846  12.839   0.035 -0.0491 -0.1809  0.0435
18326W        W34800  18.142  13.174  12.965 -0.2059  0.0724 -0.3445
18327W        W34801   9.959  14.261  12.952  0.1421  0.1062  0.2378
18328W        W34802   6.450   3.216   1.792 -0.1251 -0.0773 -0.1012
18329W        W34803  14.544   8.144  14.209  0.1528 -0.0124 -0.0956
18330W        W34804   1.523  10.991   4.757 -0.3708  0.1302 -0.0435
18331W        W34805   1.752  18.374   2.928  0.4963  0.5011  0.0749
18332W        W34806   7.943   8.280   6.029 -0.2219  0.3347  0.0569
18333W        W34807   8.873   2.087   2.327 -0.3608  0.1091  0.0336
18334W        W34808   2.628  15.583  12.367 -0.1729 -0.1969  0.0910
18335W        W34809   0.862   8.794   2.951  0.2752  0.0187 -0.1421
18336W        W34810  10.137  15.384   3.194  0.1265  0.1254 -0.4468
18337W        W34811  10.368  12.494   1.536 -0.3052 -0.0514 -0.2232
18338W        W34812  12.390  12.412  14.658  0.2775  0.1492 -0.2412
18339W        W34813  15.004   5.178   0.938  0.0949  0.1406  0.2658
18340W        W34814   2.005  12.661  13.928  0.1401  0.0219  0.1967
18341W        W34815  13.984   4.977  11.912 -0.3198 -0.2124  0.3512
18342W        W34816   8.221   9.632   2.227 -0.1243  0.0252  0.1945
18343W        W34817  17.129  18.031   5.260  0.3732 -0.1961  0.2866
18344W        W34818  17.385  18.210   3.077  0.0357 -0.3252  0.2392
18345W        W34819   3.699   6.913   1.568  0.1372 -0.1129  0.0915
18346W        W34820  16.933  13.630  11.185  0.0527 -0.3103  0.1207
18347W        W34821   9.601   8.728   0.081  0.0748 -0.1429  0.1294
18348W        W34822   6.508  12.181  15.981 -0.1567  0.1871  0.1404
18349W        W34823   4.239  10.342  12.529  0.0899 -0.0571 -0.2388
18350W        W34824   3.723  12.077  12.766 -0.1956  0.1384  0.1520
18351W        W34825   1.342  14.060   6.143  0.0214  0.3202 -0.2454
18352W        W34826  12.950   7.838  15.373 -0.2416  0.0082 -0.0545
18353W        W34827   4.043   1.189  11.671 -0.1198  0.1100 -0.0466
18354W        W34828  15.005  16.053   4.283 -0.1022  0.0366  0.1969
18355W        W34829  13.029   7.686   0.448 -0.1125 -0.3089 -0.0369
18356W        W34830  14.351  15.854  14.610 -0.2193  0.0490  0.1225
18357W        W34831   2.240  17.473  16.175  0.0752 -0.1833 -0.0009
18358W        W34832   1.384   8.964  12.741  0.0964 -0.2000 -0.0888
18359W        W34833  13.770  11.948   2.219 -0.2203  0.1052  0.1895
18360W        W34834  13.834  10.624  14.498 -0.0267 -0.0573  0.5038
18361W        W34835  14.492  17.265  15.644 -0.2053  0.0822 -0.0144
18362W        W34836   8.441  12.003   0.057 -0.3386 -0.0413 -0.0523
18363W        W34837  12.850   3.586   1.485 -0.3022  0.1659  0.3074
18364W        W34838   6.066  12.774   1.714  0.3297  0.0873 -0.3014
18365W        W34839   5.575   3.255  13.941  0.1105 -0.1212  0.0680
18366W        W34840   7.095  16.942  14.755 -0.1000 -0.0749  0.0052
18367W        W34841   1.603  10.623   4.048  0.2231 -0.1514  0.1617
18368W        W34842   7.715   4.650  12.097  0.1549  0.3067 -0.0200
18369W        W34843   1.773   5.624  13.954  0.2828 -0.1125 -0.1341
18370W        W34844  13.149   6.186   2.988  0.2874 -0.1351 -0.1128
18371W        W34845   6.939  17.459   5.384 -0.1535 -0.0319  0.0114
18372W        W34846   4.896   7.225   0.777 -0.0178 -0.1373 -0.2152
18373W        W34847   7.554  11.886   0.187 -0.2383 -0.0220 -0.0670
18374W        W34848   4.085   6.595  11.563  0.1723 -0.0052 -0.0640
18375W        W34849   0.428   1.338   3.316 -0.3264  0.3136 -0.1086
18376W        W34850   2.623  11.804  16.189  0.2040  0.0639 -0.0931
18377W        W34851   0.336  14.240  11.732 -0.6392 -0.2425 -0.1089
18378W        W34852   8.615  12.460   0.071  0.1262  0.1079  0.0853
18379W        W34853   8.587   5.410   3.983 -0.1626  0.1302  0.0784
18380W        W34854  14.549  14.232  12.495 -0.0568  0.1227  0.1295
18381W        W34855   2.510  17.889  15.720 -0.1172  0.1022 -0.0233
18382W        W34856  16.662   5.374  13.140 -0.3349  0.1108 -0.0020
18383W        W34857  17.405   9.900  11.583 -0.4258 -0.1496  0.3277
18384W        W34858  12.793  11.709  11.216  0.2705  0.0368  0.3769
18385W        W34859  13.844   7.835   2.005  0.0173  0.1940 -0.0758
18386W        W34860   7.585   0.615   5.976 -0.1748 -0.2563 -0.0866
18387W        W34861  17.371   6.922   5.589 -0.2397 -0.0966 -0.0960
18388W        W34862   5.489  12.413  12.907 -0.3512  0.1137 -0.2593
18389W        W34863  15.698   6.339   4.850  0.0708  0.0617  0.3957
18390W        W34864   5.166  16.188  13.697 -0.0479 -0.0099  0.0116
18391W        W34865   3.494   6.955  15.145 -0.1572 -0.0712 -0.3247
18392W        W34866  16.687   2.945   2.201 -0.1931 -0.4591  0.0908
18393W        W34867  15.569   9.231   1.769  0.0355 -0.1569  0.0813
18394W        W34868  18.013   8.573  16.278  0.0969 -0.0643 -0.1298
18395W        W34869   0.407   5.216   0.170  0.3300 -0.0027  0.2022
18396W        W34870   1.879  12.790  11.863  0.1246  0.0664 -0.0521
18397W        W34871  13.474  13.360   3.709  0.0687 -0.1463  0.1458
18398W        W34872   4.203   7.064   0.688 -0.0047  0.1842  0.3270
18399W        W34873   7.783  15.469   1.522 -0.4276  0.3070  0.0990
18400W        W34874   2.192   5.195  15.899  0.3274  0.0776 -0.0015
18401W        W34875  13.620  15.511   1.350  0.0766 -0.0009 -0.0534
18402W        W34876   6.956  12.076   1.005  0.1969  0.0437 -0.1300
18403W        W34877  18.030   9.154   1.300 -0.3028  0.0196 -0.0062
18404W        W34878  18.163   9.811   5.686 -0.0670  0.2328 -0.2980
18405W        W34879  12.345   3.655   3.030  0.0770 -0.2766 -0.0720
18406W        W34880   5.195   6.043  11.610  0.0067  0.0495  0.0785
18407W        W34881   4.072   5.948   4.358 -0.0866  0.1456  0.1296
18408W        W34882  14.019   9.208  13.076 -0.2081 -0.0932  0.0477
18409W        W34883   2.649  16.073   5.397  0.3305 -0.3046  0.2654
18410W        W34884  14.926  13.794  15.387 -0.0064 -0.2448 -0.3262
18411W        W34885   7.781  10.825  13.348 -0.0004  0.3352  0.1907
18412W        W34886   1.928   2.521   1.082  0.0233 -0.5146 -0.1042
18413W        W34887   1.497   5.030   4.304  0.1962 -0.2999 -0.1538
18414W        W34888   7.362  12.968   0.103  0.0939  0.3633 -0.1269
18415W        W34889  16.700   9.025  15.353  0.0872 -0.2531  0.1454
18416W        W34890   6.785   9.782  14.042 -0.1063  0.2333 -0.0275
18417W        W34891   7.697  14.301   2.604  0.3657 -0.0895 -0.2525
18418W        W34892  11.719  13.560   2.552  0.2394 -0.5543 -0.0588
18419W        W34893   2.033   2.795   0.577 -0.3475  0.1160  0.0602
18420W        W34894  14.685  12.593   0.454 -0.0312  0.1105  0.1900
18421W        W34895   9.477  12.730  15.856  0.0506  0.3550  0.0795
18422W        W34896   3.134   3.956   2.466 -0.1954 -0.0907 -0.0642
18423W        W34897   9.734  12.825   5.976  0.2576 -0.0176  0.2200
18424W        W34898  13.761  15.342  13.579  0.1518  0.1868  0.4581
18425W        W34899  16.782   3.464  15.918 -0.0871  0.0205 -0.1159
18426W        W34900   2.457   8.636  13.402 -0.1914 -0.0207  0.0307
18427W        W34901  13.153  17.824   2.486 -0.2033 -0.0117 -0.4643
18428W        W34902   6.212  12.223   0.054  0.1711  0.0575 -0.1678
18429W        W34903   3.337   5.449   4.463  0.0295 -0.1642  0.0877
18430W        W34904  17.667  17.233   0.251  0.0632  0.2223  0.2902
18431W        W34905   0.846   8.844  15.043 -0.1619 -0.1387  0.3375
18432W        W34906   9.332  14.794  15.690  0.1381 -0.1812  0.0950
18433W        W34907   2.013   6.873  11.542 -0.2496  0.0462 -0.0137
18434W        W34908  12.360   3.224  16.149 -0.3162 -0.0065 -0.0057
18435W        W34909   3.847  11.957   3.020  0.0664  0.0339 -0.1197
18436W        W34910   1.755   3.389   6.182  0.0807  0.0638 -0.1708
18437W        W34911   0.750   8.689  10.909 -0.0987  0.1354 -0.0955
18438W        W34912  16.362  10.140  15.377  0.0469 -0.0155 -0.1730
18439W        W34913   6.157  10.911   1.247  0.2152 -0.0761 -0.1803
18440W        W34914   1.368  13.707   1.927  0.2734  0.2302  0.1428
18441W        W34915   4.153  12.459   5.702 -0.0084  0.3324  0.0211
18442W        W34916   1.238   7.474   0.993  0.1225  0.1510  0.3437
18443W        W34917   6.131  14.620   4.852 -0.1407 -0.2617 -0.1744
18444W        W34918  13.342  17.563   4.243  0.0046 -0.2968  0.0814
18445W        W34919  10.616   1.999  12.556  0.2169 -0.5640 -0.0731
18446W        W34920   2.665  18.361  12.296 -0.3840 -0.2294 -0.0813
18447W        W34921   1.747  12.523  13.519  0.1428  0.0528  0.2487
18448W        W34922   7.131   2.499   3.224 -0.0371  0.0442 -0.2649
18449W        W34923   3.709   6.354  15.550 -0.4004  0.0290 -0.0320
18450W        W34924  12.475  12.662  13.231 -0.0430  0.1179  0.0113
18451W        W34925  12.398   0.493   2.467 -0.0664  0.2171 -0.1435
18452W        W34926  17.725   5.408  11.183  0.1572 -0.1575  0.1025
18453W        W34927   1.795   8.143   5.191  0.0449  0.2172  0.0896
18454W        W34928   4.800   5.276  15.060  0.2489 -0.0798 -0.1629
18455W        W34929   9.963   6.898  13.325  0.2843 -0.0062  0.0007
18456W        W34930   9.821   7.792  16.277 -0.2139 -0.2794 -0.3361
18457W        W34931  18.168  10.223  11.178  0.0366 -0.0536 -0.0063
18458W        W34932   4.199   5.083  14.942  0.0745 -0.1067 -0.2142
18459W        W34933  11.588   8.004  11.995  0.1459  0.0587 -0.2696
18460W        W34934   0.904   6.783  11.288 -0.0160 -0.0200 -0.1730
18461W        W34935   3.222  14.493  13.738  0.2169 -0.0371  0.1488
18462W        W34936   2.163  17.799   5.121  0.0473 -0.0269  0.0975
18463W        W34937  17.294   6.283   0.189  0.0112 -0.0672 -0.0387
18464W        W34938   8.389   1.809   5.662  0.2597 -0.1108 -0.3361
18465W        W34939   0.173   4.947   1.636 -0.2175 -0.1362 -0.3533
18466W        W34940   5.803   1.958  12.576  0.0014 -0.2826 -0.0843
18467W        W34941   2.453   3.309  11.745 -0.0820 -0.2154  0.0583
18468W        W34942   3.515  13.449   5.035 -0.0319  0.1541 -0.1027
18469W        W34943  13.904   7.742  15.479 -0.0878 -0.1739  0.0186
18470W        W34944   3.919   9.409   4.902  0.2318  0.1222  0.2368
18471W        W34945  17.596   3.330   3.594 -0.0069 -0.0785  0.0940
18472W        W34946   7.957   2.036  13.944 -0.0741  0.0240  0.1407
18473W        W34947   5.461   5.283   5.364  0.0109 -0.2623  0.1600
18474W        W34948   2.432   9.225   3.438  0.0696 -0.0899 -0.1510
18475W        W34949  15.556   5.711   4.415  0.2956 -0.2626 -0.0662
18476W        W34950  12.306   2.623   3.714  0.0108 -0.2443 -0.2879
18477W        W34951  17.609   3.676   0.753  0.1431 -0.0043  0.0195
18478W        W34952  11.885   4.012   4.739 -0.3707  0.0669 -0.0848
18479W        W34953  10.036   7.123  11.254  0.0265  0.3698 -0.1602
18480W        W34954  12.146  13.110   3.661 -0.2105  0.0375 -0.0867
18481W        W34955   8.826   2.377   3.927 -0.0655 -0.3042 -0.0542
18482W        W34956  14.538   0.106  11.812  0.0267  0.1892 -0.2504
18483W        W34957   0.242  18.286   1.099  0.1379 -0.0140  0.1106
18484W        W34958  15.255   0.709  15.724  0.0094  0.0922  0.1537
18485W        W34959  12.349  17.139   0.681 -0.1060 -0.1744 -0.0661
18486W        W34960   9.731   4.545   0.185 -0.1990  0.2510 -0.1439
18487W        W34961  11.106   9.515  10.805  0.0992  0.0017 -0.2976
18488W        W34962   4.575  17.808  15.814  0.0248 -0.2730 -0.1744
18489W        W34963  11.880   4.582  13.587 -0.0679  0.0831  0.1345
18490W        W34964   2.833  17.915   3.828 -0.1448  0.0392 -0.3102
18491W        W34965   4.503  11.919   2.812  0.0914 -0.0401  0.1505
18492W        W34966  12.745   9.917  10.752  0.2512 -0.1132 -0.3250
18493W        W34967   4.924   2.377  12.232  0.2187  0.0449  0.0192
18494W        W34968   7.790   9.151  12.657  0.0020  0.1793  0.0438
18495W        W34969  17.928   5.029   4.902 -0.1238 -0.0369 -0.3604
18496W        W34970  17.404  13.000   2.886 -0.1455  0.1788  0.0199
18497W        W34971  14.895   5.787  13.835 -0.0981 -0.0712  0.3684
18498W        W34972   3.077   5.504  14.343 -0.1327 -0.3055 -0.0929
18499W        W34973  10.613   8.666  12.894 -0.0996 -0.4381  0.3025
18500W        W34974  17.829  12.029  12.573  0.0046  0.4550  0.0511
18501W        W34975  18.277   4.586  11.044  0.0095 -0.1440 -0.0191
18502W        W34976   3.364   8.601   1.175 -0.2159  0.1980 -0.0461
18503W        W34977   6.289   0.512  14.840 -0.0534  0.1088 -0.3776
18504W        W34978  17.269  16.726  14.605  0.1135 -0.2658 -0.1410
18505W        W34979  11.318   9.081  14.229  0.1247  0.2770 -0.1867
18506W        W34980   7.774   7.874  15.678 -0.1516  0.4027 -0.3038
18507W        W34981   0.846   9.397   6.040 -0.2017  0.0530 -0.2185
18508W        W34982  12.805  12.842   1.843 -0.3593  0.0532 -0.2109
18509W        W34983  10.828   2.699  13.314  0.0774  0.1825 -0.4934
18510W        W34984   8.197   2.374  13.539 -0.0380  0.2035  0.2925
18511W        W34985   5.113  14.967  15.876 -0.0669  0.0605 -0.1634
18512W        W34986   6.016  14.128  15.960  0.0024  0.1361 -0.1011
18513W        W34987  12.190   0.075  13.744  0.1392 -0.4079 -0.2804
18514W        W34988   6.565   1.838   3.059  0.2414  0.0297  0.0343
18515W        W34989   0.804   9.670   3.495  0.3129 -0.2010 -0.0707
18516W        W34990  10.594  12.698  13.671 -0.0044 -0.0977 -0.3488
18517W        W34991  15.690  12.739   1.979  0.1283  0.0325 -0.0279
18518W        W34992   6.116   8.564  11.511  0.0403  0.1261  0.1259
18519W        W34993  14.157  11.431  16.213  0.2537  0.2340 -0.2050
18520W        W34994   8.390  15.941   5.218 -0.0464 -0.1409 -0.1983
18521W        W34995  17.113   8.725  14.303  0.0443 -0.2900 -0.1616
18522W        W34996  12.909   7.047  15.227  0.0596 -0.0787  0.1988
18523W        W34997  11.686  12.086  14.180  0.0053 -0.2203  0.0595
18524W        W34998   6.724   6.895   2.369  0.1102 -0.2333  0.0668
18525W        W34999   0.799  11.415   3.466  0.0377  0.0131 -0.0710
18526W        W35000  17.104  10.384   4.672  0.1227  0.2913  0.1027
18527W        W35001   0.195  10.043  12.398  0.1369 -0.1505  0.1676
18528W        W35002  14.013   3.110  15.162 -0.1750 -0.0504 -0.0779
18529W        W35003  10.001   3.393  15.505  0.1016 -0.1429 -0.0158
18530W        W35004  14.397   1.058  13.129  0.1881 -0.2400 -0.1915
18531W        W35005  17.533  17.678  14.740 -0.0375  0.1089 -0.2889
18532W        W35006  16.492   0.373   4.893 -0.0835  0.0902  0.2265
18533W        W35007   9.854  11.859   5.118 -0.3443  0.3645 -0.1506
18534W        W35008   4.937   5.862  12.357  0.0222 -0.0292  0.1845
18535W        W35009   0.377   7.482  12.086  0.0432 -0.2676 -0.1017
18536W        W35010   8.371   8.125   0.917  0.3866 -0.1344 -0.0634
18537W        W35011  10.726  16.794   4.061  0.5697  0.2429 -0.3469
18538W        W35012  14.295  12.594  14.307 -0.2446 -0.0751 -0.3302
18539W        W35013   3.722   6.865   0.445  0.0511  0.0915  0.0306
18540W        W35014   1.967  10.860   1.732  0.0519  0.0234  0.0605
18541W        W35015   9.038   1.699   3.285 -0.0384  0.0754  0.0561
18542W        W35016   8.184   5.589   4.369  0.0106 -0.0190 -0.0230
18543W        W35017  16.505   7.988  14.032 -0.0216  0.3322 -0.0635
18544W        W35018  14.625   8.527  14.534  0.2011  0.1859  0.2896
18545W        W35019  18.101  16.810  13.604 -0.0440 -0.2995  0.1469
18546W        W35020   8.410   7.784  15.620 -0.0301  0.0720  0.1389
18547W        W35021   8.607   6.678  15.543  0.2694  0.1726  0.0524
18548W        W35022   8.966  15.625   0.730  0.1261 -0.0193  0.0520
18549W        W35023  14.143  15.653  14.187  0.0212  0.0950  0.0905
18550W        W35024   4.111  16.564  15.687  0.1265 -0.0819  0.2092
18551W        W35025  18.017  12.526   5.667 -0.6242 -0.0662  0.1961
18552W        W35026   1.727  14.108  12.233 -0.0450 -0.0382 -0.0508
18553W        W35027   0.508   7.380   2.571 -0.2191  0.3113 -0.1694
18554W        W35028   2.515   2.396   5.742  0.1570  0.1210  0.2804
18555W        W35029   4.103   1.822   3.354  0.1337 -0.3618 -0.2771
18556W        W35030  14.508  14.668   2.544 -0.2030 -0.0715  0.0722
18557W        W35031   1.979  17.993   5.567  0.1445  0.1044  0.2120
18558W        W35032  13.301   7.629   3.204  0.3037  0.1302  0.1873
18559W        W35033   5.947  16.562  15.390  0.1842  0.2847 -0.2158
18560W        W35034  11.961   7.002  13.720 -0.0527  0.1575  0.2541
18561W        W35035   3.417  17.973  11.659 -0.2060  0.2486  0.1343
18562W        W35036  17.404   9.908   2.061 -0.2569  0.0579  0.0770
18563W        W35037  15.992   3.490  12.470 -0.0012  0.2167  0.2330
18564W        W35038   8.435  13.939   3.097 -0.0736 -0.3179  0.0926
18565W        W35039   6.055  12.223   0.846 -0.1964  0.3509 -0.0029
18566W        W35040   0.526  15.283  11.812  0.0463 -0.2949  0.2717
18567W        W35041   5.904   1.070  13.156  0.5051  0.1112  0.2081
18568W        W35042  10.931   6.262   1.288 -0.4772  0.1923  0.0281
18569W        W35043   5.611  10.846   2.127  0.0337 -0.3236 -0.0578
18570W        W35044   4.171   1.766   0.061  0.2521  0.1694  0.0963
18571W        W35045  15.589  11.128   1.317  0.0043 -0.0165  0.2220
18572W        W35046   3.303  16.252  12.533  0.0655 -0.1622  0.0319
18573W        W35047   7.618  13.777   5.677  0.1357  0.0360  0.1860
18574W        W35048   1.499  13.688   4.083 -0.3421  0.0257  0.1974
18575W        W35049   9.982  12.778   4.981  0.2267  0.1241  0.2037
18576W        W35050   5.806   8.701  11.083 -0.1141 -0.0828  0.1816
18577W        W35051  17.950  15.357   2.826  0.1631 -0.1885 -0.0584
18578W        W35052  18.213   4.175   2.153  0.0190 -0.2884  0.2483
18579W        W35053  14.779  17.844   0.588  0.0629  0.2315  0.0955
18580W        W35054   0.638   1.715   4.306 -0.0482  0.0306 -0.1597
18581W        W35055  15.254  16.110   5.794 -0.1968 -0.2773  0.2223
18582W        W35056   0.184   2.014  15.518 -0.2723 -0.3158 -0.0274
18583W        W35057   0.470  14.749  12.700 -0.1945 -0.1234  0.0545
18584W        W35058  14.986  14.385  14.890  0.2311 -0.1109 -0.1301
18585W        W35059   7.773   4.197   2.818 -0.0322 -0.0686 -0.0285
18586W        W35060  15.040  15.816   0.335  0.0009 -0.0162  0.0468
18587W        W35061   1.907   9.995   3.564 -0.0812  0.0839 -0.1209
18588W        W35062   2.248   8.817  15.522 -0.0957  0.2319  0.1513
18589W        W35063   1.008  17.139   0.236 -0.3049  0.1145  0.0129
18590W        W35064  11.379  16.959  15.452 -0.0538 -0.2866  0.0161
18591W        W35065  13.543   4.799  15.609 -0.1090  0.2858 -0.2296
18592W        W35066   1.869   1.349   4.146 -0.1561 -0.0531 -0.3336
18593W        W35067  12.553   8.884  15.082  0.2267  0.1921 -0.1360
18594W        W35068  17.102   7.448   3.539  0.1440  0.1384 -0.4641
18595W        W35069   5.703   9.229   2.099 -0.0324 -0.0943 -0.3750
18596W        W35070  11.713  13.111  13.130 -0.0331  0.0396 -0.0087
18597W        W35071   1.103  17.465   5.220 -0.2508  0.1057  0.0535
18598W        W35072   2.246   2.669  13.454 -0.2466  0.1550 -0.1888
18599W        W35073  13.167   2.186   2.808 -0.3436  0.0174  0.0196
18600W        W35074  13.232   9.450  15.190  0.1885  0.3081 -0.2538
18601W        W35075   0.885   8.384   2.582 -0.2863  0.0257 -0.1492
18602W        W35076   6.552   2.311   1.410 -0.0268  0.3296  0.0761
18603W        W35077  14.527  17.780   5.104  0.4732 -0.1508 -0.0693
18604W        W35078  14.804   3.949  15.024 -0.1254  0.0122  0.0114
18605W        W35079  18.266  14.668   4.758 -0.1054 -0.2805 -0.0095
18606W        W35080  16.878   7.638   0.270  0.0307 -0.1198  0.0630
18607W        W35081  12.027   0.115  15.386  0.5234 -0.1219 -0.1092
18608W        W35082  10.438   0.609  12.620  0.0231  0.4498  0.0296
18609W        W35083   9.897   2.663   3.641  0.1782  0.0072 -0.0409
18610W        W35084   7.680   8.411   4.177  0.1049 -0.2226 -0.0744
18611W        W35085  17.809  11.950   5.006 -0.6384  0.1170  0.2444
18612W        W35086   1.893   4.998  14.993 -0.2718  0.0289 -0.1904
18613W        W35087   7.048   6.307  12.586  0.2176 -0.1405  0.4077
18614W        W35088  17.805   3.966   4.761 -0.0461 -0.0202  0.1295
18615W        W35089   7.182   4.404   0.824  0.1162 -0.0374 -0.0017
18616W        W35090  14.629   2.098  12.352 -0.1985  0.1936  0.1220
18617W        W35091   4.443  13.084  14.171 -0.0596  0.4433 -0.1104
18618W        W35092  11.187  10.985  16.216  0.3579 -0.0632  0.0226
18619W        W35093  15.538   9.214   3.087 -0.1098  0.0360 -0.3750
18620W        W35094  17.437  17.506  11.396  0.0969 -0.1847  0.0061
18621W        W35095  13.856   8.793  13.936  0.0528  0.1977  0.3574
18622W        W35096  12.563   1.569   5.085  0.0460  0.0067  0.1584
18623W        W35097   1.104  10.481   2.400 -0.0385  0.0361 -0.1301
18624W        W35098   6.252   0.868   1.332  0.0514  0.1004 -0.0201
18625W        W35099  14.264   9.337   2.989  0.3720 -0.2111 -0.0761
18626W        W35100   4.759  12.770   1.470 -0.1311 -0.0415 -0.1834
18627W        W35101  13.766  10.737   3.332  0.4028  0.1078  0.2163
18628W        W35102   0.531  12.336   3.196  0.1246  0.0975  0.4645
18629W        W35103   0.390  16.379   2.680  0.1925 -0.0147 -0.0218
18630W        W35104   1.787  12.629   3.897  0.1544  0.0689 -0.2834
18631W        W35105   9.031  12.556   2.137 -0.2900 -0.0570  0.1801
18632W        W35106   6.348  12.395   1.874  0.2705  0.1874  0.1987
18633W        W35107  13.246   0.388   2.650  0.1753 -0.1319 -0.2296
18634W        W35108  11.576  10.188  15.756 -0.0622  0.1316 -0.3253
18635W        W35109  14.037   4.325   2.179 -0.0667 -0.0477 -0.1634
18636W        W35110   1.651  10.692  13.052 -0.1176 -0.3036  0.0016
18637W        W35111   4.606   2.624  16.064 -0.0074  0.4167 -0.1028
18638W        W35112   0.311  17.804   1.102 -0.0435 -0.1003 -0.2134
18639W        W35113   6.781   6.419  10.821 -0.0715 -0.2305  0.2100
18640W        W35114  11.473   5.404  11.290 -0.1157  0.1381 -0.0656
18641W        W35115   1.276   2.413  14.830 -0.1673  0.1786  0.0016
18642W        W35116   0.122  12.173   1.642  0.3732  0.1268  0.0947
18643W        W35117  15.278  16.400   4.590  0.1027  0.1692 -0.0479
18644W        W35118  15.247   8.664  12.261 -0.2678 -0.2532 -0.4082
18645W        W35119   3.087  18.077   4.913 -0.3228 -0.2581 -0.3971
18646W        W35120   9.476  14.393  12.083  0.3609 -0.3993 -0.0403
18647W        W35121   6.839   0.342   0.715  0.3363 -0.1699  0.0550
18648W        W35122   9.350  10.334   5.223 -0.1386 -0.3059  0.0278
18649W        W35123   0.300   6.341   5.741  0.0626 -0.0172 -0.1403
18650W        W35124   8.005   0.153   3.687  0.1453 -0.1640 -0.1842
18651W        W35125  17.646  13.263   1.754  0.0598  0.0098 -0.1189
18652W        W35126   3.988   6.747   3.312  0.2860 -0.2372 -0.2374
18653W        W35127   2.152  10.639  12.010 -0.2456  0.1126 -0.1213
18654W        W35128   7.980   6.103  11.331 -0.1862  0.1500 -0.2015
18655W        W35129  16.272  15.646  13.503 -0.1040  0.0251  0.0451
18656W        W35130   7.058  11.857  14.878  0.1513  0.2539  0.2431
18657W        W35131   9.295  15.554   5.176 -0.0388 -0.0615  0.2325
18658W        W35132   6.050   2.890   4.176 -0.0216 -0.4109 -0.1966
18659W        W35133  14.422   6.129   1.515  0.0604 -0.0739 -0.2018
18660W        W35134  17.967   2.753  11.098  0.0321  0.3293  0.2809
18661W        W35135  18.310  16.642   1.966 -0.1505 -0.3004 -0.1443
18662W        W35136   7.898  11.056  12.314 -0.1475  0.0950  0.0787
18663W        W35137  14.243   8.307   4.044  0.2827 -0.4287 -0.0824
18664W        W35138  17.253  12.558   0.430  0.3356  0.0568  0.1869
18665W        W35139  12.213   8.308   2.479  0.2470 -0.0669  0.0176
18666W        W35140  16.266  17.812  14.346 -0.0964 -0.0815  0.1593
18667W        W35141   1.890   1.723  12.549  0.1255  0.0492  0.0527
18668W        W35142   9.298  16.442  15.085 -0.0795  0.3051  0.0773
18669W        W35143   5.206   4.665  15.847  0.0664  0.1524  0.0605
18670W        W35144  17.396   8.368  11.091 -0.1137 -0.0064  0.0898
18671W        W35145   5.030  10.860  11.708  0.2385  0.1594  0.0574
18672W        W35146   7.702  17.326   5.675  0.1028  0.1319 -0.2686
18673W        W35147  16.420  12.451   2.174 -0.2018 -0.0669 -0.0942
18674W        W35148   0.484   8.236  12.788 -0.0459  0.1461  0.0494
18675W        W35149  18.097  11.101   5.320 -0.3067  0.0601  0.1598
18676W        W35150   2.821  10.765   0.261  0.0095  0.1493  0.0355
18677W        W35151   4.405   6.893   3.533  0.1768 -0.0850 -0.0632
18678W        W35152   9.834  17.838  14.351 -0.0979  0.0791 -0.0564
18679W        W35153  13.317  18.189   4.916  0.4050  0.0366 -0.1031
18680W        W35154   1.408  10.479   3.057  0.1610 -0.2952  0.0183
18681W        W35155  14.605  13.864  14.073 -0.0826 -0.5146  0.1200
18682W        W35156  15.849  16.918   5.501 -0.1383 -0.3633  0.1397
18683W        W35157  10.420  15.359   4.958 -0.2507  0.1285  0.1982
18684W        W35158   0.952  11.762  16.252  0.0304  0.1800  0.0882
18685W        W35159  13.431  17.451   2.240 -0.5288 -0.0968 -0.1539
18686W        W35160   2.562  10.693   1.856 -0.0920  0.1927  0.0415
18687W        W35161   0.128   1.220   5.537 -0.1888 -0.2650  0.0504
18688W        W35162  16.040  10.372   5.290  0.1992 -0.1010 -0.0921
18689W        W35163   7.720   4.780   0.215 -0.0428  0.0494  0.2286
18690W        W35164   6.323   4.505   4.549 -0.0125 -0.0498 -0.1635
18691W        W35165  12.120  13.339   1.599 -0.0951  0.0538  0.1231
18692W        W35166   8.194   6.176   5.731  0.0683 -0.1233 -0.0704
18693W        W35167   8.676   3.001   0.301  0.1532  0.3756  0.0092
18694W        W35168  16.972   9.139  11.126 -0.3499  0.0612  0.1815
18695W        W35169  16.776  18.252   4.648 -0.2540 -0.0415  0.1219
18696W        W35170  10.417   3.476   1.771  0.2826 -0.3549  0.1621
18697W        W35171   7.596  10.387  12.486  0.1886  0.1968 -0.2542
18698W        W35172   7.819   6.990  12.828  0.1800  0.1039  0.1726
18699W        W35173  13.498  16.335  14.433  0.1500  0.1434  0.1716
18700W        W35174  11.694   4.767  14.072 -0.5098  0.0641  0.3355
18701W        W35175  14.595   5.266  16.310 -0.0037  0.5421 -0.0071
18702W        W35176  14.449  13.552  11.372 -0.0170 -0.0580  0.0232
18703W        W35177   2.434  10.081   5.044  0.0130  0.0532  0.0447
18704W        W35178  13.011   0.314   1.241  0.0808 -0.0860  0.0819
18705W        W35179   3.611   7.011   5.133  0.0141 -0.1283 -0.0953
18706W        W35180  12.084  12.194  13.546 -0.1427  0.0127  0.1222
18707W        W35181   4.596   8.953  13.753  0.1284  0.0157 -0.1644
18708W        W35182  14.187   8.914  11.317  0.2944  0.1028  0.2262
18709W        W35183   2.887   3.660   3.590 -0.0294  0.3696  0.0033
18710W        W35184   8.833  10.052  11.895 -0.3110 -0.1847 -0.0172
18711W        W35185  11.316   0.783   3.917  0.1305 -0.1187 -0.1241
18712W        W35186  11.384   4.398   4.816  0.2260 -0.2380 -0.1288
18713W        W35187  14.627  10.130   5.108  0.1084 -0.1440  0.0986
18714W        W35188  16.125   5.047  14.067 -0.5205  0.1754  0.3647
18715W        W35189  16.798  17.436   5.140  0.1274  0.0607  0.3814
18716W        W35190  15.357   8.372  11.900 -0.1405 -0.0099  0.0836
18717W        W35191   2.134  13.132   4.638  0.1197  0.0749  0.0449
18718W        W35192  13.417   3.151   0.551  0.0148  0.0206  0.1009
18719W        W35193  12.831   7.079  13.439 -0.1286 -0.0063 -0.1919
18720W        W35194   5.585   9.049   4.645 -0.0458  0.1313  0.2299
18721W        W35195  13.563  17.127  16.121  0.1940  0.2517 -0.0855
18722W        W35196  14.670  13.186   3.123  0.1029  0.4076 -0.2849
18723W        W35197  11.231   6.028   2.855  0.1264  0.0478 -0.0604
18724W        W35198  17.523  15.292  12.012  0.1307 -0.1570  0.2010
18725W        W35199   7.915  10.864   3.641 -0.1698  0.1358  0.4116
18726W        W35200   1.916  11.561  13.227  0.0671  0.1706 -0.0353
18727W        W35201  12.184  12.513  12.872 -0.3050 -0.2838 -0.1736
18728W        W35202   9.637   5.805   2.167 -0.1562 -0.0845 -0.3285
18729W        W35203  10.179   8.010  11.333  0.1793  0.1684 -0.1884
18730W        W35204   3.548  12.341   3.935 -0.2424 -0.2007 -0.2910
18731W        W35205  12.088  15.592   3.529 -0.0757 -0.1866  0.0254
18732W        W35206  13.153   3.114   2.766  0.1354 -0.1392 -0.1275
18733W        W35207  14.665   9.536  12.107 -0.2133 -0.0884 -0.0569
18734W        W35208  11.050   9.831  14.611  0.3291 -0.5659 -0.0029
18735W        W35209  14.257  10.302   0.000 -0.1572  0.0016  0.0869
18736W        W35210   1.333  16.019   0.105 -0.0712 -0.0992  0.0712
18737W        W35211   6.896   9.578  12.610 -0.1172 -0.2831  0.0180
18738W        W35212  11.054  16.390  11.716  0.4647  0.0761 -0.0876
18739W        W35213   8.044  12.616  15.998 -0.1379 -0.2477 -0.1800
18740W        W35214  15.260  16.989   5.536 -0.0299  0.0577 -0.2337
18741W        W35215  15.677  12.158  11.936 -0.1030 -0.0734  0.0283
18742W        W35216  17.637  17.767   4.313  0.2977  0.1221 -0.2082
18743W        W35217   2.003   1.038   2.192  0.1503 -0.3406 -0.4123
18744W        W35218   2.511  15.781   1.095  0.0176  0.0335 -0.3389
18745W        W35219   6.350   9.236   2.591 -0.2003 -0.0665 -0.3383
18746W        W35220  10.882   2.507  14.688  0.1446 -0.0964 -0.1074
18747W        W35221  18.390   5.032  11.755  0.2675 -0.1628 -0.1329
18748W        W35222  11.083   2.187   2.405  0.1869  0.1201 -0.0912
18749W        W35223   6.528  16.650  11.942 -0.0856  0.1309 -0.1335
18750W        W35224   5.816  16.023   3.735  0.0411 -0.0617 -0.0399
18751W        W35225   0.533   6.025  15.647  0.1948 -0.2262  0.1134
18752W        W35226   9.861   3.968   2.461  0.2173 -0.1749  0.1352
18753W        W35227   8.432   3.174   3.357  0.0215  0.1346  0.3284
18754W        W35228  15.884   1.791   2.120  0.3078 -0.0855 -0.1854
18755W        W35229   8.866   7.178   3.882 -0.0551  0.0243 -0.0582
18756W        W35230   2.214   4.249   6.106 -0.0558 -0.0990  0.1042
18757W        W35231   1.910   6.811   5.343  0.0332 -0.2679  0.1012
18758W        W35232   2.752   3.877  14.053  0.0133 -0.2013 -0.1126
18759W        W35233   0.869  14.979  14.375  0.0039 -0.1251  0.0649
18760W        W35234   9.114   6.954  12.099 -0.0877  0.2790  0.1201
18761W        W35235   4.083  14.008   1.340 -0.0919 -0.0891 -0.0913
18762W        W35236   6.021  14.683  14.157 -0.3443 -0.4023 -0.1428
18763W        W35237   9.404   4.519  12.876  0.0413  0.4162 -0.2519
18764W        W35238  17.359   7.043   4.725 -0.1663  0.2993  0.0412
18765W        W35239  16.928   6.133   3.088 -0.0119  0.0278  0.1538
18766W        W35240  14.069   0.144  14.310 -0.0366 -0.0522 -0.0124
18767W        W35241   7.958   6.679   0.220  0.4623 -0.3113  0.0634
18768W        W35242   8.372  12.163  13.770 -0.0445 -0.2847 -0.0685
18769W        W35243   6.876   4.589   1.768 -0.1445  0.2854 -0.2321
18770W        W35244   8.451  10.787   2.871  0.0053  0.0677  0.2002
18771W        W35245   2.070   0.042  13.518 -0.2559 -0.1161 -0.0484
18772W        W35246   5.592   9.626  12.777 -0.0977  0.2992 -0.0342
18773W        W35247   7.241  11.201  16.108  0.0391 -0.4182  0.0445
18774W        W35248  14.350  16.732  13.901 -0.0657 -0.0962 -0.3684
18775W        W35249  11.295   2.664  11.498 -0.0052 -0.2758  0.1284
18776W        W35250   9.384   1.964   2.139 -0.2037  0.1654 -0.1360
18777W        W35251   8.612  12.849   5.317 -0.0108  0.1471 -0.0545
18778W        W35252   0.321   9.511   5.233  0.1129 -0.5777  0.0384
18779W        W35253  11.655   5.653   1.481  0.1470 -0.1275 -0.0151
18780W        W35254  14.533  14.210   3.851  0.0246  0.1623  0.0822
18781W        W35255   9.381   9.769   0.913  0.1539 -0.2839 -0.1924
18782W        W35256   0.360  10.391  14.165  0.0162 -0.1491  0.0805
18783W        W35257  10.744  14.961   4.143 -0.0238  0.1703 -0.0441
18784W        W35258   8.585  12.158  12.444 -0.0664  0.0831  0.1239
18785W        W35259  16.175  10.403  14.287  0.1415 -0.2090 -0.0148
18786W        W35260   8.094   4.110  14.163 -0.2194  0.3425 -0.1868
18787W        W35261  11.936   0.969  14.091 -0.1216 -0.4512 -0.2929
18788W        W35262  16.443  18.022  11.701 -0.2786  0.0659  0.2347
18789W        W35263  10.185   9.163   0.162 -0.2206 -0.2367  0.0622
18790W        W35264  15.071   4.450  12.311  0.1870  0.2287 -0.1468
18791W        W35265   5.277  12.321  11.391  0.2866 -0.2395  0.0157
18792W        W35266   2.781   2.924   1.916 -0.0169  0.3913  0.0082
18793W        W35267  15.877  17.092   1.158  0.3996  0.0815 -0.0788
18794W        W35268  17.008  10.393  14.192 -0.0742 -0.0301  0.2411
18795W        W35269  17.283   3.327   2.164  0.0459 -0.2963  0.2590
18796W        W35270  13.986  16.497   1.409 -0.0748 -0.3799 -0.2932
18797W        W35271   8.338   3.691   1.648 -0.1043  0.1068 -0.1187
18798W        W35272  11.324  12.125  14.511  0.1963 -0.1594 -0.3508
18799W        W35273  18.207   5.191   1.929  0.0248  0.3819 -0.1361
18800W        W35274   9.005   8.896   4.333  0.5954  0.2326  0.2509
18801W        W35275  12.945   7.682  11.834 -0.2651 -0.2457 -0.2473
18802W        W35276   0.445   3.581   3.830 -0.0900  0.1409 -0.1497
18803W        W35277  15.095   5.725   4.043  0.1699  0.0265 -0.0498
18804W        W35278  17.456   3.173  14.462  0.2348 -0.1860  0.2170
18805W        W35279   6.980  13.038   1.217 -0.2330 -0.2974 -0.2518
18806W        W35280  11.025   9.983   1.150 -0.3086  0.0651 -0.0674
18807W        W35281  14.119  17.851   5.379  0.1303  0.1592 -0.2630
18808W        W35282   2.739   4.236  14.406 -0.0500 -0.2198 -0.0715
18809W        W35283   5.401   3.716  12.133  0.0936  0.0842 -0.1410
18810W        W35284   0.458  11.936  13.524 -0.3814  0.0247  0.3234
18811W        W35285  16.984  13.013  15.825  0.0706  0.3075 -0.2037
18812W        W35286  15.056  16.122  16.119  0.0696 -0.3675  0.1841
18813W        W35287   9.543   2.504   5.225  0.0738  0.1012 -0.1006
18814W        W35288  13.098   0.562   3.118 -0.2751  0.2558  0.0699
18815W        W35289  11.082  14.796   5.496 -0.2388  0.2289 -0.1894
18816W        W35290   6.897   3.619   4.240  0.0236  0.0642  0.2022
18817W        W35291   8.276  13.321   4.643  0.2478  0.0148 -0.0738
18818W        W35292  13.400   5.704  10.901 -0.0598  0.4352  0.0530
18819W        W35293   6.254   2.787   4.597  0.0985  0.1084  0.2294
18820W        W35294   8.244   6.948  15.764 -0.2975  0.0626 -0.0154
18821W        W35295  12.153  16.696   1.796 -0.1636  0.3406  0.1548
18822W        W35296  16.166  16.360   4.120 -0.0260 -0.0732  0.0789
18823W        W35297   0.715   5.440   4.580 -0.0734 -0.1547  0.1126
18824W        W35298   9.179   8.210   1.730  0.3013  0.1915  0.1301
18825W        W35299  17.723  11.657   4.284  0.0609  0.1012 -0.0982
18826W        W35300  15.012   4.364  14.180 -0.1148  0.2141 -0.0088
18827W        W35301   1.368  15.285   6.457  0.2542 -0.1927 -0.0841
18828W        W35302  16.569   1.614   1.775  0.1864  0.3768 -0.2018
18829W        W35303   0.558   3.119   0.385 -0.1307  0.2351  0.1042
18830W        W35304   3.102   7.063  13.445  0.4106 -0.0756 -0.0192
18831W        W35305  14.425   3.726   4.719 -0.4930  0.0879  0.0610
18832W        W35306  13.306  13.078  15.189  0.2000  0.1399 -0.4133
18833W        W35307  10.241   0.901   1.649  0.3661  0.4633  0.0465
18834W        W35308  13.544   4.651  15.105  0.1036 -0.0563 -0.0163
18835W        W35309   8.967   0.780   2.002  0.0395  0.0962 -0.0251
18836W        W35310   1.607  16.919   4.454 -0.1618 -0.2841 -0.3556
18837W        W35311  17.515  15.432   3.170 -0.1217  0.2200  0.0037
18838W        W35312  14.969   5.713  15.050 -0.2373  0.1941 -0.0939
18839W        W35313  13.770   0.657  11.524  0.2124 -0.2383  0.0844
18840W        W35314  10.747   2.916  14.978 -0.2492 -0.0093  0.1364
18841W        W35315  11.389   8.644  13.908  0.1785  0.1364 -0.1447
18842W        W35316  17.221   9.326   0.736 -0.1737  0.3972  0.2633
18843W        W35317  10.725  17.427  14.075 -0.2666 -0.1314  0.0497
18844W        W35318   0.636   5.086  14.078  0.1378  0.0880 -0.2148
18845W        W35319   1.498  14.696   4.145  0.0222  0.1150 -0.0822
18846W        W35320   8.629   1.427   2.548  0.0146  0.1610  0.1878
18847W        W35321   1.042   4.693   1.350 -0.1037  0.0265  0.0982
18848W        W35322   2.445   8.964   4.828  0.1231 -0.0967  0.0801
18849W        W35323   4.539  12.872   2.417 -0.0108  0.0356  0.1014
18850W        W35324  13.370   0.529   3.543  0.2773  0.0091  0.3422
18851W        W35325   0.786  17.702  12.901 -0.1132  0.2614 -0.0195
18852W        W35326  11.460  15.737   5.881 -0.2398 -0.0729  0.3008
18853W        W35327  14.313   5.914   4.221 -0.1945 -0.2330 -0.2480
18854W        W35328   7.411   6.779  13.135 -0.1112  0.1731  0.0429
18855W        W35329  16.496   1.076   2.392  0.1784 -0.1868  0.1601
18856W        W35330   3.520  17.776   2.427  0.0022 -0.1829 -0.2657
18857W        W35331  16.276   5.226  12.248 -0.3726 -0.4388 -0.0508
18858W        W35332  15.446  11.207   4.936  0.1979 -0.1748 -0.2489
18859W        W35333  11.219  16.992   5.995  0.0673 -0.3015 -0.2769
18860W        W35334   5.136   0.358   0.736  0.1118  0.2170 -0.1511
18861W        W35335   5.429  13.643  14.709  0.1206 -0.0122 -0.1983
18862W        W35336  11.832   3.571  14.115  0.3196  0.2539  0.1818
18863W        W35337   6.535  16.944   6.141 -0.0818  0.3426  0.0026
18864W        W35338  10.136   1.001  12.240 -0.2294 -0.0058  0.1083
18865W        W35339   7.260  13.706   3.832 -0.0440 -0.2691 -0.2136
18866W        W35340   2.436  15.021  15.798  0.0200  0.3181  0.0931
18867W        W35341   2.321  14.351   4.260  0.1902  0.3410  0.2972
18868W        W35342   4.326  18.148   5.583 -0.1353  0.3381 -0.2302
18869W        W35343   2.154   2.165  14.258 -0.1567  0.0752 -0.2993
18870W        W35344  10.750   7.934   1.231  0.0895  0.2232  0.2875
18871W        W35345   2.697   4.440   2.678 -0.1808 -0.0932 -0.3702
18872W        W35346  11.139   0.352   5.710 -0.1693 -0.2339  0.3450
18873W        W35347   8.388   8.055   4.232 -0.0139 -0.1495  0.2010
18874W        W35348   5.449  11.749   4.608  0.0892 -0.0131  0.1364
18875W        W35349   6.419   0.105  16.324 -0.3343  0.2238 -0.0031
18876W        W35350  16.434  16.692   2.478  0.1248  0.1610  0.3180
18877W        W35351   5.657   5.034   4.414  0.0680 -0.0535 -0.3459
18878W        W35352  13.999  14.160   2.130 -0.0656 -0.0618 -0.0448
18879W        W35353   3.493   4.398  15.209  0.1819  0.1641 -0.1252
18880W        W35354   8.285  11.010   2.476  0.2275  0.0858  0.3863
18881W        W35355   9.381   5.488  13.028 -0.0091  0.0913 -0.0071
18882W        W35356  12.900   5.553  14.577 -0.0318 -0.1282  0.0798
18883W        W35357  10.813   1.725  15.189 -0.0522 -0.0193 -0.0180
18884W        W35358   5.002  10.792  14.470  0.0313  0.1504  0.1568
18885W        W35359  13.659   8.877  11.400 -0.0318  0.0904 -0.2407
18886W        W35360  10.038   7.505   1.688  0.2406 -0.1743  0.0953
18887W        W35361   0.558   6.810   5.110 -0.2262 -0.0138 -0.1515
18888W        W35362  12.674  18.312   5.675  0.0652  0.4773 -0.2221
18889W        W35363   7.037   7.040  15.016  0.1285 -0.0065 -0.1615
18890W        W35364  15.385  16.122   5.315  0.0239  0.2481 -0.1555
18891W        W35365  15.572   6.757   3.555  0.3241 -0.0084  0.0067
18892W        W35366   1.992   9.555  13.728  0.3345 -0.0033  0.2543
18893W        W35367   3.857   0.457   5.774  0.0075  0.1233 -0.0546
18894W        W35368  14.095   0.366  11.716  0.1555  0.4970 -0.0351
18895W        W35369   4.830   7.038   4.171  0.0123  0.2528 -0.0664
18896W        W35370  17.646  16.069  12.828  0.2922 -0.0985 -0.0230
18897W        W35371  13.001   7.825  16.246 -0.2224  0.0720  0.0900
18898W        W35372  14.636  10.364   2.118  0.2274  0.0109  0.2473
18899W        W35373   6.760   7.614  14.851  0.0597 -0.1828  0.0249
18900W        W35374   1.996   2.166   3.167 -0.2802  0.2247 -0.1862
18901W        W35375  10.275   8.982   5.528 -0.1568  0.3392 -0.3307
18902W        W35376   6.106  11.221  13.471  0.0992 -0.1263 -0.2051
18903W        W35377   4.694  12.386   5.623 -0.1298  0.0005 -0.2092
18904W        W35378  17.784  12.139  11.569  0.0050 -0.2406  0.0917
18905W        W35379  16.855   3.829   4.049  0.0641  0.2938  0.1441
18906W        W35380  14.881   4.977   3.521 -0.1672 -0.1311 -0.2841
18907W        W35381   5.320   2.381   1.294 -0.2126 -0.0870 -0.0572
18908W        W35382   7.984  18.298   2.223 -0.3938 -0.1011 -0.0949
18909W        W35383  11.277   4.982  10.884  0.1375  0.0249  0.1800
18910W        W35384  17.206  12.908   1.123  0.0025  0.1632  0.2446
18911W        W35385   0.103   4.775   5.668  0.2017 -0.0719  0.3413
18912W        W35386  13.372  16.195   4.925  0.1476 -0.2213 -0.1757
18913W        W35387   7.680   4.166  11.837  0.2743  0.0711  0.1151
18914W        W35388  16.380  13.989  12.487 -0.0788  0.2472  0.2429
18915W        W35389   5.632  13.156  15.577 -0.1240 -0.2083 -0.4775
18916W        W35390   9.702   0.270  15.460 -0.1621 -0.1132 -0.1089
18917W        W35391  14.724  12.281   4.484  0.0020  0.1721 -0.3324
18918W        W35392  11.183  13.078   2.275  0.4358 -0.2475  0.4033
18919W        W35393   2.806  15.165  15.461  0.2675 -0.2530 -0.2664
18920W        W35394  11.925  11.933  12.164 -0.0781 -0.0561  0.2942
18921W        W35395   0.910   2.269   1.577 -0.2899  0.0505 -0.3032
18922W        W35396   4.246   0.156   5.989 -0.0502 -0.1241  0.1085
18923W        W35397   7.604  17.520   1.905  0.3135 -0.3578 -0.0731
18924W        W35398   6.963   7.890  15.366  0.1586  0.0116  0.0925
18925W        W35399  12.370   1.726  12.630  0.1236 -0.0207 -0.4378
18926W        W35400   4.901  13.062  12.959  0.2408  0.0501  0.0364
18927W        W35401  12.596  12.584  12.385  0.0346  0.1237 -0.3655
18928W        W35402   9.693   6.116  14.016 -0.0681  0.2856 -0.0318
18929W        W35403   5.733  10.957   5.773  0.0471  0.1218 -0.0919
18930W        W35404  10.035  16.609  15.014 -0.2046  0.3469 -0.4108
18931W        W35405   3.846  11.182   3.154  0.0051 -0.3787  0.0712
18932W        W35406   9.954   3.638  11.853 -0.0390  0.0142 -0.2758
18933W        W35407   4.472   6.083   5.096 -0.0065 -0.0616  0.1447
18934W        W35408  18.080   5.309  12.132  0.1429 -0.4182  0.1022
18935W        W35409   5.805   9.454  12.362  0.5132 -0.1483 -0.1147
18936W        W35410   4.529   7.837  11.848  0.0627 -0.1313 -0.1418
18937W        W35411  15.671   1.417  13.928 -0.3858  0.0661  0.1344
18938W        W35412   5.498  18.188   3.214 -0.0749  0.1747 -0.0497
18939W        W35413  13.860  17.127   3.652 -0.0275 -0.1371  0.1523
18940W        W35414  11.057  15.556  15.004  0.5337  0.0790  0.0204
18941W        W35415   4.279  10.575  15.470  0.2802 -0.1498  0.2150
18942W        W35416   3.208  10.753   0.591 -0.1783  0.0769 -0.2596
18943W        W35417  15.964   6.708   0.674  0.2455 -0.0010 -0.3238
18944W        W35418  13.051   2.010  14.807  0.2804  0.1957  0.2350
18945W        W35419  11.082   8.599   3.361 -0.2835 -0.4140 -0.0310
18946W        W35420  16.296   7.373   3.437 -0.3523 -0.1831 -0.2568
18947W        W35421  10.996   5.959  15.508 -0.1640  0.0469 -0.0921
18948W        W35422  16.079   0.842   3.205  0.4811  0.0462  0.2974
18949W        W35423   8.576  14.671  14.980  0.1768 -0.3136 -0.1688
18950W        W35424   4.011   0.898  13.733  0.0184  0.3004 -0.0909
18951W        W35425   7.389   6.751   2.588  0.1065 -0.3116  0.1267
18952W        W35426  14.045   2.343   2.846  0.1167  0.4143  0.1080
18953W        W35427  16.673   3.358   4.051  0.2908 -0.1969 -0.2606
18954W        W35428   5.931  17.270   1.872  0.0238 -0.0249  0.0927
18955W        W35429  11.173   6.517   3.731  0.2578 -0.0784 -0.1864
18956W        W35430  13.171   0.320   0.616 -0.2431  0.1345  0.1164
18957W        W35431  10.447   8.190  12.861 -0.2758  0.2818 -0.5958
18958W        W35432  15.349  15.695   4.222  0.1046  0.0694  0.1623
18959W        W35433   7.677  16.930   2.077 -0.1134  0.0265  0.0258
18960W        W35434  11.311  13.149   2.799 -0.3856 -0.0543  0.0711
18961W        W35435  10.885   4.247   3.529 -0.2828  0.0011 -0.1559
18962W        W35436  15.611  17.766   2.144 -0.2208  0.1129  0.2182
18963W        W35437   0.031   1.145   3.741  0.3621  0.2110  0.0452
18964W        W35438  17.224   4.600  11.980  0.2518 -0.3000  0.1372
18965W        W35439  13.320   0.906  14.357 -0.1401  0.0621 -0.1446
18966W        W35440   0.985   9.925   5.240 -0.4301 -0.0062 -0.0078
18967W        W35441  10.013   9.103  12.381  0.3549  0.4312  0.3216
18968W        W35442   9.121  14.661   5.360 -0.4207  0.2761 -0.3220
18969W        W35443   1.960  16.069  11.319 -0.1557  0.1409  0.1618
18970W        W35444  12.027   4.325  12.766 -0.0582 -0.2054 -0.0803
18971W        W35445  18.032   8.312   5.337 -0.2461 -0.1932  0.0135
18972W        W35446   8.962   4.574  14.438 -0.0542 -0.1164 -0.3190
18973W        W35447  13.803  18.234   6.235  0.0582 -0.1367 -0.0517
18974W        W35448  17.773   8.910   3.348 -0.0397  0.1231  0.0274
18975W        W35449  17.530  17.185  14.691 -0.0654 -0.0642  0.4144
18976W        W35450  12.854  14.280   5.868  0.2861  0.1289  0.3961
18977W        W35451   1.127  16.939   5.315 -0.2191  0.0447  0.1290
18978W        W35452   0.394  10.326   3.982  0.0327 -0.2048 -0.2528
18979W        W35453   4.897   1.006   6.011  0.0047 -0.1744 -0.1543
18980W        W35454  13.895  11.310  12.140 -0.0021 -0.3855  0.0367
18981W        W35455   7.860  12.383  12.068  0.0574  0.1325  0.1518
18982W        W35456  17.998  15.056  14.289 -0.0664  0.0459  0.1933
18983W        W35457   6.883   3.472   1.761 -0.1059  0.1821  0.0234
18984W        W35458  11.415  15.737  15.520  0.1803  0.1546 -0.2172
18985W        W35459   4.403   0.753  16.051 -0.0731 -0.0977 -0.0963
18986W        W35460   3.099   5.147   4.965 -0.1253  0.0607 -0.1338
18987W        W35461  10.887   3.859  14.555  0.1482 -0.3718  0.2414
18988W        W35462   0.950  13.151   3.417 -0.3019  0.0418 -0.0143
18989W        W35463  13.078  11.808  13.866 -0.0611 -0.2924 -0.0506
18990W        W35464   2.462   1.765  13.661 -0.1410 -0.2165 -0.4897
18991W        W35465  15.014  11.443   2.601  0.0141 -0.3425  0.0835
18992W        W35466  13.692   8.640   1.509  0.1783  0.2802 -0.0592
18993W        W35467  10.663   6.165  10.914  0.3109  0.0348 -0.0919
18994W        W35468   5.874   3.674  12.061  0.1328  0.1874  0.0737
18995W        W35469   9.985   1.685   3.120 -0.0653  0.1940 -0.1377
18996W        W35470  12.916   5.139   2.640 -0.1071 -0.0578 -0.3154
18997W        W35471   5.882   2.222   5.050  0.0986 -0.3573  0.0293
18998W        W35472  15.634  15.751  14.754 -0.0637  0.3478 -0.1713
18999W        W35473   1.359  12.672  12.075  0.0764  0.0832 -0.0851
19000W        W35474  10.280  16.901   4.863 -0.0025  0.2151  0.0042
19001W        W35475  10.519  12.342  14.531  0.1474 -0.4453  0.0691
19002W        W35476   5.806   8.076  13.294  0.1905  0.3065 -0.2442
19003W        W35477  14.732   8.316   3.740 -0.3060 -0.0122 -0.1203
19004W        W35478  12.933   5.637  11.946  0.1336 -0.0595  0.2682
19005W        W35479  15.114   1.474   0.005  0.0749  0.0800 -0.5545
19006W        W35480  12.783  16.423   5.175  0.1735  0.0428 -0.0754
19007W        W35481   6.700   6.695   5.600  0.2707  0.5202  0.1715
19008W        W35482  15.782   8.428  15.357 -0.3174 -0.3497  0.0109
19009W        W35483  12.951   3.799   0.101  0.0107 -0.1851 -0.1977
19010W        W35484   5.104   9.314   3.907  0.1699  0.1207  0.2676
19011W        W35485  10.389   3.235   2.318  0.0456  0.2509 -0.2112
19012W        W35486   4.080   6.327   2.953 -0.0625  0.0405  0.0670
19013W        W35487   5.325   9.668   2.341 -0.0947  0.2032  0.0615
19014W        W35488   9.750   3.005  15.075  0.0830 -0.1094  0.1454
19015W        W35489   2.609   1.967  14.148 -0.0371  0.2244  0.0799
19016W        W35490   0.807   5.475   0.251 -0.3038 -0.0545  0.3211
19017W        W35491  12.302  17.252  15.038 -0.0510  0.5121  0.1035
19018W        W35492  14.580  15.314   5.871  0.1318  0.0523  0.0691
19019W        W35493  18.011   7.603   3.976 -0.0135  0.3347 -0.0133
19020W        W35494  15.862   5.351  13.696  0.3110 -0.2872 -0.0319
19021W        W35495   3.165  17.605  16.157 -0.2711 -0.0952  0.1900
19022W        W35496  11.943   8.025   2.760 -0.0363 -0.3997 -0.0507
19023W        W35497  13.520   1.102   0.483 -0.1861  0.3042  0.0759
19024W        W35498  16.208  15.718   0.524 -0.2643  0.2575 -0.1268
19025W        W35499   1.797   2.626   4.397  0.0623 -0.3098 -0.2789
19026W        W35500   9.688   2.372  15.993  0.0240 -0.0469 -0.3742
19027W        W35501   5.662   8.036   4.497  0.1082 -0.0641  0.0375
19028W        W35502  13.684   0.807   5.053 -0.1678 -0.2398 -0.0042
19029W        W35503  15.348   3.593   2.503  0.0494 -0.1255  0.0859
19030W        W35504   0.738   0.816   3.360  0.0744  0.2680  0.2712
19031W        W35505   8.661   0.716  13.715  0.2783  0.4317 -0.0529
19032W        W35506   8.403   9.698  15.688 -0.1030  0.0942  0.2609
19033W        W35507  15.429   8.489   2.578 -0.0497 -0.0525 -0.1902
19034W        W35508   6.880   3.416  15.785 -0.0526 -0.1664 -0.3405
19035W        W35509  11.963  11.237   3.031  0.0267 -0.0671  0.2228
19036W        W35510   5.719   6.382   3.604  0.1215  0.0032 -0.2172
19037W        W35511   7.341   7.420   3.699 -0.1224 -0.2239 -0.2015
19038W        W35512  10.364  17.175  13.267  0.1491 -0.2665 -0.0510
19039W        W35513   8.696   6.075  14.466  0.3228  0.0038 -0.1286
19040W        W35514  17.022   8.093  12.878 -0.0572  0.3240 -0.3354
19041W        W35515   8.287   2.002  14.866 -0.0351 -0.1092  0.1349
19042W        W35516  11.982  10.308   3.266  0.2166 -0.0528 -0.3026
19043W        W35517  10.358   8.332   3.320  0.3673  0.0780  0.3859
19044W        W35518   4.683  11.246   4.590 -0.0852  0.1435  0.2605
19045W        W35519   9.106  11.532  14.212 -0.0760 -0.0548  0.1473
19046W        W35520   2.424  17.983   4.207 -0.2878  0.1308 -0.2746
19047W        W35521   8.345  14.728  12.481 -0.5044 -0.2506  0.0914
19048W        W35522   8.458   0.430  15.745 -0.3604  0.0312 -0.2646
19049W        W35523   4.823  14.093  13.682  0.3816 -0.0121  0.1425
19050W        W35524  10.479   1.562  14.743 -0.2560  0.0918 -0.0767
19051W        W35525   8.201   7.743   5.198  0.0218 -0.0459 -0.0020
19052W        W35526  12.705  10.684   4.696  0.2502 -0.0838 -0.1537
19053W        W35527  13.226  12.360   4.811  0.0488  0.1017  0.2887
19054W        W35528  10.739   0.408   4.416 -0.1588  0.0420 -0.0833
19055W        W35529   8.822  10.918   1.857 -0.1090  0.2416 -0.4452
19056W        W35530  13.354   1.039  15.973 -0.3403 -0.0602 -0.0793
19057W        W35531   6.054   8.620  15.812  0.3265 -0.1171 -0.0395
19058W        W35532  14.457  15.479   2.675 -0.0053  0.1504 -0.0306
19059W        W35533   1.130   4.658   6.015  0.2462  0.1297  0.0934
19060W        W35534   8.196  12.891   4.279 -0.4723 -0.3067  0.1800
19061W        W35535   8.322   5.585  11.215  0.2659  0.2795 -0.3718
19062W        W35536   0.640   0.557   5.491 -0.0448  0.2748  0.0293
19063W        W35537   4.647  13.688   3.263  0.1997  0.1384  0.0235
19064W        W35538   9.481  15.555   4.082 -0.1257 -0.1846 -0.3928
19065W        W35539  11.466   5.281   4.471 -0.1570  0.0305 -0.1121
19066W        W35540  13.425  16.239  13.741 -0.1175  0.1281 -0.1181
19067W        W35541   1.879   8.544   5.758 -0.2163 -0.0133  0.1903
19068W        W35542  15.067  13.502  13.411 -0.0165 -0.0666 -0.1285
19069W        W35543   7.391  15.244  16.238 -0.0706  0.2170 -0.1628
19070W        W35544   7.892  12.013  13.837  0.0807 -0.0474 -0.0193
19071W        W35545   2.513  11.988  14.056 -0.0226 -0.0225  0.0993
19072W        W35546  14.174   2.922   3.630  0.1565 -0.2853 -0.0267
19073W        W35547   9.806   9.872   1.829  0.1008 -0.0330 -0.2667
19074W        W35548   2.670   6.183   4.844  0.2051  0.0164 -0.1263
19075W        W35549  11.005  17.229   0.355 -0.1193  0.1928  0.1290
19076W        W35550  17.440   3.574   4.643  0.0982 -0.0268  0.2062
19077W        W35551   0.062   6.669  13.812  0.0233 -0.2290  0.0537
19078W        W35552   5.757   9.680  15.589  0.2888 -0.0933  0.1233
19079W        W35553  13.905  15.010  16.010  0.2127  0.0945  0.0242
19080W        W35554  11.378  14.602   4.667 -0.1506 -0.0046  0.1532
19081W        W35555   8.520   8.824  13.914  0.1898  0.1163 -0.1451
19082W        W35556  17.843  17.730  12.968 -0.0240  0.0250 -0.1006
19083W        W35557  11.187   3.754   1.980  0.2814  0.3256  0.0930
19084W        W35558  12.609   8.333  13.383 -0.0264 -0.3870  0.1887
19085W        W35559  13.194   2.538  13.075  0.2277 -0.2571 -0.2230
19086W        W35560  14.475  14.712   3.724  0.1163 -0.0614 -0.1656
19087W        W35561  15.006   9.041   0.333 -0.1518 -0.1388 -0.1035
19088W        W35562   4.248  10.210   2.784 -0.0132  0.2365  0.0775
19089W        W35563   9.886   1.707  11.534 -0.1293 -0.2473  0.1362
19090W        W35564   3.283   7.208   1.599 -0.0392 -0.2793  0.0447
19091W        W35565  12.151   0.224  12.710 -0.0501  0.2396  0.0959
19092W        W35566   0.492   4.936  12.412  0.0606 -0.2926 -0.2726
19093W        W35567   0.089   3.752  12.139 -0.2182 -0.1489 -0.0290
19094W        W35568   7.506  14.488  16.001  0.1701  0.0886 -0.1619
19095W        W35569   7.956  16.302  13.485  0.0104 -0.2283  0.0908
19096W        W35570  12.534  11.234   9.758  0.3269 -0.0927 -0.0618
19097W        W35571  14.771  11.666  15.403  0.2184 -0.1189  0.2478
19098W        W35572   2.189   5.434   5.172  0.2069 -0.0787 -0.0457
19099W        W35573   1.734   2.492  10.739  0.3849  0.3587 -0.0541
19100W        W35574  13.125  12.556   1.197  0.0912  0.2427  0.1158
19101W        W35575  14.464  13.799   3.089  0.1738 -0.0581 -0.0996
19102W        W35576   7.484   1.625  12.795  0.2396 -0.2459 -0.1434
19103W        W35577  13.607   7.928  10.750  0.1228 -0.2044  0.2834
19104W        W35578  16.388   8.328  11.441 -0.1296  0.1811 -0.2297
19105W        W35579   0.550   9.405   1.197 -0.3076 -0.3918 -0.0209
19106W        W35580  15.503   2.903   4.891  0.2378 -0.1122 -0.1679
19107W        W35581   8.612  14.191  14.716 -0.2878  0.3131  0.0233
19108W        W35582  15.515  15.795   1.937  0.0743  0.0331 -0.0530
19109W        W35583   4.842  14.345  15.072  0.0403  0.3224 -0.0136
19110W        W35584  17.133   1.934   3.453  0.1729 -0.1011 -0.1980
19111W        W35585   9.642   9.933   3.670 -0.0620 -0.1596 -0.2551
19112W        W35586  16.070  11.357   2.240  0.1461  0.0341  0.2162
19113W        W35587  11.674   4.710  12.478  0.0469  0.1798  0.0331
19114W        W35588   3.646  13.762  12.881  0.2053 -0.1484  0.1735
19115W        W35589   4.040  16.012   4.796 -0.0557  0.2291 -0.5179
19116W        W35590   8.273  16.275  16.129 -0.3420  0.3366 -0.2118
19117W        W35591   2.840   7.463   1.749 -0.0767  0.1565 -0.2076
19118W        W35592  10.293   6.243  12.022 -0.0178  0.3770 -0.0031
19119W        W35593  12.731  14.825   3.902 -0.1762 -0.1219  0.2362
19120W        W35594  14.714   7.611  11.092 -0.4793 -0.0804 -0.2070
19121W        W35595  11.138  14.393   0.618  0.0727  0.3083 -0.2096
19122W        W35596  14.149   9.120  14.430  0.0278 -0.0508  0.0055
19123W        W35597  16.249   1.694  14.691 -0.1515 -0.3392  0.0327
19124W        W35598   8.296   5.080   4.611 -0.2447  0.2299  0.2944
19125W        W35599  14.252   2.880  16.278  0.0780  0.1994 -0.1579
19126W        W35600   2.897   7.402   5.946  0.0861  0.0967  0.2466
19127W        W35601   1.063  17.642   4.733  0.0443 -0.4191 -0.1335
19128W        W35602  18.119  11.548   0.916  0.0263  0.0797  0.0842
19129W        W35603   5.014  14.111  12.799 -0.0267 -0.2184 -0.0603
19130W        W35604   5.720  15.523  12.568  0.2658  0.1470 -0.0854
19131W        W35605   4.933   3.732  16.302  0.0899  0.1562  0.2245
19132W        W35606  13.573  17.557   0.166  0.0995  0.1687  0.3151
19133W        W35607  12.769   9.276  12.359  0.1219 -0.0313  0.1014
19134W        W35608  13.995   7.042   5.098 -0.1936  0.2238 -0.1409
19135W        W35609  17.483   9.122   5.483 -0.2526  0.1014  0.1047
19136W        W35610  18.240   7.272  14.638  0.0082 -0.1709  0.2420
19137W        W35611   3.307  15.477   1.448 -0.1837 -0.0204 -0.3952
19138W        W35612   1.462  11.295   0.610  0.0074  0.0556 -0.4230
19139W        W35613   9.019   0.873   0.870 -0.2527 -0.0311 -0.0958
19140W        W35614  17.873   8.301   5.980 -0.2764  0.0132 -0.0786
19141W        W35615   1.171  12.598   6.130 -0.0774  0.1953  0.2648
19142W        W35616   5.166  10.689  12.363  0.2756  0.0359 -0.4238
19143W        W35617  12.747  10.381  12.634 -0.0836  0.1255  0.0466
19144W        W35618  10.365   2.529  13.067 -0.0626  0.2039  0.1237
19145W        W35619  17.841  17.508  12.481 -0.1097 -0.1914  0.0176
19146W        W35620   5.499   1.183   4.038  0.4828  0.0417 -0.2922
19147W        W35621   8.532   8.220   1.385 -0.1858  0.1084  0.1165
19148W        W35622   2.371   7.400   3.837  0.1196 -0.2864  0.1952
19149W        W35623   8.838  11.980   5.699 -0.0529  0.0622  0.0775
19150W        W35624   6.721   9.842   4.697  0.2444  0.0909 -0.1280
19151W        W35625   4.851  15.388  12.258 -0.5022 -0.1472 -0.0766
19152W        W35626   3.598  15.775  13.457  0.1505  0.1711 -0.0819
19153W        W35627   7.616  14.956   5.250  0.0144 -0.0078  0.0774
19154W        W35628   0.423   2.944  15.934 -0.1110  0.1103  0.1203
19155W        W35629   5.693   8.421  15.462  0.0399 -0.0344 -0.2604
19156W        W35630   3.430   3.696   5.036 -0.1349  0.1456 -0.1369
19157W        W35631   4.591   1.327  12.310  0.1326  0.3828  0.1259
19158W        W35632  11.189   6.555   3.206 -0.0037 -0.2013 -0.0254
19159W        W35633  16.815  17.137   0.518 -0.3886  0.3645 -0.2678
19160W        W35634  10.721  13.069  11.562 -0.1903  0.2395  0.0352
19161W        W35635   0.781   4.529   1.789 -0.0482  0.1629  0.3759
19162W        W35636  15.163   5.457   1.337 -0.2476 -0.1845 -0.0426
19163W        W35637   6.231  13.942  12.068  0.2958 -0.1116 -0.0030
19164W        W35638  17.885   6.323  14.286  0.1840 -0.1613 -0.2693
19165W        W35639  16.192   3.755   0.877  0.0085  0.0943  0.1914
19166W        W35640  10.479   0.413   2.501  0.3425  0.3054 -0.1813
19167W        W35641   7.717  13.675  12.435 -0.0603 -0.0795 -0.2118
19168W        W35642  12.618  11.578  13.831 -0.0852  0.4176  0.1650
19169W        W35643   8.243  15.885  13.575 -0.2215 -0.0176  0.0118
19170W        W35644  11.195   8.098  13.594  0.2833  0.0005 -0.2350
19171W        W35645   3.280  17.285   5.792 -0.1718  0.0643  0.0890
19172W        W35646  16.388   2.521   0.198 -0.0396  0.2358  0.2608
19173W        W35647  12.554   1.479  13.068 -0.0607 -0.2895  0.1549
19174W        W35648   8.001   2.056   2.273 -0.0190  0.0119  0.1543
19175W        W35649   8.277  16.749  14.615 -0.0379 -0.1200  0.1689
19176W        W35650   4.718   4.130   2.855  0.3122  0.1777  0.2064
19177W        W35651   7.010  10.204   1.552  0.1340 -0.0389  0.2151
19178W        W35652   6.428  15.218  13.088  0.2930 -0.3881  0.0354
19179W        W35653  11.651  12.949  13.603  0.3141 -0.1137  0.0183
19180W        W35654  16.410  12.289   1.160 -0.1120  0.1522 -0.1222
19181W        W35655   5.856   6.070  13.546 -0.2824  0.0788  0.4131
19182W        W35656  15.408  12.722   5.143 -0.2800 -0.0711 -0.1492
19183W        W35657   9.155  18.121   3.340 -0.0998 -0.4856 -0.1737
19184W        W35658   7.843  18.395  13.274  0.0006  0.1699  0.0349
19185W        W35659   0.422  17.507   2.759 -0.1305 -0.1007 -0.1832
19186W        W35660   6.372  12.640   4.652  0.1414 -0.0980 -0.0543
19187W        W35661  15.323   2.186  15.971  0.4881 -0.2639  0.1871
19188W        W35662   4.277   9.135   3.944  0.1780 -0.0283  0.3705
19189W        W35663  14.445   4.768   3.608  0.2044 -0.1689 -0.3579
19190W        W35664  12.477  14.989  13.962  0.2915  0.0377 -0.0780
19191W        W35665   6.413   2.486  15.800 -0.1214 -0.1753  0.0325
19192W        W35666  12.414   9.693   3.535 -0.0392  0.1554  0.2031
19193W        W35667   1.378  10.660  14.205 -0.3287  0.0836  0.0726
19194W        W35668   0.126   1.500  15.603 -0.1239  0.1317 -0.0970
19195W        W35669   2.519  13.539   4.861  0.2811  0.0390 -0.0388
19196W        W35670   9.180   1.396  13.711  0.0294 -0.4333 -0.1460
19197W        W35671   8.881   8.649   1.648  0.1920  0.0614 -0.2168
19198W        W35672  10.297   5.398   1.242 -0.1372 -0.1577 -0.0563
19199W        W35673  10.819   7.291  14.569 -0.0768 -0.0436 -0.0405
19200W        W35674   8.098   9.533   1.062 -0.1017  0.0749 -0.0465
19201W        W35675   5.716  16.930   5.634 -0.1461 -0.1796  0.1294
19202W        W35676   0.585   7.695  14.088  0.0470 -0.0633 -0.4459
19203W        W35677  14.153  14.079   4.686  0.1849 -0.2425  0.0053
19204W        W35678   9.406   7.760   4.538 -0.0941  0.0104  0.0042
19205W        W35679  12.226   9.742  15.619 -0.1379 -0.0368 -0.1569
19206W        W35680   8.011  18.352   4.423 -0.0792 -0.2000  0.3025
19207W        W35681   0.201  14.582   4.043 -0.1464 -0.4632 -0.1310
19208W        W35682   2.189  17.545   5.740  0.1009  0.3799  0.0745
19209W        W35683  10.515   0.553  13.146  0.1894  0.2247 -0.0137
19210W        W35684  14.552  13.318  14.090  0.0999 -0.1587 -0.0660
19211W        W35685  15.305  15.927   1.361  0.2710 -0.0898 -0.1588
19212W        W35686  14.603   8.912  11.022  0.1956 -0.1990  0.0274
19213W        W35687  11.578  11.569  12.227  0.1293 -0.1236  0.1105
19214W        W35688   0.812   5.068   3.736 -0.0318  0.2311  0.2397
19215W        W35689  17.002   2.143   5.507 -0.2271  0.2716 -0.1231
19216W        W35690   4.202   8.884   0.362  0.0179  0.0446 -0.2401
19217W        W35691  13.806  11.121   0.115  0.1112  0.0181 -0.1397
19218W        W35692  15.275  14.478   4.149 -0.0219  0.1248  0.3258
19219W        W35693   2.441  17.060   2.526  0.1133 -0.0603  0.0729
19220W        W35694  14.160   7.589   3.558  0.2950 -0.0398 -0.3061
19221W        W35695   7.573   6.936   1.572  0.0713 -0.1674  0.0497
19222W        W35696  17.515  13.567  14.897 -0.0384  0.0374 -0.2973
19223W        W35697  17.906   3.918  15.222 -0.2220  0.0057  0.0595
19224W        W35698  12.721   0.696  11.596 -0.2087 -0.1057  0.0282
19225W        W35699  15.422   8.421  14.920  0.1818 -0.0329  0.0738
19226W        W35700  11.969   3.207  11.955 -0.1118 -0.0937  0.1390
19227W        W35701   5.119  10.116   3.685 -0.0774  0.0215  0.0390
19228W        W35702  16.495   1.391  12.160  0.1227 -0.0856 -0.2306
19229W        W35703   3.090   0.947   2.424 -0.0241  0.2981  0.1294
19230W        W35704   0.972   4.146  13.259  0.0252 -0.0777 -0.0787
19231W        W35705  15.909   8.978  10.345 -0.1143 -0.0918 -0.1808
19232W        W35706  16.084   8.247  14.129  0.0870 -0.1696 -0.1236
19233W        W35707  11.365  15.988   0.022  0.4743 -0.1181  0.0062
19234W        W35708  12.380   2.596  10.658 -0.1836 -0.1339  0.0469
19235W        W35709  17.604   2.095   3.676 -0.1353 -0.2254  0.0199
19236W        W35710   2.123   9.247  15.975  0.0435 -0.2170  0.0311
19237W        W35711   2.650  17.448   0.534 -0.2764  0.1191  0.3520
19238W        W35712  13.274   6.553   0.822  0.0084 -0.3521 -0.1048
19239W        W35713  13.590  14.980   1.685 -0.0370 -0.0382  0.3332
19240W        W35714   1.489  10.797   2.056 -0.1715  0.0103 -0.1178
19241W        W35715   5.618   8.184   0.405  0.0240  0.1996 -0.0400
19242W        W35716  16.858   7.459  12.238 -0.0123 -0.4927 -0.0880
19243W        W35717   8.145  14.328   3.061 -0.3163 -0.0528  0.1049
19244W        W35718   9.807  17.382   3.230 -0.0745 -0.0190 -0.1285
19245W        W35719   8.273   4.801   5.896 -0.2379 -0.0260  0.0365
19246W        W35720  17.586  13.720  15.761  0.2884 -0.0530 -0.0978
19247W        W35721   2.212  14.185  13.294 -0.2057 -0.0982 -0.3310
19248W        W35722  16.486   1.217  13.762 -0.0262  0.1006 -0.3131
19249W        W35723   5.181  14.308  11.797  0.2374 -0.0149 -0.1165
19250W        W35724   9.645   3.752  15.473 -0.4575  0.1241  0.1825
19251W        W35725  13.743  18.081  15.779  0.1041  0.1476  0.0290
19252W        W35726   6.648  12.357   2.978  0.2707  0.0388  0.0819
19253W        W35727   7.555  13.433   4.421 -0.0735 -0.1338 -0.2054
19254W        W35728   1.497   4.853  11.259  0.0469  0.1556 -0.0706
19255W        W35729  15.010   0.371  13.125 -0.2610 -0.4639  0.1670
19256W        W35730   3.108  17.550   0.339 -0.1105 -0.0999  0.1086
19257W        W35731   0.931  11.662   1.961 -0.1966  0.2036 -0.0581
19258W        W35732   1.679   2.330  14.460  0.2996 -0.0247  0.2640
19259W        W35733   4.592   7.516   4.254 -0.0611  0.1575 -0.1457
19260W        W35734   3.912   1.439   5.450 -0.0302  0.4304  0.1035
19261W        W35735   6.940  17.033  15.255  0.2538 -0.0436 -0.0946
19262W        W35736   6.547  15.796   3.183 -0.1431  0.1170  0.0126
19263W        W35737  18.320   1.125   3.291 -0.1496 -0.1971 -0.0828
19264W        W35738   2.555   2.032  12.612 -0.1006 -0.1529  0.3228
19265W        W35739   8.794  16.096  15.156  0.0928 -0.0458 -0.3781
19266W        W35740   3.098  16.072   4.052  0.2085  0.1108  0.1557
19267W        W35741   6.794  15.293   4.973  0.1978  0.2279 -0.0417
19268W        W35742   0.197   3.385   5.474  0.0281 -0.0799  0.0225
19269W        W35743   6.002  17.627  14.253  0.0308  0.3955  0.0300
19270W        W35744   3.336  15.522   4.354  0.2698 -0.1176 -0.2290
19271W        W35745   8.745   4.654   4.625 -0.3469 -0.2297  0.0532
19272W        W35746  13.794   9.525   5.169  0.1201 -0.5266 -0.1530
19273W        W35747   0.930  12.241  13.153  0.2349 -0.2061 -0.1817
19274W        W35748  11.777  12.884   1.585 -0.3706  0.1803  0.1237
19275W        W35749   6.019  15.887   2.491 -0.1312 -0.2452  0.2825
19276W        W35750   0.977  17.789   1.993 -0.3244  0.2498  0.2445
19277W        W35751  16.068  16.833  13.809  0.3911  0.0359 -0.0688
19278W        W35752  12.905   1.020   3.093  0.3001 -0.0374  0.0549
19279W        W35753  14.347  14.094  15.543  0.1120  0.1627 -0.2659
19280W        W35754   9.983  10.714  12.300 -0.0200  0.2308 -0.0454
19281W        W35755   0.513   9.859  15.651 -0.0919  0.2290 -0.4052
19282W        W35756   0.602  16.798   0.136 -0.0493 -0.1231 -0.0818
19283W        W35757   1.727  10.515  11.664 -0.0581 -0.0620 -0.1889
19284W        W35758   7.902   6.721   3.116  0.0036  0.1362 -0.0369
19285W        W35759   1.166   9.196   2.798 -0.3558 -0.3203 -0.3020
19286W        W35760  10.284   7.755  11.825  0.1532 -0.2667 -0.1143
19287W        W35761   7.362  10.287   3.185  0.1194 -0.0971 -0.5398
19288W        W35762   3.287   6.472  12.625  0.0248 -0.1017 -0.0267
19289W        W35763   6.144   4.860  11.606  0.1061 -0.1064  0.2767
19290W        W35764   4.461   1.209   6.058  0.1344 -0.1102 -0.0010
19291W        W35765   5.985   8.298   4.230  0.3977 -0.0143  0.0565
19292W        W35766  10.717   9.655   2.163  0.1601  0.0104 -0.2584
19293W        W35767  10.604   9.849   4.847 -0.0469 -0.1251 -0.1661
19294W        W35768   6.300  18.127  13.133  0.6498 -0.1319  0.0054
19295W        W35769  11.628  10.654   2.140 -0.0015  0.0864  0.1340
19296W        W35770   2.341   8.098   4.456  0.2121  0.0089  0.0550
19297W        W35771  17.834   0.804  13.578  0.4009 -0.0320  0.0565
19298W        W35772   8.831   1.786   5.478  0.0686  0.1027  0.4189
19299W        W35773  16.152   4.041   4.570  0.2415  0.0919  0.0116
19300W        W35774  16.178   5.493  13.305  0.1216  0.0966 -0.1408
19301W        W35775  17.293   2.487  13.925  0.0255 -0.1912  0.0888
19302W        W35776   0.195   2.141   3.625  0.4417  0.0217 -0.2367
19303W        W35777   9.011  16.074  16.067  0.0647  0.2702  0.1450
19304W        W35778  10.851  16.326  15.091  0.1133 -0.2680 -0.0016
19305W        W35779   2.029  15.193   2.530 -0.2464  0.1914 -0.0487
19306W        W35780   0.221   2.970  13.411 -0.1695  0.2537 -0.0436
19307W        W35781  17.175   5.785  14.913  0.0398  0.1258 -0.0282
19308W        W35782  13.307  11.188   0.999  0.2340  0.0213 -0.0629
19309W        W35783  15.313  18.020  13.764  0.0492 -0.2976 -0.1725
19310W        W35784  15.447   0.493  14.156  0.0014  0.1470  0.0874
19311W        W35785   2.261  17.124  13.765 -0.0605 -0.0072  0.1927
19312W        W35786  14.860  16.336   0.258 -0.0884  0.0296 -0.0942
19313W        W35787  10.846   6.566   4.433  0.1007  0.1672 -0.3686
19314W        W35788  17.161   0.040   3.958  0.0109 -0.0373 -0.0074
19315W        W35789   8.257   4.726   0.238 -0.1847 -0.1224  0.2223
19316W        W35790  13.856   1.506   6.135 -0.0663 -0.1286  0.2003
19317W        W35791  15.359  13.809  13.759  0.1556  0.0687  0.0708
19318W        W35792  14.549   0.776   1.656  0.1067 -0.1304  0.0550
19319W        W35793   4.759  18.312   5.107 -0.2097 -0.3099 -0.0878
19320W        W35794  14.549   2.276   3.788 -0.0746 -0.1780 -0.0254
19321W        W35795   5.732  12.579   2.070  0.1790 -0.0319  0.2455
19322W        W35796   5.462   8.541   4.410 -0.1062  0.1081 -0.3604
19323W        W35797  18.215  16.292   2.636  0.0132  0.0863  0.1632
19324W        W35798   7.515   0.928  12.079  0.2311  0.0296 -0.2814
19325W        W35799  14.861   9.304  11.162  0.4459  0.1380  0.1472
19326W        W35800  16.467  16.507   0.117  0.0318  0.1886  0.0529
19327W        W35801   2.680   7.478   3.404  0.0029  0.0291 -0.0594
19328W        W35802   1.866   2.109  11.816  0.2156  0.0882  0.1277
19329W        W35803   3.901   0.661  15.487  0.2347  0.0629  0.1574
19330W        W35804   1.086   9.756  15.214 -0.3372  0.0790 -0.1950
19331W        W35805  13.225  18.141   4.368  0.1648  0.1020 -0.2450
19332W        W35806  17.611  13.298   1.194  0.0554  0.2728 -0.1805
19333W        W35807  12.191  16.113   4.321 -0.1471  0.2664 -0.0607
19334W        W35808   5.399   0.798   6.075  0.2520  0.0153 -0.0431
19335W        W35809   0.337   3.708  13.901 -0.1101 -0.2143 -0.2680
19336W        W35810  16.049  18.049  13.180  0.2342  0.2198  0.1825
19337W        W35811   5.208  18.267  14.295  0.3878  0.1763  0.2078
19338W        W35812  15.542   7.528  15.315 -0.0664 -0.0669  0.0387
19339W        W35813   8.764   7.623   3.714  0.0347  0.1802 -0.0197
19340W        W35814  17.233   9.655  15.960  0.0830  0.1326 -0.1256
19341W        W35815   0.737   1.802   0.199 -0.1955 -0.3837  0.0944
19342W        W35816   0.892  16.067  13.460  0.0693 -0.0791 -0.0846
19343W        W35817   7.323   2.692   1.330  0.3565  0.0880  0.0985
19344W        W35818   6.820   8.233  12.521 -0.0879  0.2705 -0.0388
19345W        W35819  16.968  17.710  16.076  0.1079  0.0695  0.0173
19346W        W35820   8.339   2.227   0.602 -0.3025 -0.2731  0.0088
19347W        W35821  15.965   7.393   0.495  0.2502 -0.0180  0.1329
19348W        W35822  13.993   0.403   0.889  0.2375 -0.0922  0.1860
19349W        W35823  10.999   5.494  15.327 -0.0649  0.0623  0.2674
19350W        W35824  17.498   3.825  11.747 -0.3448 -0.1232 -0.1804
19351W        W35825   3.186  11.238   2.402 -0.0902  0.0880  0.2918
19352W        W35826  11.840  14.267   4.574  0.4901 -0.1358 -0.0567
19353W        W35827   7.272   9.241  16.029  0.0110 -0.1438 -0.1727
19354W        W35828   8.961  16.678   1.894  0.1203  0.0383 -0.2615
19355W        W35829   0.838  12.927   4.472 -0.0333  0.1093  0.0160
19356W        W35830  10.269   3.340   1.020  0.0887 -0.1602 -0.1913
19357W        W35831  12.584   7.780  14.583  0.2836  0.0871 -0.1891
19358W        W35832  10.417  16.130   4.515 -0.1807  0.0585 -0.0183
19359W        W35833   0.688   1.727  12.083 -0.0430  0.1473  0.1349
19360W        W35834  11.811   5.222  12.395 -0.1006 -0.2055 -0.0127
19361W        W35835   0.703   7.013  10.327 -0.3330 -0.2909 -0.0546
19362W        W35836   9.287   8.937  11.965  0.1335  0.0371  0.3752
19363W        W35837   2.945  16.552   3.245  0.4493  0.0885  0.0089
19364W        W35838   3.398  13.936   5.717 -0.0811 -0.3095  0.4671
19365W        W35839  18.064  17.611   4.041  0.1541  0.3828 -0.0485
19366W        W35840   3.141   9.382  16.163  0.0908  0.1214 -0.1955
19367W        W35841  17.428   6.781  12.971  0.4096  0.2724  0.1747
19368W        W35842   1.111   1.984  14.628 -0.0930  0.0861 -0.1376
19369W        W35843   9.290  12.093  10.988  0.3041  0.0344 -0.0021
19370W        W35844   6.574   4.330   2.196  0.0171  0.0175 -0.0361
19371W        W35845  15.310   2.278  13.954  0.0851  0.0749  0.3577
19372W        W35846  15.420  10.543   2.042  0.0733  0.2218  0.0567
19373W        W35847   8.450  16.760   0.196 -0.0978  0.0783 -0.3748
19374W        W35848  18.237  11.850   3.007  0.0930 -0.0586  0.1107
19375W        W35849   1.025   5.839   2.820  0.1177  0.0039  0.1722
19376W        W35850  10.135   0.967  11.699 -0.0887  0.0535  0.1347
19377W        W35851   7.271  10.340  12.962 -0.2653 -0.2152  0.3718
19378W        W35852  14.632   3.431  11.212 -0.3802  0.3054 -0.0421
19379W        W35853   0.586  12.339  11.808 -0.0112  0.4572  0.0075
19380W        W35854   5.154  17.843  15.792  0.1285  0.0953  0.3583
19381W        W35855   4.067   6.068  15.328  0.0720  0.0526  0.2207
19382W        W35856  11.135  13.300   4.979 -0.1350 -0.2757 -0.2069
19383W        W35857   8.302  14.766   3.172 -0.2571 -0.1141  0.2350
19384W        W35858   1.927  11.297   6.023 -0.0345 -0.0049  0.1327
19385W        W35859   3.811  16.625   1.547 -0.0655 -0.1820 -0.2322
19386W        W35860  12.864   7.005   5.228 -0.1563  0.1410 -0.1419
19387W        W35861   1.161   9.082   0.669 -0.1390 -0.0737 -0.0724
19388W        W35862   4.533   6.033  14.956 -0.0509 -0.0477 -0.3647
19389W        W35863  13.424   0.417  13.581  0.0144  0.0394  0.0276
19390W        W35864  15.936   5.170   2.689  0.0498  0.0966 -0.2544
19391W        W35865   5.383   2.444   0.377  0.2260 -0.2913  0.2359
19392W        W35866   0.482   6.929   3.031  0.0194 -0.0826  0.0782
19393W        W35867  14.566  17.399  14.391 -0.0795 -0.1667 -0.0826
19394W        W35868  12.254   7.098  12.145  0.1435 -0.0892 -0.1978
19395W        W35869  17.244   3.284   3.160 -0.1610  0.1102  0.0608
19396W        W35870  16.442   5.958   3.044  0.0488 -0.3398 -0.0258
19397W        W35871  13.050   0.651  15.161 -0.0636 -0.2139 -0.4453
19398W        W35872   2.847   3.364  13.144  0.1707 -0.1785 -0.0486
19399W        W35873   8.965   1.254   3.540 -0.1215  0.3878  0.0665
19400W        W35874  10.254   6.564   1.730  0.0749 -0.0313 -0.2968
19401W        W35875  10.081  11.239  16.020 -0.2843  0.1774  0.1561
19402W        W35876   1.606   4.263   5.558 -0.0284  0.0508 -0.2319
19403W        W35877   6.379  13.713   1.469  0.2217 -0.3431  0.0687
19404W        W35878   2.531   3.099   0.572  0.3730  0.5328  0.0966
19405W        W35879  17.579   9.149  12.083  0.3793  0.1850  0.3748
19406W        W35880   3.964   0.226  14.438  0.0484  0.2126  0.3028
19407W        W35881   7.003   3.826  12.986  0.0898  0.0017  0.1243
19408W        W35882  13.986   7.616  10.850  0.3116  0.2020  0.4063
19409W        W35883  16.587   7.388  14.285  0.1850  0.1100  0.3746
19410W        W35884   7.684  16.504   4.797  0.2680  0.0783  0.1544
19411W        W35885  11.724   1.841  14.934  0.3787 -0.1632  0.0190
19412W        W35886  13.448   7.094  16.101 -0.1924 -0.1254  0.1068
19413W        W35887  16.268  10.615  13.845  0.0321  0.2937  0.0270
19414W        W35888  11.852   8.023  12.896  0.1016 -0.3679 -0.1601
19415W        W35889  13.947   9.738  13.197  0.0510  0.2225  0.1612
19416W        W35890   3.698   3.227   3.302  0.0186 -0.0046  0.0709
19417W        W35891  12.443   8.639   4.461 -0.1847 -0.1339 -0.2159
19418W        W35892   4.033  15.479   3.149  0.1217 -0.0266  0.0766
19419W        W35893   5.648  14.606  15.091  0.0295  0.2372  0.0932
19420W        W35894  17.909   9.856   2.916 -0.1591  0.0364 -0.1510
19421W        W35895  12.145   1.991   3.215 -0.0103 -0.1086 -0.0173
19422W        W35896  10.329  13.282  15.881  0.1348  0.0263  0.2435
19423W        W35897   1.884  14.578  13.268 -0.0906 -0.0081  0.1066
19424W        W35898   4.939   7.820   4.531 -0.0240  0.0668 -0.4002
19425W        W35899   7.049  12.464  16.014 -0.0707 -0.1291  0.1136
19426W        W35900  16.667  10.335   2.332  0.0570  0.2420 -0.2342
19427W        W35901  13.036   7.600   2.645 -0.0509 -0.2912 -0.0821
19428W        W35902   4.782  16.539  14.043 -0.0673 -0.2069  0.1419
19429W        W35903   7.048  10.034   2.962  0.1895  0.0850 -0.0176
19430W        W35904   0.778   2.194   5.670  0.0922  0.0605 -0.0039
19431W        W35905   7.952  16.695  12.421 -0.0453  0.0067  0.0310
19432W        W35906  17.006   9.223  14.293  0.0201 -0.1168 -0.0358
19433W        W35907   0.280   7.113   0.889 -0.2471 -0.0638 -0.1662
19434W        W35908   9.201  15.987   2.120 -0.1865 -0.2448  0.2608
19435W        W35909   0.701   5.095   1.180 -0.0322  0.1688 -0.0428
19436W        W35910   2.392   3.703   3.997 -0.0505  0.0182 -0.1909
19437W        W35911  14.198   7.861   3.162  0.4027 -0.0075 -0.1668
19438W        W35912   5.315  12.781   2.725 -0.1030  0.1505 -0.0080
19439W        W35913  16.074   8.378   0.128  0.0395  0.1226 -0.0476
19440W        W35914  15.454   7.774  12.631  0.5660  0.0711  0.0440
19441W        W35915  17.280  11.887  13.308 -0.0177 -0.0948  0.0637
19442W        W35916  14.324   7.754  12.461  0.0015  0.3185  0.2274
19443W        W35917  14.841  13.297  15.605  0.0943  0.2403 -0.0604
19444W        W35918   5.894  11.896   4.742 -0.0148  0.3194 -0.0978
19445W        W35919  14.704  11.958   2.555  0.0758 -0.2433  0.1736
19446W        W35920  10.960  15.573  12.915  0.1782 -0.3226 -0.0858
19447W        W35921  18.095  13.016   4.906  0.0921 -0.4622  0.2009
19448W        W35922   9.637   0.962  12.343 -0.2097 -0.2991 -0.2617
19449W        W35923   5.625   6.444  15.852  0.4072  0.2019  0.2441
19450W        W35924  13.394   9.921  14.387 -0.0715  0.2246  0.2713
19451W        W35925   6.223  15.455  10.659 -0.0193  0.2185  0.0944
19452W        W35926  18.169   2.874   1.944 -0.2463  0.0621 -0.3112
19453W        W35927   8.927  16.708   3.511 -0.1355 -0.1632 -0.0491
19454W        W35928   4.723  18.130  14.611  0.1848 -0.0350 -0.1220
19455W        W35929  11.612  12.807   1.100 -0.1207 -0.3033  0.0213
19456W        W35930   3.832   6.329   5.909 -0.7129  0.1380  0.0025
19457W        W35931  14.365   3.850  14.638 -0.0491  0.1402 -0.1383
19458W        W35932   7.984   1.250   2.990  0.3685  0.2292 -0.1743
19459W        W35933   7.076   6.497   2.297  0.0773  0.0666 -0.0164
19460W        W35934   4.337   8.029   4.158 -0.3172  0.3543  0.1001
19461W        W35935   0.310   4.016   3.291  0.0880  0.1073 -0.1580
19462W        W35936  15.698   6.787   1.118 -0.0626 -0.2918  0.2598
19463W        W35937  16.810  10.239   3.186  0.0347 -0.0968 -0.0983
19464W        W35938   0.485  18.292  15.831  0.1177  0.1520 -0.0909
19465W        W35939  16.582  18.257   3.586  0.1204 -0.0315  0.1182
19466W        W35940   4.252   3.705  12.348  0.4105 -0.2511  0.1419
19467W        W35941  13.157  12.188  15.399 -0.1906 -0.5542  0.1357
19468W        W35942  13.559   7.173  12.964  0.2302  0.3138 -0.0798
19469W        W35943  17.104  14.066  14.213  0.1452 -0.2829 -0.0660
19470W        W35944  11.731  15.494   5.038  0.0670 -0.1130  0.0003
19471W        W35945   8.523   4.010  15.925 -0.2029 -0.0539  0.4996
19472W        W35946  14.963  10.019  12.195  0.2818 -0.2165 -0.0263
19473W        W35947  12.412  11.359   3.236 -0.0826  0.2298 -0.2193
19474W        W35948  10.714  10.193  12.123  0.2931 -0.1624  0.0996
19475W        W35949   3.252   8.132  11.773  0.1399  0.2889 -0.0862
19476W        W35950   8.985   8.517  14.317 -0.0026  0.1074 -0.0799
19477W        W35951   3.144   3.258   5.229 -0.1223 -0.1227 -0.1401
19478W        W35952  15.019  14.068   2.991 -0.1809  0.0372  0.0071
19479W        W35953  15.642   3.651  10.821 -0.3367 -0.0958 -0.2295
19480W        W35954  13.009   9.273   4.853  0.1581 -0.0566  0.1821
19481W        W35955  14.999   3.890   2.187  0.0458  0.1959 -0.0111
19482W        W35956   8.494   0.897   1.122  0.1971 -0.1334  0.0965
19483W        W35957   1.025  11.487  12.270 -0.0101  0.0096  0.2020
19484W        W35958  12.518   8.024   1.147  0.0871  0.0407  0.2600
19485W        W35959  14.943   1.042   2.624  0.0630  0.0243 -0.1017
19486W        W35960   4.245   0.261   1.721  0.1380  0.1386 -0.1701
19487W        W35961  10.857   3.930   2.318 -0.3831  0.3379  0.0034
19488W        W35962  14.347  16.820   2.416  0.0808 -0.0948 -0.1860
19489W        W35963   9.597  12.854  14.299 -0.0732  0.3368  0.0075
19490W        W35964   3.105   8.295  15.069 -0.2404 -0.1192  0.1730
19491W        W35965  14.330   8.673   2.672  0.3039 -0.0911  0.1246
19492W        W35966   8.613   9.598   1.167  0.0545 -0.1792 -0.0466
19493W        W35967  13.178  11.814   4.856  0.2659 -0.0637 -0.2020
19494W        W35968  12.720   6.946  11.497  0.2103 -0.1473  0.2140
19495W        W35969   7.004  15.682  15.871  0.0312  0.0686  0.0093
19496W        W35970   8.362   8.381  11.730 -0.1602  0.1804 -0.3096
19497W        W35971   7.829  13.389   4.879  0.0425  0.3028 -0.1420
19498W        W35972  15.913   9.358  11.376 -0.2610  0.0437 -0.2374
19499W        W35973   3.311  13.342   4.144 -0.0566  0.1306 -0.0021
19500W        W35974   0.869   4.750  15.903  0.2444 -0.0783  0.0236
19501W        W35975  11.785   8.484  12.047  0.2478  0.0116 -0.1697
19502W        W35976   8.690  13.452  15.943  0.0064 -0.1520  0.2122
19503W        W35977   8.844   1.442  15.903  0.1437 -0.0698 -0.3368
19504W        W35978  12.622   4.330  16.021 -0.1878 -0.0217 -0.1512
19505W        W35979  17.674   5.263   3.617  0.0269  0.1406  0.3370
19506W        W35980   3.466   9.152   3.211  0.0665  0.2095  0.0341
19507W        W35981  15.675  15.847  15.424  0.0490 -0.0748  0.0438
19508W        W35982   6.622  13.268   2.919  0.0905 -0.1918  0.2234
19509W        W35983   3.897   3.688   0.138  0.0539 -0.0544 -0.1236
19510W        W35984  12.834   3.285  16.319  0.1343  0.3078  0.0189
19511W        W35985   0.827  13.442  13.551 -0.0330  0.0229  0.0716
19512W        W35986   9.976   1.951  12.044 -0.3901 -0.0580 -0.0915
19513W        W35987   0.863   7.891  12.849 -0.2169 -0.3380 -0.1208
19514W        W35988  17.790  13.697  12.126  0.0410  0.3174 -0.2285
19515W        W35989  13.842  17.364  13.518  0.0606  0.0897 -0.0213
19516W        W35990  16.083   8.248  14.648 -0.3521  0.0323  0.3571
19517W        W35991   5.195   4.094   4.005  0.1579 -0.3951 -0.2661
19518W        W35992  11.775  12.687   5.561 -0.1010 -0.1558 -0.0613
19519W        W35993  13.281   4.574   1.634 -0.0058  0.4045  0.0492
19520W        W35994  11.345   1.730  15.289 -0.3716  0.2566 -0.1670
19521W        W35995  16.487  13.277   3.292  0.2197 -0.0049 -0.0012
19522W        W35996   0.585  12.999   2.516  0.1524 -0.1616  0.1545
19523W        W35997  14.835   8.711   0.958 -0.0819 -0.0284 -0.1243
19524W        W35998   8.396   9.012  13.363  0.0281 -0.0122  0.5867
19525W        W35999  17.389   4.189   3.266 -0.0742 -0.1738  0.1964
19526W        W36000  14.939  13.882   2.157  0.0318 -0.0643  0.2420
19527W        W36001  13.320   6.153   0.495 -0.1371 -0.0786  0.1815
19528W        W36002   4.888  10.836   4.948  0.0793 -0.1039  0.1776
19529W        W36003   8.613   2.877   4.740  0.1134  0.0498 -0.5222
19530W        W36004   0.710   5.901   1.581  0.0262 -0.1447  0.2511
19531W        W36005  10.647  14.782  12.651  0.5202  0.2734  0.3748
19532W        W36006  16.417  10.215   3.498  0.1455  0.1579 -0.1492
19533W        W36007   6.239  15.698   4.611  0.0723  0.0477  0.0713
19534W        W36008  11.490  10.772  12.655  0.0388  0.1306 -0.1684
19535W        W36009   1.076  11.890   3.349  0.5764  0.3420  0.4179
19536W        W36010  12.482  16.842   5.580 -0.2108  0.0859  0.1590
19537W        W36011  16.396  11.728   4.296 -0.2247  0.6701  0.1836
19538W        W36012  13.358   5.193   1.237 -0.0015  0.0219  0.3683
19539W        W36013  16.255   4.964  10.830 -0.3330 -0.0698 -0.1311
19540W        W36014   7.365  16.788  15.891 -0.0801 -0.1074 -0.4042
19541W        W36015   8.962   6.612  14.974  0.0745  0.1104 -0.0831
19542W        W36016  17.011   5.442  14.159  0.0571 -0.2040  0.0540
19543W        W36017  16.894   0.241  13.183 -0.0727  0.1673 -0.2199
19544W        W36018  11.749  11.223  11.472  0.1744  0.3196  0.1207
19545W        W36019   1.403   5.445   0.837  0.1530 -0.2175  0.0595
19546W        W36020  13.765   5.458  14.645  0.0505 -0.1980  0.2294
19547W        W36021  13.178   1.224  13.820  0.2152 -0.2557  0.0472
19548W        W36022  14.081   1.411  13.456 -0.0036  0.1001 -0.3638
19549W        W36023  10.900   5.174  12.892 -0.1982 -0.1873 -0.1421
19550W        W36024   3.242   6.932  12.942  0.0671  0.3238  0.1781
19551W        W36025   6.732  12.459   0.084 -0.3237  0.4225  0.0290
19552W        W36026  13.198   3.629  13.907  0.0971  0.0010  0.1817
19553W        W36027   1.974   7.090   2.739 -0.3202  0.1410  0.1314
19554W        W36028   4.075  16.657   2.933 -0.0718 -0.2532  0.0354
19555W        W36029   0.955  12.137   2.926 -0.1288 -0.2227 -0.0185
19556W        W36030  13.779  13.656   4.500 -0.2618  0.1427  0.3155
19557W        W36031   2.998   0.649   1.318 -0.1193  0.1707 -0.0203
19558W        W36032  17.880  16.821   0.320 -0.1422 -0.3617 -0.1482
19559W        W36033   8.309  16.749   4.089  0.0382 -0.0062  0.0879
19560W        W36034   8.725  10.094  14.212 -0.0633 -0.0935  0.1766
19561W        W36035  15.415  14.782   5.037 -0.0995 -0.0520  0.2166
19562W        W36036  13.217  13.057  15.716  0.1143 -0.3669 -0.2366
19563W        W36037  10.054   4.029  15.593  0.0598 -0.3162  0.4378
19564W        W36038   8.576  15.961  10.671  0.0647  0.3279 -0.1245
19565W        W36039   9.366   6.506   0.893 -0.0688 -0.0629 -0.1202
19566W        W36040   2.933   1.633  15.083  0.1288 -0.0726 -0.1283
19567W        W36041  10.609   0.108   1.351  0.1015  0.4333  0.2187
19568W        W36042   6.591   9.483   4.379 -0.2141 -0.2340 -0.1782
19569W        W36043   1.195   7.358   4.167 -0.0513 -0.1893 -0.0934
19570W        W36044  11.209   2.526   3.446 -0.2669  0.2281 -0.1899
19571W        W36045   7.001  12.397  13.754  0.0952  0.1622 -0.2040
19572W        W36046  11.502  10.057  16.269  0.1733 -0.0278 -0.1691
19573W        W36047  11.258  16.746   5.555 -0.3949 -0.1289  0.0408
19574W        W36048   9.314   3.472   4.707 -0.3496  0.3977  0.2419
19575W        W36049   9.431   5.306  13.977 -0.2084  0.2147 -0.1539
19576W        W36050  10.183   7.956  12.358  0.0783 -0.2867 -0.0522
19577W        W36051  17.291  16.325  11.297  0.2256  0.0401 -0.3138
19578W        W36052   3.644  15.964  12.178  0.1652  0.1943  0.2007
19579W        W36053   7.088   5.010   2.049  0.2200  0.0113  0.2476
19580W        W36054  15.268   5.891   1.650  0.1345  0.2365  0.0689
19581W        W36055   1.778   7.461  14.459 -0.0966  0.0245 -0.1295
19582W        W36056  14.481   1.349   1.547  0.2603 -0.1752  0.1431
19583W        W36057  16.468  17.557  15.734  0.4227  0.1521 -0.2030
19584W        W36058  14.218   5.150   1.405  0.1590  0.0636 -0.3633
19585W        W36059   2.235   5.378  13.802 -0.4234  0.1041  0.1342
19586W        W36060  11.130   7.882  15.006  0.0779 -0.1598  0.0676
19587W        W36061  15.146  11.575   0.421  0.0248 -0.2557 -0.0953
19588W        W36062  14.913   6.494   4.617 -0.1526  0.2034 -0.1913
19589W        W36063   6.261   4.033  13.920 -0.1045 -0.1980  0.1773
19590W        W36064  10.493   3.276   0.273 -0.1976 -0.0847  0.0289
19591W        W36065   2.565   6.958  11.669  0.0266 -0.1186 -0.0387
19592W        W36066   4.196   5.707   3.815 -0.0084  0.2780  0.0770
19593W        W36067  13.889  15.040   5.171 -0.0542  0.0826 -0.1288
19594W        W36068   2.810   4.075   3.176  0.0131 -0.1799  0.0573
19595W        W36069   4.127  12.484  15.163 -0.1157 -0.0226 -0.1445
19596W        W36070   4.670   4.759   3.976 -0.0584 -0.1796 -0.1633
19597W        W36071  11.713  13.335  12.592  0.1722  0.2938 -0.1468
19598W        W36072   7.780  17.892   4.574 -0.1641  0.1781 -0.1234
19599W        W36073  11.061  17.869  13.892  0.1444 -0.1011  0.2995
19600W        W36074  13.350  17.954  16.286 -0.2592  0.1533  0.0804
19601W        W36075  14.968   0.720   0.119 -0.0013 -0.0384  0.4108
19602W        W36076  10.355   5.858  11.316 -0.5063  0.0650 -0.0197
19603W        W36077  13.783   2.359  14.694 -0.1980  0.0416  0.2174
19604W        W36078   9.276  14.758   3.431  0.2094  0.0040  0.2945
19605W        W36079   2.189  11.921  14.440  0.0975  0.2919  0.1482
19606W        W36080  14.506   4.557  15.662 -0.1328 -0.0117 -0.1650
19607W        W36081   4.975   2.439   6.055  0.1236 -0.3152 -0.4164
19608W        W36082  14.380  13.388   4.352  0.0272 -0.2204 -0.0467
19609W        W36083  11.410   2.861   5.787 -0.1588 -0.2358  0.2875
19610W        W36084   7.145  18.256  11.874 -0.1095  0.1003 -0.1668
19611W        W36085   6.830  11.773  12.675 -0.0095 -0.2898 -0.4561
19612W        W36086  18.185  17.750   3.014 -0.2298 -0.3026  0.1726
19613W        W36087   9.671   7.051  13.723 -0.3087  0.3569 -0.2609
19614W        W36088  14.968   0.633  14.421 -0.0103 -0.1330  0.0469
19615W        W36089   4.963  14.245   2.249 -0.0802 -0.0257 -0.2030
19616W        W36090  17.704  17.973   2.879  0.2111  0.1098 -0.3050
19617W        W36091   3.987  13.881   5.767 -0.3625  0.2462  0.0846
19618W        W36092  16.120   1.898  11.411  0.1831 -0.3268 -0.1075
19619W        W36093   9.094   1.421   4.189 -0.4611  0.1352  0.5273
19620W        W36094   3.482   2.050  13.177 -0.0890  0.1741  0.1376
19621W        W36095  11.978   5.243  10.373  0.1630  0.0833  0.0806
19622W        W36096   9.565   2.822   2.522 -0.1061 -0.0815 -0.0266
19623W        W36097  10.601  10.900   1.873  0.1592 -0.1044 -0.1352
19624W        W36098  14.928   8.629  12.741 -0.0954  0.0292  0.1150
19625W        W36099   1.234  10.986  13.266  0.1277 -0.2331  0.0228
19626W        W36100   3.916  13.079   3.203  0.0319  0.0377 -0.0157
19627W        W36101   6.568   2.191  14.933  0.2837  0.0808 -0.2101
19628W        W36102  16.484   7.282   0.314 -0.2432  0.0259 -0.2473
19629W        W36103   2.029  17.556  15.754  0.2560  0.2146  0.0385
19630W        W36104  12.062  11.098   2.501 -0.1136 -0.2030  0.1126
19631W        W36105   0.554  18.356   3.896 -0.1819 -0.2600  0.3925
19632W        W36106  17.684   7.188  12.845 -0.0938  0.1904  0.0501
19633W        W36107  16.987   5.229   0.610  0.1226 -0.0064  0.0973
19634W        W36108   7.756   7.435  12.583 -0.0460 -0.1652 -0.0122
19635W        W36109   0.368   7.803  14.582 -0.2321  0.2395  0.1797
19636W        W36110   2.262   4.400  14.573  0.0574 -0.0944  0.0649
19637W        W36111  10.475  17.839  16.187  0.0410  0.1420  0.1713
19638W        W36112   2.586  13.113   0.100  0.1857 -0.0184 -0.1804
19639W        W36113   4.473  15.343   2.299  0.1211 -0.0273 -0.1256
19640W        W36114  17.403  10.636  13.030 -0.2928 -0.0160  0.0505
19641W        W36115  14.160  15.757  13.372  0.1104  0.2456  0.2231
19642W        W36116   3.175   4.981   1.687  0.0892 -0.0112  0.1969
19643W        W36117  17.590   7.343   3.174 -0.5726  0.4730 -0.2292
19644W        W36118  12.854  12.683   0.746  0.1936  0.1603 -0.0368
19645W        W36119  11.098   3.968  13.629 -0.3776  0.3553  0.0196
19646W        W36120   3.454  17.650   6.547  0.2074 -0.0483  0.0073
19647W        W36121  13.032  16.338  14.134  0.1508  0.0469  0.0845
19648W        W36122  14.467   2.265  14.079 -0.2440  0.2906  0.0392
19649W        W36123   5.140  14.234   0.868  0.1235 -0.1620  0.3425
19650W        W36124  17.274   1.990   4.003  0.0820 -0.0128 -0.3817
19651W        W36125   2.601   0.471  14.654  0.0786 -0.0085 -0.2989
19652W        W36126  17.902  18.095   3.901 -0.1505 -0.1098  0.0944
19653W        W36127  17.418  16.204  15.699 -0.3132 -0.0871  0.2425
19654W        W36128   4.627  13.158  14.992 -0.1949 -0.0060 -0.0521
19655W        W36129   8.927  14.116   5.335  0.3757  0.2880 -0.2506
19656W        W36130   1.108  16.983   1.489  0.1256  0.0735  0.0996
19657W        W36131   7.000  10.410   4.074  0.0102  0.2696 -0.1700
19658W        W36132  17.460  14.549   2.829  0.0008 -0.1370 -0.0714
19659W        W36133   3.670   2.811  15.809  0.2516 -0.0534  0.2477
19660W        W36134   3.896  10.425   4.190  0.4199 -0.1552  0.2348
19661W        W36135   6.876   2.781  12.286  0.1372  0.0359  0.3128
19662W        W36136   6.401  16.222  13.647 -0.0848  0.0621 -0.0188
19663W        W36137   0.842  14.080  15.908 -0.0980  0.3471  0.3924
19664W        W36138   4.524  10.666  12.294 -0.3214  0.0387 -0.0532
19665W        W36139  11.857   8.092  15.719  0.4144  0.2308 -0.0118
19666W        W36140   0.449   5.513   2.459 -0.3288  0.1957 -0.2193
19667W        W36141  10.699   6.228  13.762  0.0620  0.1578 -0.0692
19668W        W36142  11.710   6.835  12.377 -0.3097 -0.0160  0.0116
19669W        W36143   5.160   7.528   0.455  0.0795  0.1717  0.1162
19670W        W36144  17.297  12.701   4.217 -0.1938  0.0467 -0.1551
19671W        W36145  17.810  10.120   0.091 -0.0040 -0.3875 -0.3136
19672W        W36146   8.362  18.352   3.963  0.0041 -0.0353 -0.2883
19673W        W36147  15.466  13.438  11.423  0.1615 -0.1038 -0.0822
19674W        W36148   5.203   2.158  11.867  0.1999 -0.2689  0.2260
19675W        W36149  18.357  15.047   2.606  0.0012  0.1687  0.1446
19676W        W36150  11.054   5.451  13.653  0.0258  0.0726 -0.0140
19677W        W36151   3.862   9.658   0.758  0.1361  0.3317 -0.2872
19678W        W36152  17.973  11.187  10.185  0.1914 -0.1369  0.2083
19679W        W36153   3.326  11.555   3.750 -0.2133  0.1422 -0.1289
19680W        W36154  14.831   8.822  10.187 -0.0441  0.0587  0.1597
19681W        W36155  11.966  17.698   3.382 -0.2318 -0.0063 -0.0926
19682W        W36156   4.007   4.025  14.523  0.1809  0.1369  0.2206
19683W        W36157  10.706  11.856  15.872  0.4949  0.2848  0.2373
19684W        W36158   6.006  18.034   0.057  0.1345 -0.0486  0.0098
19685W        W36159  12.587  13.576  12.187 -0.2869  0.2632 -0.0468
19686W        W36160   5.896  11.379  13.876  0.1607  0.0382 -0.2651
19687W        W36161  16.406   5.718   0.222  0.0199  0.1289 -0.0365
19688W        W36162   6.042   3.749  15.386 -0.0951 -0.2156  0.0554
19689W        W36163  15.074  16.963   0.718 -0.1957  0.1456  0.0174
19690W        W36164   8.129   5.153  14.506  0.3026  0.2298 -0.0727
19691W        W36165   4.812   8.086   1.078  0.0451  0.0832  0.2704
19692W        W36166   5.813  10.990   1.637 -0.0581 -0.1774  0.2613
19693W        W36167   3.232   8.666  12.304 -0.1323  0.0977 -0.1632
19694W        W36168  16.202  14.106   3.699 -0.2267 -0.1337  0.1782
19695W        W36169  14.859  14.709   1.206  0.0527  0.0450  0.1408
19696W        W36170   4.569  16.304   2.679 -0.1078 -0.2883  0.1012
19697W        W36171  12.960  11.525  13.453  0.0846 -0.1552 -0.2053
19698W        W36172  10.126   9.924  11.321  0.3230 -0.1092 -0.1828
19699W        W36173   9.094   6.925   0.666 -0.2417 -0.2133 -0.1507
19700W        W36174   1.316   3.382   1.923 -0.0687 -0.0232 -0.0092
19701W        W36175  13.604   9.504  10.767 -0.3407 -0.3727  0.0379
19702W        W36176  10.833   1.459   4.098  0.1613  0.2116  0.2086
19703W        W36177   6.542   2.888   3.968  0.0537 -0.2147 -0.3029
19704W        W36178  14.256   7.264  11.137 -0.1847 -0.0390 -0.2017
19705W        W36179  10.768  15.710   1.219  0.0836 -0.1059 -0.1479
19706W        W36180  11.552   4.061   0.425 -0.1703 -0.0230  0.1186
19707W        W36181   2.546   7.895   4.888  0.1281  0.0660 -0.1588
19708W        W36182   2.063  14.293   3.206  0.2557 -0.0228 -0.0338
19709W        W36183  16.769  15.558   5.422 -0.1153 -0.0513  0.0636
19710W        W36184   9.583   7.500   1.863  0.1087 -0.0291 -0.1762
19711W        W36185   6.144   3.254  11.941 -0.2320  0.5981 -0.1257
19712W        W36186   9.399  13.776   5.476  0.2205  0.1675 -0.0777
19713W        W36187   9.895   8.371   1.320  0.0031 -0.0518  0.0130
19714W        W36188   5.576  15.466   3.262  0.0893  0.0885 -0.0026
19715W        W36189  17.544   1.547  11.488 -0.2920 -0.0716 -0.0348
19716W        W36190   0.830  13.068   5.966 -0.3605 -0.1780  0.2830
19717W        W36191   6.131  10.058   0.667  0.3967 -0.1854  0.2245
19718W        W36192   9.483   2.261  14.537 -0.1252  0.0174 -0.0604
19719W        W36193   8.020  14.935   4.927 -0.1608  0.0411 -0.2195
19720W        W36194   3.083  18.056  15.125 -0.0557  0.1065  0.0002
19721W        W36195  18.388  14.262   4.448  0.0454 -0.1726 -0.1018
19722W        W36196   8.687   9.557  12.680  0.0264 -0.0290 -0.2377
19723W        W36197   6.015  17.886   3.337 -0.2369  0.1766  0.1922
19724W        W36198   9.669   4.752  13.260  0.0708 -0.1646 -0.1435
19725W        W36199  12.596   9.020  11.540 -0.4021 -0.1553  0.2332
19726W        W36200  17.554   0.971  12.697  0.0526 -0.0601  0.1493
19727W        W36201  10.169   3.059   3.423 -0.0659 -0.1923  0.3013
19728W        W36202  10.093  14.248   6.284 -0.1227  0.1055  0.1520
19729W        W36203  16.298  11.236   5.707 -0.0760  0.0150  0.1282
19730W        W36204  18.018   6.727  13.969  0.0981 -0.2865 -0.1800
19731W        W36205   2.897   0.072  14.542  0.1050  0.2830 -0.0171
19732W        W36206  16.858  18.155   2.483 -0.0692 -0.0216  0.1729
19733W        W36207  17.480   8.377   0.602 -0.0189  0.0131  0.2880
19734W        W36208  11.475   5.854  15.739 -0.1060  0.0738  0.1667
19735W        W36209   0.873   6.789  14.484 -0.2460 -0.0307 -0.1799
19736W        W36210  10.310  16.018  13.222 -0.1559 -0.1558 -0.2502
19737W        W36211  12.257  11.619  11.922 -0.1308 -0.0906  0.2697
19738W        W36212  13.461  15.801  11.308 -0.0288 -0.5042  0.2473
19739W        W36213  14.465  13.709   0.770 -0.2054 -0.0143  0.0418
19740W        W36214  12.014   4.995  12.004 -0.1437  0.0610 -0.1693
19741W        W36215  13.989   5.561  15.290 -0.1672  0.0609 -0.1214
19742W        W36216   1.289  16.925   2.642 -0.1174  0.1446 -0.0858
19743W        W36217  13.033  12.497  15.065  0.2067  0.0184  0.0498
19744W        W36218  11.067   8.304  14.054 -0.2115  0.1771 -0.0246
19745W        W36219  14.099  11.727  11.325  0.1264 -0.1596 -0.2181
19746W        W36220   4.279   1.482  14.812  0.0634 -0.1056  0.2828
19747W        W36221  14.551  12.427   3.715  0.0444  0.0987  0.0093
19748W        W36222   8.266   0.584   3.448 -0.1845  0.2241 -0.1747
19749W        W36223   7.415   9.668   0.370 -0.0420  0.0602 -0.2521
19750W        W36224  13.531  12.774  16.188 -0.0423 -0.2553  0.0445
19751W        W36225   3.738  11.920   1.342  0.0439 -0.1877  0.0013
19752W        W36226  13.424  12.674  15.484  0.3360 -0.0521 -0.2597
19753W        W36227   8.739  16.704   4.358 -0.0140 -0.2701 -0.1954
19754W        W36228  10.489   6.670   0.626  0.1681 -0.4189  0.2809
19755W        W36229   3.518  10.829  12.863 -0.3178 -0.6056 -0.2027
19756W        W36230  17.803  16.086   5.830 -0.0146 -0.0295  0.1056
19757W        W36231   7.561   0.687   1.476  0.0972  0.2875 -0.1286
19758W        W36232  13.741   0.447   1.882 -0.1468 -0.2818  0.0269
19759W        W36233   6.973   5.064   4.360 -0.3219  0.4236 -0.1219
19760W        W36234   7.177  17.899   6.386  0.0598  0.1370  0.1325
19761W        W36235  18.055  18.378  15.192  0.2158 -0.0676  0.3543
19762W        W36236  10.017   0.957   5.686 -0.0536  0.4166  0.0487
19763W        W36237  13.290   7.807  14.518 -0.2931  0.0847  0.2182
19764W        W36238  13.658   2.767   3.410 -0.3903 -0.1413  0.1814
19765W        W36239   8.491   5.686   3.546 -0.2191 -0.2104 -0.1359
19766W        W36240   1.428   2.147   0.736  0.2519 -0.5074 -0.2324
19767W        W36241  10.144   3.549   2.625 -0.2653 -0.2820 -0.0486
19768W        W36242  15.856   1.420  13.118  0.1293 -0.0239  0.1848
19769W        W36243   6.077   5.551  12.595  0.1621  0.0866 -0.0568
19770W        W36244  10.852  11.385  16.070  0.3232  0.0688 -0.0492
19771W        W36245   5.528  10.011  14.255 -0.0512  0.3190 -0.2653
19772W        W36246  10.903   9.587  13.356  0.3938  0.0064  0.1088
19773W        W36247   2.915   2.345  14.477  0.0243 -0.0776  0.1472
19774W        W36248   5.318   3.224   1.918  0.2456 -0.1885  0.1253
19775W        W36249   8.621  17.427   5.668 -0.0039 -0.5107 -0.0946
19776W        W36250   8.868   3.271   0.690 -0.2260 -0.3862  0.2950
19777W        W36251  18.359   0.511  15.026  0.1165  0.2485 -0.1474
19778W        W36252   9.054   9.671  11.234 -0.0505 -0.1822 -0.1241
19779W        W36253  11.381  12.705  13.254 -0.1876  0.1789 -0.1536
19780W        W36254  17.458   8.988   3.716 -0.0505  0.1894 -0.1437
19781W        W36255   7.542  10.309   4.574  0.3536  0.0939  0.0124
19782W        W36256  10.284   2.465  14.044  0.1501 -0.0484  0.1437
19783W        W36257  14.445   2.215  13.438 -0.0577 -0.0433  0.0085
19784W        W36258  17.059   6.612  14.373  0.3557  0.1149 -0.2547
19785W        W36259   4.871   4.188   0.409  0.1823  0.2022  0.0157
19786W        W36260  15.268   0.269   2.018 -0.2613 -0.0226  0.0002
19787W        W36261   0.212  10.701  15.501 -0.3615 -0.0499 -0.0424
19788W        W36262  15.294   2.094  13.499 -0.0874  0.0389 -0.0811
19789W        W36263   5.668   6.885   3.532  0.2922  0.0566  0.0182
19790W        W36264  13.486   4.226   3.208 -0.2110 -0.3040  0.2826
19791W        W36265  17.039  16.575   1.599 -0.2033  0.1911 -0.1149
19792W        W36266  15.477  12.873  12.691 -0.3880  0.1873  0.0034
19793W        W36267   3.587  16.822  13.159 -0.1506  0.0846  0.0828
19794W        W36268  10.486   7.113  11.053 -0.3755 -0.0360  0.0897
19795W        W36269  12.020   5.971  14.784  0.3256  0.2065  0.1677
19796W        W36270   5.504   9.093  13.224 -0.0431  0.2463  0.1283
19797W        W36271  15.856   3.737   2.414  0.1675 -0.0882 -0.1409
19798W        W36272  14.479   8.908   3.114  0.2690  0.5988  0.0752
19799W        W36273   3.405   0.626   6.017  0.0188  0.0758 -0.1278
19800W        W36274   6.033  15.286   2.377  0.1578  0.0082  0.0360
19801W        W36275   0.815   0.506  16.272 -0.1084 -0.0867  0.1193
19802W        W36276   0.531  11.548   2.208 -0.2683 -0.2964  0.2623
19803W        W36277   3.140  11.095  15.164 -0.0119 -0.2428  0.2294
19804W        W36278  14.951  10.156  13.783 -0.1669  0.0087  0.0040
19805W        W36279   5.945  10.612   2.505 -0.0260 -0.2379 -0.0478
19806W        W36280  11.037   8.023   5.465 -0.0876 -0.1186 -0.2250
19807W        W36281  15.135  18.189  15.906 -0.0285 -0.2566 -0.2924
19808W        W36282  10.161  15.167   3.656  0.0417 -0.0770  0.5085
19809W        W36283   6.562   5.143  13.135 -0.4276  0.2399 -0.0897
19810W        W36284   8.211  15.825   4.726  0.2845 -0.1833 -0.1710
19811W        W36285   0.729  17.981   5.403 -0.5146  0.1461  0.1030
19812W        W36286   9.221   3.549   4.221 -0.0588  0.1955 -0.0562
19813W        W36287  10.835   8.399  12.019  0.0926  0.0071  0.1951
19814W        W36288   3.508  11.450   0.528  0.2863 -0.0341  0.0683
19815W        W36289   6.756   4.285   0.127  0.1499  0.0123 -0.1034
19816W        W36290  12.799   5.306  11.569  0.2349  0.2510 -0.2621
19817W        W36291  10.534  10.816  12.739  0.3262  0.0019  0.0158
19818W        W36292   2.263   1.485   0.083  0.0214 -0.1066  0.0095
19819W        W36293   1.765  13.871   2.477 -0.1557  0.0777 -0.3594
19820W        W36294  15.061   5.654   3.540  0.1561 -0.0209 -0.0350
19821W        W36295  12.319  15.611  14.576  0.0946 -0.0270 -0.1483
19822W        W36296  15.518  13.319  13.854  0.0310 -0.0213  0.1545
19823W        W36297   6.476   1.707  15.099  0.3158 -0.1518 -0.0157
19824W        W36298  11.635  17.376   3.114 -0.1800 -0.1773  0.0123
19825W        W36299   7.783   4.317  13.408  0.2527 -0.2835  0.1040
19826W        W36300   7.249   1.389  12.350  0.0128 -0.3115 -0.0596
19827W        W36301   0.782  13.860   2.680 -0.0586 -0.1081  0.4567
19828W        W36302   2.834   4.642  15.318 -0.0518 -0.2449 -0.1028
19829W        W36303  12.531   5.659   1.084 -0.2958  0.1809 -0.0239
19830W        W36304  16.031  11.966  15.738  0.1666  0.1969 -0.0658
19831W        W36305  10.827   2.409  10.338 -0.2161 -0.0916 -0.1741
19832W        W36306  13.179  17.455   2.818  0.2937 -0.1366 -0.2208
19833W        W36307   2.721   6.678   5.234 -0.1624  0.1346 -0.0669
19834W        W36308  13.670  11.757  13.974 -0.0034 -0.3411 -0.1084
19835W        W36309  10.165   9.348  13.543 -0.3176 -0.1945 -0.0685
19836W        W36310   4.139  13.680   1.819  0.3363  0.1661  0.0707
19837W        W36311  12.850   2.198  12.369  0.0486 -0.4129  0.0403
19838W        W36312   8.090  10.937   4.839 -0.1604 -0.2655 -0.3125
19839W        W36313   2.866  15.249   3.860 -0.1732 -0.2688 -0.2723
19840W        W36314   6.988  12.192   2.626  0.1185 -0.0506  0.1123
19841W        W36315  16.625  12.837   3.420  0.0686 -0.0193  0.1258
19842W        W36316  10.251   1.424  11.991  0.0639  0.0942  0.0324
19843W        W36317   4.276  17.045   3.945 -0.0557  0.2441  0.2830
19844W        W36318  16.350   8.107  16.133  0.2697 -0.2056  0.3373
19845W        W36319  12.014   3.187  10.378 -0.1360  0.0230  0.0735
19846W        W36320   4.200   5.941   2.672 -0.0288  0.0386  0.0498
19847W        W36321  12.942   0.156  15.926 -0.1020  0.1242 -0.0143
19848W        W36322   8.046   5.849  13.907  0.1282 -0.1850 -0.1992
19849W        W36323   0.524   9.297   0.727 -0.1573  0.0344 -0.0974
19850W        W36324  12.620   7.284  11.836 -0.0146 -0.0895  0.2003
19851W        W36325  15.109  10.528  14.750  0.2561 -0.2082 -0.0490
19852W        W36326  12.735  12.319  11.227  0.0116 -0.1636 -0.1892
19853W        W36327   9.404  14.250   5.212  0.4109 -0.2007  0.1341
19854W        W36328  17.911   2.654   4.278  0.3694 -0.0339 -0.2242
19855W        W36329  13.287  12.994   6.165 -0.0130  0.1670 -0.0494
19856W        W36330   8.716  16.976   3.944  0.0023  0.1327  0.0109
19857W        W36331   1.151   4.534  16.269 -0.0822 -0.1420 -0.1697
19858W        W36332  17.327   7.383  14.941 -0.1291 -0.1528 -0.1994
19859W        W36333   3.509  17.323   3.314  0.3286  0.2557 -0.1618
19860W        W36334   7.552  14.022  13.306 -0.2984 -0.3825  0.3234
19861W        W36335  11.611  11.342   2.601 -0.0662  0.2339  0.2186
19862W        W36336   5.315   9.556   0.423 -0.2021  0.2237  0.1279
19863W        W36337   7.603   6.757  10.752 -0.0943  0.0085 -0.4023
19864W        W36338  12.111   3.643   1.223 -0.2505 -0.1744 -0.3336
19865W        W36339   6.803  14.770  12.215  0.3545 -0.0285  0.0755
19866W        W36340  12.986  17.544  12.539  0.1329 -0.2647  0.1014
19867W        W36341   0.897  16.965   0.972  0.0182 -0.0182 -0.1786
19868W        W36342   3.904   7.302  15.143  0.3383  0.2488 -0.2647
19869W        W36343   2.432   6.605  11.345 -0.1987 -0.1456 -0.1467
19870W        W36344   9.081  16.183  12.630 -0.1110 -0.2784  0.1308
19871W        W36345   8.065  12.478   3.979 -0.1442 -0.0527 -0.2407
19872W        W36346  14.597   5.366  15.115  0.0705  0.1043 -0.3417
19873W        W36347   5.790   0.757  16.287 -0.0318 -0.1195  0.0572
19874W        W36348   5.571  13.499   0.532 -0.0303 -0.1327 -0.0095
19875W        W36349  16.458   7.741  15.688 -0.0433 -0.1871  0.1627
19876W        W36350   1.124   5.797   3.445  0.1424 -0.1119  0.0893
19877W        W36351  11.249  12.730  10.768  0.0249 -0.2113 -0.3626
19878W        W36352  15.240  16.497   1.733 -0.1681  0.0830  0.3905
19879W        W36353  15.651   0.460   1.574  0.0178  0.0821  0.3700
19880W        W36354  17.870  11.263   2.092 -0.2301  0.1460  0.2770
19881W        W36355   2.084   4.167  16.164  0.0420  0.1087  0.1612
19882W        W36356  14.775   8.649   1.600  0.0791 -0.0120  0.1683
19883W        W36357  15.475  13.416   2.292  0.1572  0.1621  0.1380
19884W        W36358   7.467  10.693  14.193  0.1450 -0.0693 -0.0804
19885W        W36359  12.562   4.449  11.798 -0.0119 -0.1750  0.2159
19886W        W36360   4.239  11.587   0.658 -0.0437 -0.1220  0.3342
19887W        W36361   1.565   0.915   3.736 -0.1498  0.3084  0.3431
19888W        W36362  14.539   6.444   3.530 -0.2110  0.1450 -0.0272
19889W        W36363   9.263  16.126   5.406 -0.0563 -0.0502  0.0179
19890W        W36364   4.325  12.692   1.962  0.0393  0.0888 -0.1088
19891W        W36365   3.648  14.240  11.397  0.4663  0.2671 -0.1372
19892W        W36366  12.184   3.672   4.558 -0.2926 -0.0350 -0.3887
19893W        W36367   0.864   2.092   0.635  0.0793  0.3083  0.2702
19894W        W36368  13.491   5.128   3.303 -0.0824  0.4165 -0.1623
19895W        W36369   2.295   0.101  14.933 -0.0939  0.4753 -0.4140
19896W        W36370  16.458  14.089   2.080 -0.1510  0.0908  0.0913
19897W        W36371   8.279   5.208  15.016 -0.4224 -0.0527  0.0136
19898W        W36372  10.245   2.546   3.077 -0.1785  0.0385  0.2231
19899W        W36373  12.956  10.780   3.886  0.1172  0.0966  0.0475
19900W        W36374   5.683  18.024  12.539  0.0216 -0.2245  0.4269
19901W        W36375  15.933   9.977   0.000 -0.0169  0.0097  0.1232
19902W        W36376  13.931   5.878  14.325  0.4283 -0.2858  0.0567
19903W        W36377  16.480   2.328  12.353 -0.2177  0.0482  0.1024
19904W        W36378  13.831  13.933  14.343 -0.0305  0.0657 -0.1312
19905W        W36379   1.163  12.247  14.048  0.2709  0.0534  0.2115
19906W        W36380  12.279  12.762  15.702  0.2859  0.0808 -0.1410
19907W        W36381   2.620   4.924  11.200  0.3155  0.2521 -0.2198
19908W        W36382   2.030  18.171  12.060  0.1130 -0.3545 -0.2090
19909W        W36383   1.875  14.684  11.553 -0.1645  0.0632  0.0386
19910W        W36384   4.573   0.095   2.062 -0.1546 -0.1067 -0.0757
19911W        W36385  12.730   0.562   0.572  0.3308  0.1353 -0.0530
19912W        W36386  13.129   6.841   3.902  0.2345  0.1866  0.0720
19913W        W36387   8.572  12.321   1.450  0.0518  0.2882  0.0055
19914W        W36388  10.877   8.738  12.401  0.4854 -0.1564 -0.1275
19915W        W36389   3.216   2.257  11.934 -0.0795  0.1521 -0.2417
19916W        W36390  12.520  16.785  13.369 -0.2331 -0.0899 -0.1577
19917W        W36391  16.589   2.037  11.578 -0.3504  0.2989  0.2359
19918W        W36392  11.544   2.243  12.211  0.2127  0.1015  0.1041
19919W        W36393   8.594   8.127  14.367 -0.2120  0.1123 -0.2398
19920W        W36394   1.142   5.193  11.409 -0.2014 -0.3335 -0.0620
19921W        W36395  10.138   3.197  16.145 -0.0652  0.3496  0.3474
19922W        W36396  15.862   5.166  14.470 -0.2019 -0.2980  0.0623
19923W        W36397  11.543   6.845   0.802 -0.2238 -0.0500  0.1468
19924W        W36398   6.669  12.614  15.074 -0.0889 -0.2852 -0.1407
19925W        W36399   9.019  14.637  13.045 -0.3662  0.0926 -0.1823
19926W        W36400   9.979   2.661  11.127 -0.3357  0.1176  0.3241
19927W        W36401   6.884   7.281  15.989  0.1788 -0.1141 -0.1040
19928W        W36402   9.028   1.852  11.904 -0.0352 -0.0970  0.1528
19929W        W36403   6.328   2.237   5.424  0.0761 -0.1773 -0.1881
19930W        W36404  16.211   1.680  13.642 -0.2831  0.1332 -0.3063
19931W        W36405  12.631   9.724  14.683  0.0822  0.2058 -0.3403
19932W        W36406   6.445   5.821   2.175  0.0881  0.2882 -0.0210
19933W        W36407   5.364   0.694   4.276 -0.0621  0.0276 -0.0201
19934W        W36408  13.966   6.949   4.538 -0.1331 -0.3109 -0.0543
19935W        W36409   9.538   5.493   3.967  0.0881  0.3663  0.1189
19936W        W36410   7.586  14.219   0.757 -0.0050 -0.0788 -0.1226
19937W        W36411  13.862   1.925   0.330  0.0217  0.0791  0.1561
19938W        W36412  11.048  17.340   2.387 -0.1618  0.2165 -0.2610
19939W        W36413   5.368  13.385  13.410 -0.3331  0.0835  0.2104
19940W        W36414   3.927   6.601   0.833  0.0327 -0.0272 -0.0347
19941W        W36415   3.578  16.919  14.735  0.0610 -0.0329 -0.0604
19942W        W36416   1.345   5.955   0.875 -0.0392 -0.3217  0.1176
19943W        W36417  12.012   9.390   3.469  0.0151  0.4297 -0.0671
19944W        W36418   9.194   7.142  13.887 -0.2987  0.0038 -0.2415
19945W        W36419  17.895   5.739  12.352 -0.1923 -0.0913 -0.1838
19946W        W36420  15.931  11.999   5.056  0.1295 -0.0506 -0.1507
19947W        W36421   4.160  14.478  12.780  0.3919  0.0886  0.1536
19948W        W36422  10.130  11.219  12.024 -0.0075  0.2608 -0.1473
19949W        W36423   1.423  17.252   5.666 -0.1878 -0.0220 -0.1207
19950W        W36424   1.149   1.492   4.468 -0.2415  0.0922 -0.2521
19951W        W36425   0.050   9.739   4.819 -0.1739  0.0838  0.3719
19952W        W36426   6.426   5.276   2.176  0.1175  0.0138  0.1383
19953W        W36427   0.296  16.435   0.377 -0.0363  0.0500  0.2739
19954W        W36428  11.000   0.533  12.929 -0.3349 -0.1326 -0.0161
19955W        W36429  11.914   7.836  13.933 -0.0511  0.0745 -0.0445
19956W        W36430   9.563   5.008   1.014 -0.0246 -0.2034 -0.0807
19957W        W36431   2.623   9.511  11.342 -0.3389 -0.1786 -0.1972
19958W        W36432   4.678   4.735  14.421 -0.0898 -0.2654  0.0143
19959W        W36433  10.426  12.832  14.301  0.0528  0.1770 -0.1360
19960W        W36434   0.220  12.373  13.831 -0.0228  0.0923 -0.0211
19961W        W36435  12.440  12.850   5.038  0.2183  0.3790 -0.0172
19962W        W36436   1.462   4.774   4.724 -0.2111 -0.0130  0.0195
19963W        W36437  10.604   4.026   4.496 -0.0406  0.1593  0.3096
19964W        W36438   7.608   7.161   0.262  0.1094 -0.0917 -0.0833
19965W        W36439   9.120   7.785   3.307 -0.2261 -0.2195 -0.2734
19966W        W36440  10.193   1.473   4.485  0.2298 -0.0250 -0.1917
19967W        W36441  10.893  13.712   0.821  0.0903 -0.3358  0.0011
19968W        W36442  14.182  12.191  12.387 -0.0236  0.2530  0.0075
19969W        W36443  14.632  11.847  13.769 -0.0093 -0.3640 -0.3479
19970W        W36444   1.480   3.511   2.407 -0.2059  0.1476 -0.3876
19971W        W36445  16.196   9.633  14.925  0.1364  0.1124 -0.0707
19972W        W36446  15.495   6.105   2.985  0.3202 -0.1426  0.3203
19973W        W36447  13.509  10.955  12.134  0.3041 -0.0228  0.1691
19974W        W36448  14.781   4.382   1.057  0.0502 -0.1396  0.0339
19975W        W36449   0.651  16.815   1.470  0.1151  0.0775  0.0794
19976W        W36450   5.167  12.374  15.176 -0.1740 -0.1425 -0.3188
19977W        W36451  11.722  11.756  11.001 -0.4868 -0.1548 -0.1988
19978W        W36452   0.592  13.872   1.036  0.0376  0.1165 -0.2410
19979W        W36453  14.177  10.367  14.819 -0.0734  0.1724  0.2960
19980W        W36454   6.062  14.084   2.921 -0.1045  0.1391  0.0232
19981W        W36455   4.219   1.746  13.599  0.0804 -0.0262 -0.1642
19982W        W36456  16.086   5.621  12.460 -0.0892  0.0232  0.0485
19983W        W36457   5.579   7.717  15.484 -0.0971  0.0240 -0.2289
19984W        W36458  18.051  10.357  13.488 -0.1922 -0.0067 -0.1898
19985W        W36459   0.761  12.480  15.739  0.1148  0.1819  0.0989
19986W        W36460   7.019  15.010   3.676  0.1205  0.1802  0.2432
19987W        W36461   8.313  11.796  15.874 -0.4001 -0.1408  0.0383
19988W        W36462   4.556   3.113  15.817 -0.1512  0.2358 -0.0037
19989W        W36463  14.858  12.558   4.062 -0.0988 -0.2484 -0.1232
19990W        W36464   2.926  10.344   0.711 -0.0526 -0.1241 -0.2349
19991W        W36465   2.180  15.422   1.515 -0.0332  0.1304 -0.1347
19992W        W36466   6.270   1.302  15.335 -0.1105 -0.1889  0.2952
19993W        W36467   1.574   9.458  13.340 -0.0700  0.2728 -0.1004
19994W        W36468  12.968  17.140  12.867 -0.1680  0.2055 -0.1312
19995W        W36469   1.698   2.164   6.373  0.6388  0.0466 -0.1006
19996W        W36470   5.633  14.199  13.370 -0.2281  0.3399  0.0020
19997W        W36471   7.538   7.692   2.190 -0.1806 -0.3526 -0.0611
19998W        W36472   2.426  10.537  15.759  0.0116 -0.0423  0.0342
19999W        W36473   3.887   8.849   3.750 -0.0468  0.2442  0.0539
20000W        W36474  13.848  17.691   2.927  0.0071 -0.0163  0.2148
20001W        W36475   1.942   1.537   2.437  0.0799 -0.0476 -0.0293
20002W        W36476   5.949   2.961   3.602 -0.1409  0.1261 -0.2437
20003W        W36477  17.920  13.077  15.597  0.0876 -0.1271  0.0372
20004W        W36478   6.482  11.415  15.505  0.1276  0.0991 -0.0890
20005W        W36479   4.005  17.532   4.881  0.0371  0.0978 -0.0050
20006W        W36480   4.710  10.040   2.071  0.3341  0.0826  0.2079
20007W        W36481  18.131   7.103  15.480 -0.0466  0.1091  0.2403
20008W        W36482   0.317   8.302  14.556  0.3128  0.2935 -0.1702
20009W        W36483   6.572   6.754   4.732 -0.0070  0.0927 -0.1854
20010W        W36484  15.065   7.641  15.575  0.1087  0.0147  0.3677
20011W        W36485  15.329  14.119   3.524  0.0026 -0.1985  0.2560
20012W        W36486  17.502  11.188   1.454 -0.1796  0.2502 -0.1125
20013W        W36487  10.949  13.719   4.762 -0.3296  0.0643  0.0838
20014W        W36488  11.660  17.645   6.391  0.2065  0.3565 -0.3763
20015W        W36489  18.064   6.988   4.805  0.0451 -0.1369 -0.0615
20016W        W36490   7.700   8.510   0.951 -0.1409  0.0320 -0.2254
20017W        W36491   5.472   6.642  13.338 -0.1871  0.3009 -0.0347
20018W        W36492  16.852   5.124  16.127 -0.2969 -0.1646 -0.0167
20019W        W36493  17.603   9.739   3.381  0.0764 -0.0761  0.3978
20020W        W36494   7.939   8.739   1.733 -0.4525  0.2305  0.2266
20021W        W36495  11.222  17.537  12.928  0.1398  0.0063  0.0055
20022W        W36496  16.904   5.707   4.806 -0.0195 -0.1462 -0.1587
20023W        W36497   3.866  17.958   5.267  0.2337 -0.0745  0.2148
20024W        W36498  14.627   0.820  15.924  0.0865 -0.0916 -0.3536
20025W        W36499  12.318   3.633  14.795  0.2471 -0.1273 -0.0486
20026W        W36500  12.788   3.894  15.386  0.1306  0.1712 -0.1615
20027W        W36501  10.535  11.913   1.864  0.1695 -0.0092 -0.0453
20028W        W36502  17.297  15.581   3.776  0.5227  0.1687  0.1890
20029W        W36503   9.241  15.949  15.037 -0.0234  0.0902 -0.4565
20030W        W36504   6.782  16.085   0.998 -0.1055  0.1103 -0.0135
20031W        W36505   9.505   6.739  15.320  0.4607 -0.0669  0.1479
20032W        W36506  14.810   7.770  10.106  0.1238  0.2153 -0.2981
20033W        W36507   0.813  14.069  14.638 -0.2334  0.0759 -0.0321
20034W        W36508   3.684  11.163  14.522  0.1807 -0.1111  0.1194
20035W        W36509  15.756   9.340   5.189  0.1768  0.3030 -0.1809
20036W        W36510  16.997  13.567   5.153  0.1147  0.0602 -0.0224
20037W        W36511   9.653   4.750   2.392  0.3735 -0.1686  0.1171
20038W        W36512  11.189   6.956  14.743  0.0455 -0.0647  0.0351
20039W        W36513  13.541   3.424  15.680  0.0407  0.0381 -0.0117
20040W        W36514   5.248   6.320  16.121  0.1114 -0.2984 -0.0806
20041W        W36515  11.105   3.756   1.429  0.0665  0.2633  0.1083
20042W        W36516   5.316   3.618  14.911 -0.0894  0.1154 -0.3927
20043W        W36517  14.750  12.823  15.396 -0.0310 -0.1497 -0.0178
20044W        W36518   7.794   1.723   3.387  0.0492  0.0050  0.0400
20045W        W36519   8.752   8.649   0.694  0.1576 -0.0086  0.1185
20046W        W36520  14.530  10.051   4.188 -0.2729 -0.0278 -0.3544
20047W        W36521  12.306   9.554   2.528  0.1402 -0.1822 -0.3209
20048W        W36522  12.581   9.618   4.472  0.0290 -0.0003  0.0150
20049W        W36523  10.422  14.479   4.849  0.3582  0.2711 -0.1613
20050W        W36524  16.045   5.194   0.140 -0.3940  0.2889  0.1374
20051W        W36525  14.470   0.856   0.058  0.0819 -0.2924 -0.0100
20052W        W36526  15.800  10.840  14.368 -0.1158  0.1304 -0.0596
20053W        W36527   2.544   0.803   3.641  0.0082 -0.2505  0.1262
20054W        W36528   0.878  13.959  13.583  0.1872 -0.0320 -0.1789
20055W        W36529   5.274  13.212   4.789 -0.0716 -0.1635  0.1398
20056W        W36530  16.322   7.949   3.725  0.0142 -0.1414 -0.0303
20057W        W36531  18.200  10.150  16.069 -0.4082 -0.1150  0.1279
20058W        W36532   3.205   2.638  13.695 -0.0222 -0.0888 -0.1424
20059W        W36533  16.237  10.710   3.745 -0.1998  0.0125  0.0892
20060W        W36534  14.386   2.684  13.765 -0.1058  0.1282  0.1881
20061W        W36535   0.584  15.430   5.050  0.0001  0.0025 -0.0778
20062W        W36536   5.411   6.517   0.192  0.0412  0.2190  0.0342
20063W        W36537   1.791  13.043   2.936  0.1353  0.0409  0.5130
20064W        W36538  10.055  15.232  14.951 -0.0012 -0.0833 -0.2120
20065W        W36539  16.586   6.160   3.495  0.2905 -0.0734  0.0470
20066W        W36540   2.274   9.862   4.528  0.0431  0.3684 -0.1551
20067W        W36541  10.638   7.885  14.613  0.3262  0.0961  0.0165
20068W        W36542  16.353   1.718   1.345 -0.0140 -0.3682  0.1806
20069W        W36543   0.485   7.976  11.950  0.3071 -0.1082  0.1277
20070W        W36544   6.127  11.363   1.464  0.0747 -0.0773 -0.0045
20071W        W36545  16.336  13.397   2.816 -0.2020 -0.0016 -0.0630
20072W        W36546   7.704  10.152   0.428 -0.0867  0.0266 -0.1314
20073W        W36547  17.058   3.255   0.323  0.2024  0.3056 -0.1704
20074W        W36548   8.690   1.202  13.508 -0.1407  0.1315 -0.0240
20075W        W36549   9.604   5.071   0.443  0.0597 -0.3990 -0.1147
20076W        W36550  13.886  11.108  12.633 -0.0833  0.0488  0.0343
20077W        W36551  16.345   4.973  11.727  0.2926 -0.1958 -0.3564
20078W        W36552   9.340   3.451   5.265  0.0400 -0.3647  0.1843
20079W        W36553   8.373   5.932  12.136  0.2387 -0.3170 -0.3240
20080W        W36554   3.719   4.485  14.764  0.3867  0.1587  0.2912
20081W        W36555  13.785   3.532  16.128 -0.5611 -0.1390  0.2154
20082W        W36556  11.755   9.991   1.865  0.0387 -0.3313  0.0265
20083W        W36557  17.424   5.806  12.736  0.3204 -0.1958 -0.4698
20084W        W36558  13.995   2.147  14.147 -0.3061  0.1164 -0.0692
20085W        W36559   5.416   7.112   2.288  0.1442 -0.1164 -0.4550
20086W        W36560   8.355  11.169   1.940  0.4488 -0.0419 -0.0030
20087W        W36561  17.976  15.919  14.322 -0.3867 -0.0073 -0.0266
20088W        W36562   3.668   4.615   4.257  0.0744  0.1013  0.1300
20089W        W36563  12.649   4.477   4.384 -0.2047  0.2248  0.0426
20090W        W36564   0.323   9.138  11.506  0.3403  0.1385 -0.0897
20091W        W36565  15.792   3.032  15.247 -0.3006  0.2383 -0.1983
20092W        W36566  12.175   0.895   1.871  0.5412  0.1358 -0.2077
20093W        W36567  15.135  13.389  16.327 -0.2956  0.1721  0.0685
20094W        W36568  14.847  17.230   4.071 -0.1200 -0.1837  0.0395
20095W        W36569   3.259  15.042  14.599  0.0359 -0.2317  0.2517
20096W        W36570   4.241  11.398  14.400  0.3211  0.0471  0.0163
20097W        W36571   4.922  11.519  12.360  0.0521 -0.0684 -0.0907
20098W        W36572  16.507   4.575   3.384  0.0076 -0.2641  0.0377
20099W        W36573   8.750   9.119   1.318  0.0565 -0.1751 -0.0487
20100W        W36574  14.164   6.447  12.859  0.4534  0.2090 -0.0152
20101W        W36575  12.498   4.971   1.640  0.4131  0.2325  0.2592
20102W        W36576  12.602  10.427  15.694 -0.0296 -0.2175  0.0535
20103W        W36577   4.370   5.570  11.347  0.0601 -0.0385 -0.3906
20104W        W36578   9.939   6.895  14.210 -0.0176  0.0714 -0.1511
20105W        W36579   5.773  13.664   5.532 -0.2100  0.0523  0.2555
20106W        W36580   1.210   6.850  13.580  0.4321  0.0083 -0.0744
20107W        W36581   2.050   6.896   4.652  0.0576  0.1902 -0.3334
20108W        W36582  10.511   1.981   1.591  0.0729 -0.0366 -0.1416
20109W        W36583   8.789  11.649  10.229 -0.0217 -0.3005  0.0363
20110W        W36584   0.576  10.078   2.885 -0.1619 -0.0421 -0.1321
20111W        W36585  10.718  16.987  14.248 -0.2052 -0.3651  0.2760
20112W        W36586  14.728  17.348   0.702 -0.0854 -0.0378  0.0260
20113W        W36587   7.755   8.769  11.302  0.2891  0.0152  0.2648
20114W        W36588   8.703   7.398  12.844  0.1645  0.0636 -0.1290
20115W        W36589   9.597  16.676   3.161  0.0021 -0.0062 -0.4000
20116W        W36590   9.768  14.172  14.420  0.1306 -0.0983  0.1438
20117W        W36591  17.159  13.188   1.529  0.1250 -0.0598  0.2903
20118W        W36592  17.526   5.960   0.946 -0.1646 -0.0919  0.1181
20119W        W36593   8.767   0.055  14.935  0.1510  0.0614  0.0702
20120W        W36594  11.073   2.696   2.969  0.1280  0.1607  0.4415
20121W        W36595  16.636   9.786  11.592  0.3451 -0.0271 -0.0051
20122W        W36596  10.262  16.074  12.326 -0.1377 -0.1733  0.1923
20123W        W36597  13.783  14.038  11.852  0.3484 -0.1587  0.0498
20124W        W36598   6.396   7.705   4.474 -0.3514  0.1552  0.0192
20125W        W36599   6.138   6.361   4.008  0.1292  0.0020 -0.0944
20126W        W36600   2.513   3.019   4.389 -0.2451  0.3889 -0.1351
20127W        W36601  16.248  15.323   3.469  0.1210 -0.0332 -0.0504
20128W        W36602  11.682   5.676  10.758 -0.1416  0.0357 -0.0183
20129W        W36603  10.117   6.730  12.006 -0.0456  0.0791 -0.2062
20130W        W36604   5.856   6.944   1.138  0.0047  0.3527 -0.3576
20131W        W36605  16.010   9.287   3.206  0.3963  0.0135  0.2522
20132W        W36606  17.610   3.054   4.633  0.1145  0.5249  0.0598
20133W        W36607   4.870  15.157  16.324 -0.0346  0.2193  0.1177
20134W        W36608  15.605   2.686  15.516 -0.1886 -0.2737 -0.1759
20135W        W36609  16.638   4.462  15.818  0.0957  0.1735 -0.0012
20136W        W36610  15.689   6.595   2.999  0.1330  0.2682  0.3168
20137W        W36611   3.541   9.266   0.115 -0.0812 -0.3359  0.3399
20138W        W36612   3.671   1.308   4.015 -0.1626  0.2588  0.0590
20139W        W36613  16.392  10.048   1.472  0.1312  0.0205  0.0385
20140W        W36614   4.575  17.711   1.576  0.3471 -0.2171 -0.0114
20141W        W36615   3.793   3.920   5.655 -0.1134 -0.0217  0.1885
20142W        W36616   4.507  16.924  13.353  0.0362  0.0077 -0.0319
20143W        W36617   6.469  16.547  14.043 -0.0490 -0.0004 -0.1295
20144W        W36618  13.811   0.685  10.866 -0.0182  0.0133 -0.2363
20145W        W36619   0.516  10.036   5.452 -0.0288  0.2989 -0.0990
20146W        W36620   1.163  17.359   1.839  0.0934  0.1696  0.2068
20147W        W36621  10.153   5.051  13.443 -0.1106  0.2056  0.4746
20148W        W36622   7.950  14.447   4.784  0.2959  0.0468 -0.2035
20149W        W36623   2.494   5.795   3.058  0.2564  0.3942 -0.1030
20150W        W36624  17.565   8.142  11.546 -0.2732  0.0826  0.0221
20151W        W36625  17.072   5.879  13.120  0.2094 -0.1195  0.0486
20152W        W36626   9.256  15.934  13.160 -0.1763  0.0437  0.0361
20153W        W36627   3.200   4.573  11.989 -0.0166 -0.2522 -0.1984
20154W        W36628  14.146   2.067   3.471  0.0511  0.0314  0.0560
20155W        W36629   6.752  10.624  15.792 -0.1779  0.2077 -0.1192
20156W        W36630  16.764   3.362   3.179 -0.0474  0.0374 -0.0532
20157W        W36631  14.343   8.020  11.852  0.2045 -0.1294 -0.0062
20158W        W36632   1.106   6.862   4.143  0.2912 -0.1212  0.1026
20159W        W36633   7.666   2.292   4.516  0.2483  0.0211  0.0967
20160W        W36634  13.795   8.817   2.505  0.4219  0.1170  0.2950
20161W        W36635   5.943   7.632   0.166 -0.1056  0.0678 -0.1135
20162W        W36636   0.487   8.127   3.819 -0.1266  0.2145  0.0197
20163W        W36637   5.488  15.128   2.250  0.2599  0.1276  0.0449
20164W        W36638  10.913   2.268   1.780 -0.3214  0.1416 -0.1526
20165W        W36639  17.264  11.288  13.906 -0.0513  0.0088  0.1310
20166W        W36640   0.370   8.855   3.642 -0.0336  0.0372  0.0893
20167W        W36641   4.956  10.567   0.259 -0.0539  0.3296  0.0548
20168W        W36642   0.031   7.287   3.762 -0.1815  0.2780 -0.0329
20169W        W36643   2.652   7.511  11.498 -0.4932 -0.0776 -0.2581
20170W        W36644  14.145  11.786  13.739  0.1340 -0.3226  0.2875
20171W        W36645  10.231  16.950   1.235 -0.0840  0.3527 -0.2469
20172W        W36646  16.636   7.729   4.583  0.1191 -0.1181 -0.1054
20173W        W36647   8.051   3.084   4.874  0.1934 -0.1911 -0.4245
20174W        W36648  13.447  13.127  12.195  0.0309 -0.1814 -0.1651
20175W        W36649  11.313  10.574   2.908 -0.1111  0.1573 -0.0125
20176W        W36650  14.917   4.068  12.699  0.0858 -0.1484 -0.0182
20177W        W36651   0.998  16.763  13.535 -0.0848 -0.0523  0.0596
20178W        W36652   1.497  10.982  12.339 -0.0269  0.1481 -0.4169
20179W        W36653  12.679  11.950  14.645 -0.2679 -0.2197  0.1038
20180W        W36654  14.386  14.950  15.730  0.0250 -0.0119  0.0643
20181W        W36655  13.361   3.884  16.217  0.0962 -0.1932 -0.0002
20182W        W36656   7.570   0.259  11.977  0.0056 -0.0286  0.0528
20183W        W36657   1.299  15.042  11.672  0.1016  0.2123 -0.2535
20184W        W36658   6.056   5.129   4.734  0.3823 -0.0279 -0.2256
20185W        W36659   1.746   8.250  13.787  0.1379 -0.0822 -0.2460
20186W        W36660  13.754  10.574  12.580 -0.1162 -0.1616  0.1281
20187W        W36661   5.185  10.111  16.149 -0.0333 -0.1565  0.1378
20188W        W36662  14.127   2.370  12.304 -0.0801  0.0085 -0.0255
20189W        W36663  15.774  17.969  14.213  0.1847  0.1284  0.1591
20190W        W36664  17.118   1.293  15.052 -0.4043 -0.0773 -0.0587
20191W        W36665   0.975   7.244   3.752 -0.1615 -0.3929  0.0173
20192W        W36666   6.600  16.610  15.927 -0.3623 -0.1451 -0.3353
20193W        W36667  14.453  11.882   1.221  0.0896  0.0609 -0.1014
20194W        W36668   9.147   3.020  12.210  0.3544  0.0035  0.1784
20195W        W36669   6.209  18.156   3.724 -0.1237 -0.2385  0.0314
20196W        W36670   5.837  16.272  13.557 -0.0573 -0.1129 -0.0278
20197W        W36671  10.439   3.013   1.864 -0.0992 -0.0593 -0.0087
20198W        W36672   9.445   4.227   0.584  0.2605  0.3375  0.0146
20199W        W36673  11.057   0.598   5.305 -0.1794 -0.0934 -0.2393
20200W        W36674  12.856  14.175  13.266  0.4904  0.1556 -0.1033
20201W        W36675   7.691   9.539   2.508 -0.0466 -0.1245  0.2241
20202W        W36676   9.260  12.279   4.743  0.2633  0.0652 -0.1095
20203W        W36677  11.124  15.356   1.164 -0.0898  0.0465  0.0522
20204W        W36678   0.159  17.413  15.957  0.0299  0.0610  0.2040
20205W        W36679   5.744   8.078   1.399 -0.3082 -0.2967 -0.1958
20206W        W36680   0.360   7.320  14.784  0.1051  0.0698 -0.2307
20207W        W36681   1.999   8.477   4.733 -0.0169  0.0964 -0.2045
20208W        W36682  13.238   5.806  12.477 -0.0146  0.2408 -0.0591
20209W        W36683   5.959  16.940   4.976  0.1372  0.0430  0.0460
20210W        W36684   6.813   2.707   1.170 -0.2289 -0.0729  0.0635
20211W        W36685  17.669   2.785   1.089 -0.1650 -0.1524 -0.1993
20212W        W36686  13.699   1.205   1.527  0.0700  0.2009 -0.1888
20213W        W36687   2.387   4.681   1.420 -0.0467 -0.1215 -0.0238
20214W        W36688   1.617   8.645   5.016 -0.2616 -0.1399 -0.3097
20215W        W36689   1.405   8.362  11.988 -0.2411  0.3917  0.0856
20216W        W36690   0.098  12.618  12.471  0.3755  0.0661 -0.2274
20217W        W36691  17.109  10.541   1.318  0.0199 -0.0916  0.0939
20218W        W36692   7.088  16.963   0.745 -0.0268 -0.0874 -0.1548
20219W        W36693  14.540   6.616   1.031 -0.0651 -0.1412  0.1189
20220W        W36694   7.864   2.289   5.013  0.0514  0.1983 -0.3145
20221W        W36695   5.124  12.456  14.199  0.2993  0.1830  0.1637
20222W        W36696  16.407   4.645  14.343 -0.0802 -0.0052 -0.0821
20223W        W36697  18.132   9.225   0.060 -0.0872 -0.3200 -0.1440
20224W        W36698   3.588   2.599   2.109 -0.1562 -0.2387 -0.4356
20225W        W36699  14.618   1.077   1.138  0.1451 -0.1527 -0.1199
20226W        W36700   4.786   8.808   0.345  0.3221 -0.0583 -0.2083
20227W        W36701   2.207   8.815   1.779  0.1237  0.3337  0.1841
20228W        W36702   4.979   8.346  14.398  0.1079 -0.0539 -0.0012
20229W        W36703   6.248  16.960   5.656  0.1666 -0.1433  0.5269
20230W        W36704   3.249   1.780  14.715  0.0099 -0.0545 -0.0641
20231W        W36705  10.178  16.717  12.089  0.0296 -0.1757  0.0181
20232W        W36706   2.785  17.432   2.270 -0.1120 -0.1206 -0.0937
20233W        W36707   5.742  11.286   5.004  0.0134 -0.1651  0.0302
20234W        W36708  12.608   9.431  11.854  0.0431  0.0311 -0.0832
20235W        W36709  10.279  12.145  15.245 -0.0530 -0.3394  0.3066
20236W        W36710  12.702   4.904  16.017 -0.1500  0.3185 -0.1432
20237W        W36711   8.480  12.401   2.490  0.1753  0.1989 -0.3111
20238W        W36712   0.549  17.530   5.520  0.2245 -0.0904 -0.0296
20239W        W36713   8.918   0.349  13.927  0.3580 -0.2666 -0.1187
20240W        W36714   5.792   1.411  13.607 -0.1783  0.0118  0.0195
20241W        W36715  14.252  17.922  11.721 -0.0195  0.2247 -0.2644
20242W        W36716  16.944   0.347  13.683 -0.0970  0.0796 -0.0168
20243W        W36717   7.771  14.722   0.024  0.0354  0.0773  0.0968
20244W        W36718   2.116  17.265   2.914 -0.0581  0.1049  0.5436
20245W        W36719  15.043   2.367   1.121 -0.1447 -0.1414 -0.2360
20246W        W36720  13.237   8.043  13.792 -0.2203 -0.0288  0.1468
20247W        W36721   2.044   6.064   2.245 -0.0249 -0.0262 -0.1264
20248W        W36722   1.149   5.012  14.496  0.0209  0.0614 -0.1207
20249W        W36723   0.216  18.097   2.934 -0.0562  0.1107 -0.5358
20250W        W36724   3.258  10.570   5.286  0.0348  0.0446 -0.2578
20251W        W36725  16.733  13.867  11.575 -0.1351  0.0445  0.0372
20252W        W36726   4.860   9.777   1.242  0.1802 -0.0148  0.1082
20253W        W36727   4.602  11.502   1.429  0.1663 -0.2622  0.1744
20254W        W36728  15.579   0.859   3.147 -0.0673  0.4456 -0.1862
20255W        W36729  16.512  13.174  12.325  0.0312 -0.0135  0.0087
20256W        W36730   5.530   8.391   6.003  0.1222 -0.1088 -0.4422
20257W        W36731   6.340  11.479  14.330  0.0441 -0.3131 -0.0615
20258W        W36732   8.335  12.881  16.336 -0.0102 -0.1717  0.1168
20259W        W36733   7.647   1.625  14.135 -0.0386  0.2134  0.0326
20260W        W36734   2.804   6.977   2.004 -0.1245 -0.1281 -0.0752
20261W        W36735   4.666   5.289  11.862 -0.0290  0.1114  0.0076
20262W        W36736   4.163  10.444  13.086 -0.1353  0.1160 -0.0487
20263W        W36737  17.723   6.172   1.387  0.0231 -0.2055 -0.0582
20264W        W36738   2.514  10.228   2.016  0.2000  0.1639 -0.1159
20265W        W36739   8.526   1.117  14.098  0.1011 -0.0493 -0.1003
20266W        W36740   1.143   2.229   2.657 -0.1624 -0.1786 -0.1824
20267W        W36741   8.110   6.748  13.209 -0.0099  0.1567 -0.2906
20268W        W36742  17.044   5.904  14.095  0.1100 -0.2605  0.0209
20269W        W36743   7.497   7.704  11.199  0.1576  0.1127 -0.1732
20270W        W36744  15.862   5.736  12.913  0.5150  0.0933  0.3651
20271W        W36745   2.969  12.954   5.488  0.0622  0.0963 -0.2105
20272W        W36746   6.934   8.189  15.868 -0.1311 -0.1422 -0.1265
20273W        W36747   7.544   0.790  15.668  0.1538  0.0970  0.0724
20274W        W36748   0.169   9.719   1.229  0.2696  0.1724 -0.0087
20275W        W36749  11.386   7.706  13.921 -0.0069  0.0690  0.1578
20276W        W36750   5.938  11.464   4.197  0.1463 -0.2763  0.1855
20277W        W36751   6.258   2.952   3.008  0.0801 -0.3160 -0.1370
20278W        W36752   0.348  17.716  15.616 -0.5186 -0.2753 -0.0369
20279W        W36753   7.913   1.650   0.641  0.0327  0.1104 -0.0967
20280W        W36754  13.163   1.371  12.024 -0.1431  0.0281 -0.1321
20281W        W36755  10.491   3.273  11.017 -0.0880  0.3476  0.1374
20282W        W36756   4.465   2.464  14.095  0.2704 -0.0277  0.0177
20283W        W36757  16.935  17.112  15.376  0.1579  0.0556  0.1450
20284W        W36758  13.630  15.516  14.201 -0.2100  0.0977 -0.2146
20285W        W36759   0.169   7.892   3.014  0.1767  0.1634 -0.0671
20286W        W36760   1.028   5.831   4.429 -0.0535 -0.0223 -0.0035
20287W        W36761  14.547   6.768  15.383  0.2532  0.0334  0.1932
20288W        W36762  12.827  13.622   4.360  0.0132 -0.0595  0.1269
20289W        W36763   7.153   6.346   1.028 -0.2787  0.1848  0.1018
20290W        W36764  12.241   8.782   2.612 -0.0161  0.0355 -0.2914
20291W        W36765  12.299  18.378   4.857  0.0751 -0.3388  0.0002
20292W        W36766  15.174   6.940   0.435  0.0750  0.1806 -0.2613
20293W        W36767  10.033   4.771   4.031 -0.1001  0.3662 -0.0182
20294W        W36768  17.465  11.924   0.212  0.0235  0.0480  0.0346
20295W        W36769   4.247  13.145   0.672  0.3678 -0.1432 -0.1268
20296W        W36770  18.078   5.382  12.669 -0.1804 -0.0683 -0.1189
20297W        W36771   7.527   0.106   2.119 -0.1345  0.0295 -0.1908
20298W        W36772   5.970   2.576   3.206 -0.4442 -0.1835  0.0971
20299W        W36773   8.821   9.540  14.204  0.1444  0.1419 -0.4320
20300W        W36774   4.955  16.148  13.248 -0.3955  0.1590 -0.0735
20301W        W36775   5.983   1.821  13.045  0.0972 -0.0573  0.3020
20302W        W36776   9.900  13.238   6.149 -0.0121  0.1638 -0.2376
20303W        W36777   2.739   9.026  11.974 -0.2570  0.2216  0.2391
20304W        W36778   8.739   4.271   3.871 -0.2350  0.2877  0.2397
20305W        W36779   3.163  11.560  16.338  0.2646 -0.2412  0.0349
20306W        W36780  12.558  13.726  11.266  0.0583  0.0343  0.2100
20307W        W36781  16.407   5.388  16.165  0.1113  0.3116  0.0204
20308W        W36782   1.222   3.432   3.391  0.2138 -0.1846  0.3403
20309W        W36783  11.900  17.198   4.223  0.1180  0.4406  0.0563
20310W        W36784  11.356  17.019  16.268  0.4889  0.0943  0.1022
20311W        W36785  11.014   5.479  10.858 -0.1198 -0.1898  0.1614
20312W        W36786   5.197   3.764  11.659  0.4316  0.0533 -0.1365
20313W        W36787   2.824  14.609   3.225  0.0814 -0.4661 -0.1188
20314W        W36788  12.841  17.879   2.923  0.2425 -0.1328 -0.2680
20315W        W36789   7.611  17.062   0.773 -0.0290 -0.1903  0.0637
20316W        W36790  12.182  11.308  13.914 -0.2460  0.2279  0.2235
20317W        W36791  16.758  17.884   4.970 -0.0886 -0.2887 -0.1160
20318W        W36792   9.337  13.768  11.709 -0.3920  0.2247  0.1462
20319W        W36793  10.009   5.946  15.536 -0.2832  0.0453  0.0589
20320W        W36794   4.809   5.329   4.503  0.1771 -0.0177 -0.0604
20321W        W36795   1.196   3.551  12.513  0.0527  0.1350 -0.1437
20322W        W36796  12.598   8.203  13.876 -0.1395 -0.2000  0.0952
20323W        W36797  14.113   4.887  13.629  0.1054  0.0103  0.1802
20324W        W36798   8.333  14.189   4.951 -0.0412 -0.1968 -0.2772
20325W        W36799  11.487   1.015   2.604  0.1427 -0.1954  0.1447
20326W        W36800   3.372   2.827   5.476 -0.0700 -0.1862  0.1206
20327W        W36801   6.739   5.338  13.624 -0.0864  0.2163 -0.1566
20328W        W36802  18.111   3.264  12.039  0.2446 -0.0913 -0.2626
20329W        W36803  13.929   7.959   5.498 -0.0035 -0.0098  0.1036
20330W        W36804  16.074   4.765  13.020  0.1330 -0.0798  0.1957
20331W        W36805  11.949   4.170   0.736  0.0308  0.2383  0.0511
20332W        W36806  15.282   3.292   5.658  0.1173  0.0546  0.0943
20333W        W36807   3.414  17.396   2.778 -0.1659  0.0302  0.1900
20334W        W36808   5.995   7.659   2.575 -0.0066 -0.3880 -0.0086
20335W        W36809   2.170   1.141  14.933 -0.1394  0.0990 -0.0132
20336W        W36810  12.370  13.366   5.114  0.2803  0.2464 -0.0525
20337W        W36811   4.711   0.286   4.768  0.1982  0.1512 -0.1032
20338W        W36812  14.790  16.490   4.412 -0.3018 -0.0643 -0.2406
20339W        W36813  11.449   2.991   3.811  0.2507 -0.1528  0.1150
20340W        W36814   5.864  15.514   3.676  0.1263 -0.0838 -0.3534
20341W        W36815   4.296  16.099  15.733 -0.3110  0.0252  0.0729
20342W        W36816   9.255  17.416  16.193  0.0732  0.3800  0.1649
20343W        W36817   1.293   3.450  13.518  0.2139 -0.0375  0.0206
20344W        W36818   0.586   1.089   2.558 -0.2781 -0.2737 -0.1178
20345W        W36819   4.971   2.578  14.033  0.1357  0.0494  0.4398
20346W        W36820   9.862   4.549  14.976  0.1376 -0.1433  0.0093
20347W        W36821  10.484   2.299   0.150 -0.2373  0.0548  0.0449
20348W        W36822   8.542  13.323   1.781 -0.0740  0.0299 -0.1801
20349W        W36823   2.066   7.504   0.547  0.4042 -0.2723  0.0772
20350W        W36824   6.935  14.515   3.939  0.0224  0.1661 -0.2162
20351W        W36825   4.640   9.927   4.413 -0.0409 -0.0289  0.3666
20352W        W36826   6.917   8.127   0.443  0.0795  0.2743 -0.0273
20353W        W36827  12.942   3.465   2.256 -0.0281  0.2549 -0.0472
20354W        W36828  10.510   7.048  12.136 -0.1060 -0.0694 -0.0681
20355W        W36829  17.977   7.094   3.969 -0.0088  0.1537 -0.1256
20356W        W36830   9.323  15.909   2.587  0.1225  0.0823  0.0419
20357W        W36831  17.683  16.717  11.950 -0.0632  0.1293  0.2886
20358W        W36832  16.804   3.742   5.637  0.0030 -0.0085  0.2633
20359W        W36833   6.453   9.715  12.408 -0.0578  0.2344 -0.0864
20360W        W36834  13.290  14.653  12.752 -0.1691  0.0248 -0.0345
20361W        W36835  10.014   2.714  12.031  0.4303  0.0339  0.2714
20362W        W36836   8.420  12.687   2.877 -0.0616 -0.2478 -0.0205
20363W        W36837  16.791  11.064  13.891 -0.2015 -0.0443 -0.0395
20364W        W36838  14.944  13.839   4.987  0.2837  0.1483  0.1511
20365W        W36839  15.469   6.585  10.885 -0.1274  0.0249  0.0898
20366W        W36840   3.590  10.033   4.169  0.0105  0.0576  0.2857
20367W        W36841  16.387  10.558   3.109 -0.1847 -0.1650 -0.3211
20368W        W36842   6.513  13.857   0.102 -0.0987  0.0461 -0.2435
20369W        W36843  18.184   8.056  13.737 -0.1074 -0.0555  0.0664
20370W        W36844   4.444   3.565  16.115 -0.0055 -0.1932 -0.2787
20371W        W36845   0.000  15.765  15.771 -0.0005 -0.1163  0.3102
20372W        W36846   3.304   1.541   4.786  0.1430 -0.0812 -0.5371
20373W        W36847  13.235   4.481   5.641  0.0638 -0.3006 -0.1982
20374W        W36848   6.345  11.599   3.522 -0.1080 -0.2383 -0.3286
20375W        W36849  13.677  13.803  14.859 -0.0399  0.0279  0.1378
20376W        W36850  16.831   8.363  10.639  0.0403  0.1432  0.5904
20377W        W36851  13.493  14.540   0.290 -0.0428 -0.2856  0.2707
20378W        W36852  14.899   7.447   0.452  0.1525 -0.1273 -0.2956
20379W        W36853   4.221   5.947  11.009 -0.1456 -0.1242  0.0600
20380W        W36854  12.934   5.652  15.136  0.1978 -0.1214  0.1015
20381W        W36855  17.751   4.704   0.834  0.0584 -0.2142  0.1384
20382W        W36856   1.535  10.299  10.606 -0.0805 -0.0609 -0.2127
20383W        W36857   8.594   3.057  13.028  0.0194 -0.2087 -0.0421
20384W        W36858  11.881   4.939   3.248 -0.2695  0.2171  0.1397
20385W        W36859   5.846   5.840  14.437 -0.2059  0.1051 -0.0201
20386W        W36860   3.487  13.079  12.325  0.1833  0.2980 -0.0648
20387W        W36861  18.327   3.888   4.694  0.1473  0.1408 -0.3160
20388W        W36862   5.793  12.369  16.161 -0.0660  0.2259 -0.2010
20389W        W36863  14.020  14.139  15.161  0.1647 -0.2466 -0.1110
20390W        W36864  12.000  15.720   3.014 -0.0180  0.2103  0.0917
20391W        W36865  17.176   5.345   0.167  0.1689 -0.3084 -0.2965
20392W        W36866   9.191   8.971   0.561  0.1115 -0.0841 -0.2471
20393W        W36867  16.939   6.707  11.197 -0.2429  0.0124  0.2342
20394W        W36868   2.760  13.405   2.053  0.1368 -0.3531  0.0351
20395W        W36869   4.982  13.763   2.894 -0.0833  0.0159 -0.3705
20396W        W36870  15.931   5.331   4.411 -0.2474 -0.1105 -0.0567
20397W        W36871  17.019   3.338  15.034  0.2200 -0.1636 -0.0239
20398W        W36872  17.218   3.503  16.219 -0.0007 -0.0917  0.1709
20399W        W36873   3.723   5.630   2.115  0.0872 -0.0350 -0.2791
20400W        W36874  14.199   1.963   4.608  0.0627  0.0680 -0.0388
20401W        W36875   0.383   4.189   1.563 -0.1122  0.3345 -0.1756
20402W        W36876  14.476  14.002   1.826  0.1167 -0.1005 -0.2745
20403W        W36877   8.845   1.251   1.827  0.0005 -0.2113  0.2649
20404W        W36878  12.062  14.309   3.163  0.0695 -0.2312  0.5217
20405W        W36879   0.943  16.799   4.816 -0.2469 -0.0232 -0.0174
20406W        W36880   2.201   8.535  12.457 -0.0102 -0.0513  0.1116
20407W        W36881  14.442   8.571  11.561  0.0835  0.1774 -0.0458
20408W        W36882  11.708   6.724  11.796  0.1967  0.1370 -0.0709
20409W        W36883   1.962  15.634   2.878  0.1819  0.3404 -0.1511
20410W        W36884   9.012  14.152   2.695  0.0116  0.2881 -0.0097
20411W        W36885  11.674   5.361   3.458  0.2309 -0.2274 -0.3362
20412W        W36886  12.258  15.392   5.396 -0.1249 -0.0042 -0.1595
20413W        W36887   0.779  10.141   2.317 -0.4978 -0.4288  0.0765
20414W        W36888   8.067  14.982   5.662  0.1290  0.3094  0.0688
20415W        W36889   2.908   4.928   2.180 -0.2764  0.2134  0.1831
20416W        W36890  15.526  12.485  13.542  0.0155  0.0617  0.3436
20417W        W36891   7.181   6.187  14.050 -0.2256 -0.2663 -0.0529
20418W        W36892  10.796  11.797   0.059  0.1875  0.2706 -0.1739
20419W        W36893   6.758   9.541   5.256 -0.1057 -0.0897  0.0745
20420W        W36894   9.362  15.212  11.604  0.1975  0.0061 -0.0922
20421W        W36895  16.557  10.181  14.137 -0.1091  0.1617 -0.2856
20422W        W36896   1.915   5.911   6.073  0.1612 -0.0479 -0.0641
20423W        W36897   1.120  16.561   1.167 -0.0649 -0.2157  0.0003
20424W        W36898   6.317   9.277   5.658 -0.3748  0.1785  0.0713
20425W        W36899   5.108  11.307   5.069  0.0018  0.1423  0.3123
20426W        W36900   9.385   0.528   0.900 -0.0087 -0.0386  0.3000
20427W        W36901  12.969   3.180  14.052 -0.0908 -0.1060 -0.0089
20428W        W36902   2.262   2.361  16.127 -0.0932  0.1026 -0.2725
20429W        W36903  10.049   8.457   2.338  0.1290  0.1417 -0.2545
20430W        W36904  15.611  12.463  14.306 -0.1501 -0.2284 -0.4218
20431W        W36905   7.987   9.008  12.113 -0.1137 -0.2182  0.0215
20432W        W36906   8.005   7.438  15.757  0.2132  0.0307  0.3991
20433W        W36907  12.112  16.078   3.775  0.0310 -0.0448 -0.1854
20434W        W36908  18.242  17.685  12.087  0.0377 -0.0945  0.2290
20435W        W36909   4.921  16.677   4.283 -0.0401 -0.2497 -0.0703
20436W        W36910   1.150   8.597  14.289 -0.1870 -0.1427 -0.1110
20437W        W36911  13.969  13.104   2.095 -0.3109  0.3172  0.0280
20438W        W36912   8.364  10.238  14.585  0.1696 -0.0603 -0.1340
20439W        W36913  11.727   8.525   2.647 -0.0266  0.1600  0.3020
20440W        W36914   9.564   0.508   3.647 -0.1923  0.2298 -0.0877
20441W        W36915   3.804  11.367   5.171 -0.1399  0.3614  0.4526
20442W        W36916  10.708   6.325   0.323 -0.1221  0.1762 -0.0652
20443W        W36917   0.947   2.998   4.516 -0.0043 -0.0758  0.2703
20444W        W36918   8.095   3.295   2.991 -0.0468  0.1762 -0.0440
20445W        W36919   6.961   7.356   2.535  0.0927 -0.2169 -0.1822
20446W        W36920   5.314  16.008  12.845  0.0908  0.4843  0.0068
20447W        W36921   8.350  13.124   2.619 -0.4249 -0.0451  0.2578
20448W        W36922  17.579   6.601   1.034  0.2233 -0.0324  0.1121
20449W        W36923  11.726  10.748   3.306 -0.4153  0.1519  0.1233
20450W        W36924  15.870   4.689  14.322  0.0855 -0.0517  0.0638
20451W        W36925  10.197  10.726  11.834 -0.1726  0.1810 -0.0678
20452W        W36926   6.004   8.194   0.900  0.0821 -0.0831 -0.1726
20453W        W36927  18.061   8.073   3.036  0.3978 -0.2924  0.0572
20454W        W36928  11.956  15.718  15.207  0.2267  0.3872  0.4865
20455W        W36929  16.550   9.412  12.645 -0.0546 -0.1537  0.0560
20456W        W36930  17.886   8.253  10.989  0.0021  0.2152  0.3291
20457W        W36931  16.432  12.204  14.395 -0.0924  0.3925 -0.2764
20458W        W36932   0.298   1.732   4.790  0.0728  0.1538  0.1376
20459W        W36933   4.285  14.456   3.005 -0.1179  0.1306  0.0681
20460W        W36934   5.741   0.934   4.441 -0.0002 -0.0400 -0.1002
20461W        W36935   5.851  12.648  13.232 -0.1323 -0.0952 -0.3207
20462W        W36936   9.327   8.050  14.443  0.0167  0.0404  0.0628
20463W        W36937  14.306   7.921   1.538 -0.1088  0.1524 -0.0178
20464W        W36938   4.295   4.886   0.568 -0.0845  0.1274  0.1203
20465W        W36939   3.642   7.259   0.175 -0.0301  0.5743  0.2372
20466W        W36940   7.770   5.196   3.218  0.1500 -0.4531  0.2778
20467W        W36941  10.587  11.341  13.609 -0.1521  0.0444 -0.0681
20468W        W36942   3.772  12.029  11.869 -0.2248  0.0588  0.0693
20469W        W36943  11.339  11.364  11.766  0.0838  0.2778 -0.0961
20470W        W36944   0.451   4.024  12.476 -0.1329 -0.1962 -0.1959
20471W        W36945  10.133   2.177  15.780  0.0718 -0.3106  0.1753
20472W        W36946   2.219  11.478   2.287 -0.0375 -0.0918  0.2054
20473W        W36947  11.135   8.224   1.106 -0.0117 -0.1085 -0.1085
20474W        W36948  14.202  15.589  15.221 -0.0035  0.0145  0.2683
20475W        W36949  11.526  15.026  12.116 -0.0590  0.2764 -0.0096
20476W        W36950   6.747  15.473  14.106 -0.0721  0.0334  0.0230
20477W        W36951  17.615  17.890  13.957 -0.0878  0.1825  0.1589
20478W        W36952   8.644   7.854  16.092  0.1500  0.1318 -0.0307
20479W        W36953   8.638  14.523   5.172 -0.1465 -0.2391 -0.2543
20480W        W36954   3.679  12.102  14.341 -0.1306 -0.0208  0.1558
20481W        W36955   3.094   7.769   3.549  0.0852 -0.0196 -0.0085
20482W        W36956  15.357  14.828   1.340 -0.0345 -0.1723 -0.1621
20483W        W36957   8.778  12.357  15.430  0.2412  0.1787 -0.0878
20484W        W36958   0.333  16.271  12.739  0.0030  0.1314 -0.0622
20485W        W36959   5.761   2.650   2.708  0.0078 -0.0433 -0.1965
20486W        W36960   6.119  12.727   2.303 -0.2997 -0.0084 -0.0007
20487W        W36961  17.068  13.521  15.806  0.0028 -0.0268 -0.0830
20488W        W36962  10.383  12.570   0.561 -0.2579  0.0828 -0.0745
20489W        W36963  13.502   8.013  11.946  0.2442 -0.0859  0.3767
20490W        W36964   2.495   3.196   2.223 -0.4009  0.2415 -0.3816
20491W        W36965   4.089   5.607   5.153  0.0721  0.1970  0.0541
20492W        W36966  14.493   2.166   0.523 -0.0659  0.0802  0.1529
20493W        W36967   5.453   5.918  11.987 -0.1880 -0.0478 -0.1795
20494W        W36968  14.772  16.434   4.999  0.0498 -0.0197  0.0090
20495W        W36969  15.477   1.469   4.694  0.0490  0.3865 -0.0345
20496W        W36970  17.838   0.935  15.516  0.0882  0.3499  0.1797
20497W        W36971  15.783   2.806   2.245  0.0708 -0.0403 -0.1513
20498W        W36972  12.066  10.919   5.028 -0.0836  0.7720 -0.1993
20499W        W36973  16.697   0.731   5.907  0.0869  0.0352  0.1555
20500W        W36974   9.785   5.600   3.540  0.0740  0.1860  0.1191
20501W        W36975   1.972   7.618   1.339 -0.2389 -0.2144  0.0901
20502W        W36976   0.532   1.633   0.578  0.1131  0.3813  0.0710
20503W        W36977   7.465   0.097   1.599 -0.1835  0.2383 -0.3117
20504W        W36978   3.452   2.221  14.533  0.0352 -0.2505 -0.2449
20505W        W36979   6.006   2.701   1.760 -0.1294  0.0173  0.0449
20506W        W36980   9.565   5.063   1.956 -0.2371  0.0471  0.1091
20507W        W36981  15.504  16.031  14.248  0.1182  0.0480  0.2349
20508W        W36982  17.924   2.577   2.247  0.0583 -0.0575 -0.1042
20509W        W36983   9.116  16.035  14.524  0.0752  0.2231 -0.1794
20510W        W36984  11.040   5.725  16.000  0.1681 -0.1491 -0.0729
20511W        W36985  18.175   6.707   4.314 -0.0206 -0.2997 -0.0965
20512W        W36986   6.419  12.013  12.733  0.1609  0.0992 -0.1764
20513W        W36987   4.883   7.252   2.243  0.2334  0.0546 -0.2266
20514W        W36988   8.435  16.484  13.372 -0.2544  0.0026  0.1059
20515W        W36989  13.270   3.361   1.853 -0.0451  0.1559 -0.0537
20516W        W36990  10.507   4.705   4.832 -0.0160  0.0133 -0.0879
20517W        W36991  12.363   4.882   4.115  0.0811 -0.2320  0.0834
20518W        W36992   9.535   9.937   2.301 -0.1706  0.0988  0.4777
20519W        W36993   4.999  11.930   1.476  0.0664  0.2973  0.0713
20520W        W36994   6.433   8.449  14.055  0.0314 -0.3887 -0.2286
20521W        W36995   1.445  17.189   2.229  0.2701 -0.0730 -0.0574
20522W        W36996  11.259  14.157   4.405 -0.3070  0.2484  0.1498
20523W        W36997   9.910  12.034   3.110 -0.0189  0.0512  0.0295
20524W        W36998  17.586   0.061  11.661  0.2626  0.0787  0.3395
20525W        W36999   4.220  15.345  14.316  0.0534 -0.0464  0.0127
20526W        W37000  16.197   7.525   1.604 -0.0253 -0.0123  0.0136
20527W        W37001  18.126  11.963   1.448 -0.3684 -0.1347 -0.2725
20528W        W37002   0.524   7.439  16.077  0.5524  0.0095  0.1977
20529W        W37003   7.914  10.090   5.938  0.1288  0.0641 -0.0486
20530W        W37004   5.730   1.867   4.551 -0.0544 -0.2051  0.0306
20531W        W37005   4.537   7.983   0.425  0.0125  0.1741 -0.1698
20532W        W37006  17.272  12.598  15.933 -0.0193 -0.0860 -0.2010
20533W        W37007  10.688   5.325  12.345 -0.0836  0.1085  0.0891
20534W        W37008   1.535  10.142  15.898 -0.0039  0.1827 -0.1815
20535W        W37009  17.241  17.087   4.297 -0.0422 -0.0478 -0.0892
20536W        W37010   2.202   6.010   5.010 -0.1674  0.2825  0.2269
20537W        W37011   9.110  12.692   0.220 -0.0543  0.0848  0.2922
20538W        W37012   1.155   2.205  16.164 -0.0059 -0.1639 -0.0757
20539W        W37013  12.312   3.491  14.306 -0.1343 -0.0195  0.0491
20540W        W37014   2.636   1.518  14.097 -0.0878 -0.1781 -0.0338
20541W        W37015  17.996  10.730  15.684  0.3434 -0.1343 -0.0465
20542W        W37016   8.828  10.676  15.649 -0.0506 -0.2977  0.0889
20543W        W37017   7.779  15.196   0.356 -0.2816 -0.2074  0.0281
20544W        W37018   6.712  13.167  15.040 -0.0258  0.0324 -0.1444
20545W        W37019  13.866  17.918  13.490 -0.0524  0.2156 -0.1738
20546W        W37020  10.823   8.823   3.903  0.0419  0.2154  0.0327
20547W        W37021  14.160  10.792  16.298 -0.0522 -0.1481 -0.1835
20548W        W37022  18.225  17.829  12.614 -0.0290  0.2174 -0.4346
20549W        W37023   7.488   3.536   5.402 -0.2699 -0.1928  0.1758
20550W        W37024   8.522  12.654   3.957 -0.0223 -0.1703  0.3156
20551W        W37025   5.160  15.554   2.874 -0.2312 -0.2971  0.2591
20552W        W37026   4.254   8.834   0.855 -0.0034 -0.0685  0.2512
20553W        W37027   7.051   7.304   1.181  0.1283  0.0580  0.0053
20554W        W37028  10.183  14.176  11.471 -0.2827  0.0811 -0.1048
20555W        W37029  13.530   5.312   0.723  0.1411  0.1235 -0.1002
20556W        W37030   9.556  15.469  12.521 -0.4136 -0.3257  0.5979
20557W        W37031  14.006   5.696  10.753  0.0067  0.1482 -0.0099
20558W        W37032   7.040   6.964   4.603  0.0100 -0.0153  0.0483
20559W        W37033   8.035   2.412   1.895 -0.2232 -0.2133 -0.1443
20560W        W37034  12.434  15.023  15.363 -0.1791 -0.0463  0.2374
20561W        W37035  16.532   8.843  11.656  0.3203 -0.0993 -0.0538
20562W        W37036   7.183  13.518   1.341  0.2063  0.2351 -0.1917
20563W        W37037   9.728  13.796   4.929  0.0409 -0.2629  0.0043
20564W        W37038   2.048   7.385  12.383 -0.0933  0.2507  0.0972
20565W        W37039  17.211  13.474   2.790 -0.3528  0.0650 -0.0641
20566W        W37040  12.152  14.891   3.983 -0.2410  0.4523  0.1383
20567W        W37041  11.277   5.186  12.253  0.1981  0.1278 -0.0540
20568W        W37042   4.915   5.813   4.569  0.1374 -0.1177  0.0667
20569W        W37043  13.277   3.580   3.211 -0.2558  0.2472  0.3366
20570W        W37044  13.800   8.664  10.941  0.3263 -0.1433 -0.0719
20571W        W37045   6.990   4.890  15.254  0.1689 -0.1002  0.0135
20572W        W37046   4.828   4.916  15.563  0.0904 -0.2747 -0.3650
20573W        W37047  16.179   5.897  10.370 -0.1814 -0.2090 -0.1690
20574W        W37048   5.164  17.232   0.752 -0.2422  0.0011 -0.1694
20575W        W37049   0.277   8.820   0.655 -0.0473 -0.0593 -0.1705
20576W        W37050  15.048  10.182   4.215  0.0440  0.1962 -0.1408
20577W        W37051   1.365  10.630  12.642 -0.0928 -0.1150  0.0367
20578W        W37052   1.744  12.941   2.441 -0.3382 -0.0339 -0.3344
20579W        W37053   3.456   6.883   3.593  0.0958  0.1064  0.1775
20580W        W37054   7.206   9.183   5.881 -0.1133  0.0963  0.1725
20581W        W37055  10.808  11.571   4.000 -0.0429  0.1921 -0.2505
20582W        W37056   9.572   8.630   4.437  0.0087  0.2008  0.1263
20583W        W37057  10.063  15.120  11.689  0.2485  0.0815  0.0825
20584W        W37058  17.478   5.979  11.283  0.0005 -0.0011  0.0253
20585W        W37059  17.587   4.970   0.270 -0.3533  0.0837  0.0194
20586W        W37060  17.653   5.449  14.747  0.1322  0.0927  0.3103
20587W        W37061  11.713   7.780  12.488 -0.0088  0.1831 -0.0510
20588W        W37062  10.918   1.073   5.367  0.2831  0.2277 -0.3717
20589W        W37063   4.064  14.243  15.812 -0.4064 -0.2322 -0.0786
20590W        W37064   4.684  10.239   2.541  0.0476 -0.0094  0.1153
20591W        W37065   4.317   8.100  11.469  0.0379 -0.1969  0.0299
20592W        W37066  10.181   1.739   2.674 -0.3823  0.0563  0.0201
20593W        W37067  12.381  15.941  15.444  0.1882  0.0038 -0.1781
20594W        W37068  12.898   5.776   1.910  0.1604  0.0115  0.0620
20595W        W37069  10.351  11.873  11.018  0.3772  0.0112  0.0327
20596W        W37070   4.402  16.032  16.185  0.0737  0.0292 -0.3886
20597W        W37071   0.039  12.313   3.156 -0.3254 -0.2726  0.0196
20598W        W37072  12.100  18.222   3.247 -0.2270 -0.0554 -0.0378
20599W        W37073   4.877  17.781  14.918  0.2530  0.1038 -0.2696
20600W        W37074  17.269  13.624  14.410  0.0318 -0.2874 -0.0530
20601W        W37075   8.451  10.750   3.668 -0.1992  0.3140  0.4471
20602W        W37076   5.516   9.907   0.123 -0.1054  0.0710  0.3125
20603W        W37077   6.215  16.420  11.573 -0.0904 -0.2764 -0.0780
20604W        W37078   3.473   6.961  11.144  0.2238  0.1966 -0.0578
20605W        W37079  12.824   1.294   2.608  0.2097 -0.0785  0.1326
20606W        W37080  13.770   0.205  12.574  0.0606  0.1107  0.0088
20607W        W37081  13.618  11.911  11.314 -0.1675 -0.0886 -0.2961
20608W        W37082  13.366  16.467   4.019  0.2930  0.2039  0.0723
20609W        W37083  16.729  15.547  11.857 -0.0127  0.0227 -0.0283
20610W        W37084   6.999   7.623  13.335  0.2557  0.0224 -0.4888
20611W        W37085   3.737   9.630   4.466  0.0267  0.0282 -0.1242
20612W        W37086   9.771  13.314   2.600  0.2372 -0.1282 -0.0299
20613W        W37087  15.066   0.814   3.077 -0.4080 -0.1392 -0.0249
20614W        W37088   0.196   0.236  14.089  0.1068  0.0725  0.2119
20615W        W37089   5.534   3.369  15.883  0.0405  0.2172  0.0144
20616W        W37090  12.485  10.014  12.925 -0.1013 -0.3313 -0.0684
20617W        W37091  17.807   0.340  13.342  0.0385  0.0935 -0.2587
20618W        W37092   1.485   2.918   2.176  0.0309 -0.1789 -0.1290
20619W        W37093   5.007   2.592  11.767 -0.0545 -0.0974 -0.1633
20620W        W37094  11.868   4.599  15.045 -0.0774  0.0552 -0.3195
20621W        W37095  17.304   8.701   4.534  0.1552  0.1385  0.1008
20622W        W37096   5.619  13.912   3.595  0.3218  0.3966 -0.1562
20623W        W37097   6.121  10.210  14.921 -0.0647 -0.2064 -0.5220
20624W        W37098   3.619  12.414  13.159  0.0610 -0.0043 -0.0798
20625W        W37099  16.331   0.103   1.961  0.1202  0.1343  0.2548
20626W        W37100   6.142   7.151  11.530  0.1672 -0.0162  0.1345
20627W        W37101  17.712   6.323  15.595 -0.0177  0.1578  0.0614
20628W        W37102   7.307  11.732   1.278  0.2372  0.1035 -0.0082
20629W        W37103   1.052   7.784   3.914  0.0767  0.0026  0.1156
20630W        W37104  10.824   5.832   1.949  0.1228  0.2708  0.3539
20631W        W37105  12.478   5.567   1.589  0.0807 -0.0544  0.1384
20632W        W37106   7.685  17.362   0.111  0.3198  0.0347 -0.2769
20633W        W37107  13.210  13.051   3.062 -0.0706 -0.1615  0.1824
20634W        W37108   8.528   7.445  10.418  0.1278 -0.0260 -0.1302
20635W        W37109  14.256   4.149  15.700 -0.0928 -0.0229  0.3206
20636W        W37110   9.706   6.306  15.914  0.3469  0.3257  0.0265
20637W        W37111   7.759   2.837  15.088  0.0790 -0.2603  0.0071
20638W        W37112  10.648   3.773  13.428  0.3226  0.2244  0.1077
20639W        W37113  12.129   6.668   2.088  0.4674  0.1994 -0.1484
20640W        W37114  18.053   2.492  11.522 -0.0757 -0.0009 -0.3236
20641W        W37115  16.630  14.020  14.025  0.1945 -0.0084 -0.3573
20642W        W37116  17.535   5.376  12.452 -0.1052 -0.3673 -0.1038
20643W        W37117   6.605   6.795  12.025 -0.2084  0.0843  0.1999
20644W        W37118  14.095  18.346   1.790 -0.2279  0.1384  0.1238
20645W        W37119   1.495   7.037  13.947 -0.0468  0.3134 -0.2963
20646W        W37120   2.726   4.665  14.798  0.3001 -0.4356  0.2752
20647W        W37121   4.224  14.029  11.902  0.0119 -0.1588  0.3478
20648W        W37122  11.691  11.942  13.679 -0.1435 -0.2097  0.1034
20649W        W37123  12.708  14.562  11.750  0.1188  0.0470  0.0427
20650W        W37124   3.498   1.282   5.874 -0.1006 -0.3167 -0.0798
20651W        W37125   2.638  10.319   1.479  0.0875  0.1887  0.1537
20652W        W37126   7.540  11.310  12.025  0.0675 -0.0868 -0.2394
20653W        W37127   9.947   7.438  14.928  0.1399 -0.0180 -0.1632
20654W        W37128  12.482   0.032  15.608  0.1466  0.1328  0.1305
20655W        W37129   6.522   7.328  11.287  0.4312 -0.0426  0.0930
20656W        W37130   6.349   7.132  12.957  0.1982 -0.3878  0.0283
20657W        W37131   9.511  17.146   0.938 -0.1756  0.1765 -0.1995
20658W        W37132   7.570  12.293  13.423  0.3268 -0.0046 -0.2908
20659W        W37133   1.232   9.830   2.156 -0.0087  0.3730  0.2729
20660W        W37134  11.699  11.859   1.791  0.1922  0.0147 -0.0205
20661W        W37135   1.107   6.713  16.066  0.0595  0.0948  0.0120
20662W        W37136   8.397   8.296  16.273  0.0216  0.1082  0.0846
20663W        W37137  12.663   2.908   0.773 -0.1044  0.1711  0.0973
20664W        W37138   0.813  11.825   5.481 -0.0849 -0.0374  0.1288
20665W        W37139   2.488   7.682  12.261  0.1419  0.0957 -0.1528
20666W        W37140  15.793   6.694  14.020 -0.2141 -0.0182  0.2387
20667W        W37141   3.258   0.510   4.089 -0.0843  0.1410  0.0912
20668W        W37142   3.568   9.398   1.149  0.0718 -0.3765  0.0388
20669W        W37143   8.866   9.097   5.160 -0.2007  0.0315  0.0357
20670W        W37144  12.271   6.871   3.540 -0.2948  0.1753 -0.2940
20671W        W37145  15.772  13.696  14.403 -0.5125 -0.1392  0.0829
20672W        W37146   7.730   3.641   0.606 -0.0951  0.0631  0.4183
20673W        W37147   8.008  14.467  12.757 -0.0653  0.3211  0.0229
20674W        W37148   7.858   5.486  11.519 -0.0677 -0.1864  0.0758
20675W        W37149  10.924  11.304  11.246 -0.0243 -0.1857 -0.2189
20676W        W37150   8.355  15.842   3.112  0.1241 -0.2333 -0.1018
20677W        W37151  12.566   0.282  15.141 -0.2710 -0.1442 -0.1711
20678W        W37152   8.640   2.646  13.311 -0.2476 -0.0656  0.1319
20679W        W37153   5.746  10.168  15.412 -0.1656 -0.2927  0.3605
20680W        W37154   4.150  14.230   4.794  0.0146  0.0056  0.1503
20681W        W37155   5.281   7.059   3.860  0.1925 -0.1195  0.0901
20682W        W37156  13.967   4.077   3.239 -0.1947 -0.0349 -0.2008
20683W        W37157   5.266  17.112   5.553  0.3608 -0.2328 -0.0025
20684W        W37158  12.634  12.597  14.076  0.2346  0.0318  0.4217
20685W        W37159   9.213   7.516  14.287  0.2683  0.0389  0.0110
20686W        W37160   7.718   0.133   5.875  0.1273 -0.0278 -0.2655
20687W        W37161   1.506   7.591   3.789 -0.1107 -0.2871 -0.3947
20688W        W37162  14.319  17.941   3.257  0.2379 -0.1957  0.1006
20689W        W37163  12.608  17.269  14.217 -0.1647  0.0831 -0.0638
20690W        W37164  17.773  12.658  14.139 -0.1811 -0.2761 -0.1344
20691W        W37165  15.276  12.558  13.077 -0.1520 -0.1129 -0.0692
20692W        W37166   9.542   7.693   2.348  0.2526  0.4539  0.1570
20693W        W37167  15.775   8.568  12.226  0.2283  0.3854  0.3460
20694W        W37168  11.160   8.554   1.511  0.1857 -0.2560 -0.2679
20695W        W37169   2.713  12.887   0.576  0.1962  0.1203 -0.2261
20696W        W37170  11.631   4.073  13.877 -0.1200 -0.0658  0.1256
20697W        W37171   7.614  17.357   3.104 -0.2062  0.1399 -0.0684
20698W        W37172   8.657   1.805   2.934  0.0619  0.1717 -0.0596
20699W        W37173   7.621   1.873   0.986  0.0012  0.3021 -0.1656
20700W        W37174  15.715  15.677  15.979  0.0472 -0.1284  0.0344
20701W        W37175   4.649  10.562  13.921 -0.3962  0.0146  0.1376
20702W        W37176   6.498   3.620  15.298 -0.2946 -0.0007 -0.1137
20703W        W37177   1.473   1.993  12.635  0.1351  0.1346 -0.0918
20704W        W37178   8.008   5.682  14.994 -0.0486 -0.4683 -0.2047
20705W        W37179  16.039  13.317  14.059 -0.0783 -0.0152 -0.1156
20706W        W37180   4.346   1.368   4.895  0.2262  0.1403  0.3074
20707W        W37181  11.265  18.165   2.207  0.1277  0.1170  0.1751
20708W        W37182   8.381   8.972   5.153 -0.0873  0.4483  0.2952
20709W        W37183  15.610   0.977   0.908  0.0349 -0.1909 -0.1991
20710W        W37184   0.067  12.315  13.338  0.0382 -0.0649 -0.0411
20711W        W37185   9.181   7.550  11.909  0.0333  0.0015  0.0026
20712W        W37186   5.894   2.545  15.848 -0.0556 -0.1069 -0.3189
20713W        W37187   5.908   4.503  14.235 -0.0577 -0.1900 -0.0023
20714W        W37188   6.818   1.945   6.307 -0.2527  0.1116  0.3979
20715W        W37189   5.923   0.156  12.653  0.0144  0.0676  0.2013
20716W        W37190  17.073  18.369  14.719 -0.2587 -0.0179 -0.2861
20717W        W37191   7.960   9.932   4.946  0.1510  0.3080 -0.2138
20718W        W37192   3.019   5.349   4.091 -0.0223 -0.0552  0.1679
20719W        W37193  14.365  15.030  16.232 -0.2047  0.4048 -0.0956
20720W        W37194   7.061   7.741   0.900 -0.0181 -0.2052 -0.0915
20721W        W37195  17.477  12.017  15.140 -0.1516  0.1697  0.1179
20722W        W37196   0.833   6.419  13.440  0.2121  0.0951  0.2459
20723W        W37197  13.108  16.023  14.684 -0.0772  0.0961 -0.3029
20724W        W37198   9.073   2.510   2.712  0.3598  0.2172  0.1518
20725W        W37199  13.884   1.805  11.758 -0.3271  0.0000  0.1842
20726W        W37200   7.759  17.195  12.756 -0.0403 -0.0051 -0.0765
20727W        W37201   9.882  11.737  15.861 -0.0270  0.2056  0.1795
20728W        W37202  13.302  10.215   2.558 -0.2068 -0.1741  0.1077
20729W        W37203   8.863   2.670  15.776 -0.1826  0.1818  0.1605
20730W        W37204  12.593   2.532  11.979  0.1686  0.0708 -0.1449
20731W        W37205  10.904   0.810  13.972 -0.1570 -0.2943 -0.3896
20732W        W37206  17.153   5.884   1.379 -0.1216 -0.0630  0.4475
20733W        W37207  18.276   3.791  13.362  0.0882 -0.1799 -0.3993
20734W        W37208   3.394   6.726   0.746  0.1427 -0.0448 -0.0706
20735W        W37209  13.156  15.466  12.086 -0.0434  0.0873 -0.1197
20736W        W37210  15.809  17.098   1.744 -0.3382  0.1937 -0.1000
20737W        W37211   6.386   1.021  12.394  0.2878 -0.2594 -0.1566
20738W        W37212   1.617  14.789   3.149  0.2323  0.0910 -0.0515
20739W        W37213  17.438  16.654   2.828  0.0383 -0.0010 -0.1220
20740W        W37214  17.020  14.503   2.065 -0.3310 -0.0630 -0.0372
20741W        W37215   3.559   6.833  13.692  0.1290  0.2944 -0.1895
20742W        W37216   6.127   6.613   5.007  0.1322 -0.2664  0.0126
20743W        W37217  14.973   7.816  14.015 -0.2922 -0.1180  0.1216
20744W        W37218   0.712  10.270  15.479  0.1764 -0.0759 -0.0265
20745W        W37219   5.597   4.793  12.995 -0.1683 -0.0148  0.1250
20746W        W37220  12.301   5.425  12.107  0.1205 -0.3314  0.3192
20747W        W37221  12.288   2.401  13.442  0.5642 -0.2282  0.1189
20748W        W37222   1.728   7.222  11.784 -0.0312  0.1994  0.3518
20749W        W37223  17.754   9.221   5.061  0.1036  0.1264 -0.1773
20750W        W37224   7.759   9.086   2.793  0.3094 -0.0006  0.0667
20751W        W37225  11.524   8.026   4.532  0.1642  0.1583  0.0441
20752W        W37226   4.807  11.031  12.097  0.2426  0.1430 -0.0358
20753W        W37227   1.637   6.884   1.178 -0.1148  0.0544  0.2408
20754W        W37228   4.842   1.475  14.005 -0.2980  0.0785 -0.0083
20755W        W37229   1.562  18.216  11.865 -0.0759  0.2087 -0.1130
20756W        W37230  12.091   6.625   3.048 -0.1010 -0.0540  0.0012
20757W        W37231  12.701   7.358   0.251  0.1744  0.1380  0.0830
20758W        W37232   6.752  15.009  11.743 -0.2533  0.2635 -0.0935
20759W        W37233   1.212   1.192   1.389  0.0963 -0.2019 -0.3185
20760W        W37234  11.115   0.282  14.780 -0.1823 -0.2649  0.1871
20761W        W37235  17.707   7.235  15.217  0.1702  0.3396  0.1125
20762W        W37236  17.333  14.197  12.715  0.0440 -0.0507 -0.0171
20763W        W37237   4.205   5.452   2.838  0.1319  0.2183  0.1238
20764W        W37238  10.514   7.116   1.605 -0.1533 -0.0106 -0.0271
20765W        W37239  13.277   7.576  14.027 -0.0036  0.0278  0.0925
20766W        W37240  14.969   6.371  11.866 -0.1579  0.0372  0.1861
20767W        W37241   1.089   2.482   5.391 -0.1809 -0.1046  0.2618
20768W        W37242  11.509   7.461   4.426  0.1367  0.1782  0.1924
20769W        W37243   0.430   4.281   1.083 -0.4190 -0.3477 -0.1647
20770W        W37244   1.814   1.890   5.503  0.0918 -0.0702  0.0583
20771W        W37245   1.417   5.763   4.107  0.1502  0.1315 -0.4793
20772W        W37246   1.218  13.952  14.329  0.0218  0.3624 -0.2463
20773W        W37247   9.311   2.116   1.575 -0.1358  0.3080 -0.3365
20774W        W37248  14.938   0.174   1.580  0.2407  0.0096  0.0589
20775W        W37249   2.038  10.681   5.508 -0.2594  0.1792 -0.1909
20776W        W37250   7.774   0.389   0.693 -0.0923  0.1077  0.0834
20777W        W37251  16.889   6.685   0.066 -0.0939  0.3274  0.1309
20778W        W37252  15.938  10.815  12.491 -0.1164  0.1247  0.1297
20779W        W37253  11.695  16.355   4.007  0.0090 -0.3496  0.0040
20780W        W37254   7.865  10.057   3.230  0.0964 -0.1777  0.0147
20781W        W37255   3.815   7.950   1.218  0.0853 -0.0944  0.0076
20782W        W37256   8.455   6.387   2.818  0.0939 -0.0702 -0.0029
20783W        W37257   4.386   4.632   2.327  0.2753  0.1408 -0.0464
20784W        W37258  16.733  17.271   0.032  0.1247 -0.0465  0.0714
20785W        W37259  17.440  15.094   2.744  0.1940  0.0109  0.2565
20786W        W37260   8.895  14.700  12.508 -0.0309 -0.0774 -0.1375
20787W        W37261   3.521  17.894  14.558 -0.2273  0.1990 -0.1246
20788W        W37262  11.451   9.222  15.065  0.0406 -0.2058  0.0178
20789W        W37263   1.999  12.553   0.871 -0.0257 -0.0228 -0.3109
20790W        W37264  18.157   0.095   4.017 -0.1180 -0.0561 -0.1099
20791W        W37265  10.458  10.429   2.147 -0.3390  0.1437 -0.0424
20792W        W37266   8.741   7.320  11.898 -0.4570  0.0165  0.0364
20793W        W37267   1.675  15.536   5.562  0.2160 -0.1511 -0.2033
20794W        W37268  11.265   8.339   2.374  0.0396  0.0274 -0.0208
20795W        W37269  16.493   9.570   5.287 -0.0136 -0.0916 -0.0273
20796W        W37270  11.221  15.501  14.396 -0.1725 -0.1401  0.1133
20797W        W37271  16.261  11.449  14.930  0.2801 -0.0127  0.0458
20798W        W37272  17.981   8.565  14.494  0.0076 -0.2492 -0.0873
20799W        W37273   1.109   8.251   4.966 -0.1599 -0.1028 -0.0784
20800W        W37274  12.962   0.554   4.032 -0.0468 -0.2399 -0.0747
20801W        W37275  10.271   1.667   1.933  0.0312 -0.1486 -0.2690
20802W        W37276  12.895   6.538  14.158  0.0858 -0.1277 -0.1453
20803W        W37277   6.389   6.874   0.103 -0.2911 -0.1102  0.2967
20804W        W37278  16.560   5.897  15.406 -0.2075 -0.3084 -0.2747
20805W        W37279  15.507   9.191   0.458 -0.0486 -0.4069 -0.2892
20806W        W37280   4.884   2.135  14.246 -0.2974 -0.0064  0.3042
20807W        W37281   2.350   1.112   3.252  0.0818 -0.0558 -0.3710
20808W        W37282   5.529  13.964   1.665  0.0285 -0.0552 -0.0123
20809W        W37283   9.239   8.656   2.003 -0.1609 -0.2961 -0.3497
20810W        W37284   5.153  16.633   4.710  0.0426 -0.1844 -0.2210
20811W        W37285  13.096   0.207   5.595 -0.0914 -0.4194  0.0778
20812W        W37286  18.142  10.202  13.016  0.1055 -0.0130  0.0411
20813W        W37287   3.633   3.447  13.171  0.2098 -0.1495  0.1446
20814W        W37288   4.847  15.198   2.699 -0.0380  0.1273 -0.1590
20815W        W37289   2.906  16.721  12.129  0.1338  0.0036  0.0846
20816W        W37290  16.579   5.931  11.847 -0.2331 -0.2689  0.1620
20817W        W37291   8.293  13.430  16.341 -0.0383 -0.2292 -0.1513
20818W        W37292  12.484  17.735  11.669 -0.1027  0.1357  0.0210
20819W        W37293   0.638  17.419   3.679 -0.0352  0.2288  0.3032
20820W        W37294   5.147  11.485  15.732 -0.0356 -0.0873 -0.0493
20821W        W37295   9.255   2.238   3.474 -0.0050 -0.0239 -0.0076
20822W        W37296   5.564   9.031   2.671  0.0906  0.0042 -0.1851
20823W        W37297  10.443  12.312  10.850  0.0106  0.0631 -0.0102
20824W        W37298  17.443   0.396  12.372  0.1297 -0.2029  0.1300
20825W        W37299  13.762  16.904  13.186  0.0764 -0.0171  0.0262
20826W        W37300  16.659   1.306   4.103  0.2977  0.0370 -0.2984
20827W        W37301   5.079   3.441  13.857 -0.0434 -0.2636 -0.2660
20828W        W37302  14.180  12.131   2.464 -0.2974  0.0533 -0.0214
20829W        W37303   2.735  14.325  14.056  0.1757 -0.0080 -0.1415
20830W        W37304  13.449  17.594  14.324 -0.2363  0.3536 -0.0516
20831W        W37305   6.702  16.721   1.745 -0.2178  0.2361  0.0560
20832W        W37306  18.123  16.658   1.122 -0.2413 -0.0346  0.0711
20833W        W37307   8.604   0.773   0.464  0.0226  0.0644 -0.2263
20834W        W37308   2.795   2.467   2.083  0.0416  0.0086  0.1749
20835W        W37309  11.184  13.871  11.862  0.1232  0.1224 -0.1903
20836W        W37310  16.120   0.303  15.345  0.0688  0.1737  0.0663
20837W        W37311  16.730  15.281  15.167  0.0774  0.0513  0.0588
20838W        W37312  11.553   6.937   0.289  0.0343 -0.0355 -0.1797
20839W        W37313   6.128   0.062  10.817  0.2413 -0.1936 -0.0924
20840W        W37314  13.867   3.637  11.616  0.1396  0.2622  0.2649
20841W        W37315  11.992  15.284  14.924 -0.0381  0.0424  0.0316
20842W        W37316  10.464  14.301  14.593 -0.2464 -0.1142 -0.4648
20843W        W37317   7.329   3.085   1.038  0.0943  0.2231 -0.0119
20844W        W37318  12.423   3.190  10.677  0.1693 -0.2576 -0.0137
20845W        W37319  17.011  15.459   4.191  0.2142 -0.0311 -0.0588
20846W        W37320  13.537   0.886  14.839 -0.0375  0.0300 -0.0925
20847W        W37321   1.885   7.753  11.412 -0.2352 -0.4766  0.2399
20848W        W37322   4.280   9.638   3.918  0.0304 -0.1893  0.3323
20849W        W37323  11.985   7.643   5.455  0.3124  0.1461  0.4420
20850W        W37324   4.155   2.960   4.103 -0.0208 -0.2693 -0.0641
20851W        W37325  12.823  15.026   1.885  0.0142 -0.2381  0.0606
20852W        W37326  11.147  11.048   5.300 -0.0913  0.1348  0.0253
20853W        W37327  17.000   7.960  11.397 -0.1041 -0.2058  0.0458
20854W        W37328  12.356   4.835  14.173  0.1762  0.0079 -0.0935
20855W        W37329   8.798   4.127  11.128 -0.4479 -0.0296 -0.0155
20856W        W37330   8.336   2.053  12.737  0.0599  0.0519 -0.1260
20857W        W37331   0.897   6.771  12.524  0.2876  0.3244  0.2031
20858W        W37332  11.980   3.865  16.146 -0.0424 -0.0868  0.0006
20859W        W37333   2.682   6.646   6.011  0.2216  0.0215 -0.0793
20860W        W37334   0.052   2.968  11.302  0.1846  0.0013 -0.1440
20861W        W37335  11.958  12.577   4.367  0.0681  0.2222  0.0164
20862W        W37336   1.722  14.803   4.557  0.1944  0.3456  0.2351
20863W        W37337   1.366   3.916   3.614  0.1727  0.0914  0.1034
20864W        W37338   5.185  15.620  13.798  0.1209 -0.1304  0.3050
20865W        W37339  13.400   9.291  11.185 -0.0510 -0.0062 -0.1993
20866W        W37340   0.381  15.598  12.353 -0.1439 -0.1418  0.1047
20867W        W37341  13.457   8.220  16.013 -0.0215 -0.0102  0.0626
20868W        W37342   8.057   0.711   1.047 -0.1477  0.2174 -0.0511
20869W        W37343   0.750  17.598   0.127 -0.2189 -0.0688  0.0245
20870W        W37344   6.808  16.504   4.522 -0.1113  0.0572 -0.1136
20871W        W37345   7.904   3.233   2.519 -0.2513 -0.0800  0.1795
20872W        W37346  16.568  17.247   2.584  0.0819 -0.0280 -0.3764
20873W        W37347  12.561  12.076   3.781  0.0565 -0.1437 -0.0772
20874W        W37348  17.695   0.911  12.243 -0.3338  0.0503 -0.1627
20875W        W37349  16.246   9.337  13.807  0.2372 -0.0550 -0.0223
20876W        W37350  13.017  15.310  15.811 -0.1439 -0.1416 -0.0341
20877W        W37351  12.170   7.867  10.828 -0.0222 -0.1991 -0.2456
20878W        W37352  14.038  12.156   4.996  0.2393 -0.2038  0.0071
20879W        W37353  16.190  13.999  13.692 -0.0083 -0.0955  0.1622
20880W        W37354  11.825   3.412  14.629 -0.1468 -0.0765 -0.1468
20881W        W37355   6.828   0.115  16.043  0.3418  0.1403  0.0138
20882W        W37356   1.010   5.873  16.182 -0.2614  0.0520 -0.2096
20883W        W37357   5.905   7.523  13.871 -0.0802  0.1707 -0.2505
20884W        W37358   3.248  12.920  11.834  0.0010  0.2117 -0.1332
20885W        W37359   8.116   0.742   4.523 -0.0471  0.3590 -0.1661
20886W        W37360   5.616  12.122   3.043 -0.2401  0.1087 -0.0245
20887W        W37361  12.397   7.795   1.719 -0.0745 -0.0836  0.1141
20888W        W37362   8.267  15.145   1.825  0.5058 -0.1092 -0.2790
20889W        W37363  18.143  15.114   3.188 -0.2147  0.1171 -0.1097
20890W        W37364   5.206   9.486   0.958 -0.1244 -0.0566 -0.1844
20891W        W37365  12.642   6.353   4.565 -0.0634  0.2345 -0.3490
20892W        W37366   9.452   0.765   0.382  0.1723  0.1836  0.1175
20893W        W37367   5.708  13.636  15.213  0.0942  0.0369  0.0166
20894W        W37368   4.865   3.699  12.203  0.1302  0.1937  0.0625
20895W        W37369   5.071   7.467  12.375 -0.1397  0.3159  0.0167
20896W        W37370  10.980   8.241  12.559  0.2001  0.1811  0.0831
20897W        W37371  14.808  17.110  12.720 -0.1034 -0.0965  0.2927
20898W        W37372  16.227   9.766   1.017  0.3919 -0.1323  0.0201
20899W        W37373   5.617   6.075  15.401 -0.1057 -0.1045 -0.0543
20900W        W37374   3.375  17.102   1.478  0.1574  0.0267  0.2030
20901W        W37375   5.855   4.918  14.516 -0.1568  0.0804  0.0253
20902W        W37376   0.845   3.363   0.653 -0.3761  0.0339 -0.1066
20903W        W37377   9.732  15.870   5.244  0.2180  0.1615 -0.2374
20904W        W37378   8.784   3.378  11.476  0.0231 -0.0608  0.0383
20905W        W37379  16.392   6.838  14.991 -0.2319  0.0822 -0.1879
20906W        W37380   7.385  17.717  16.321 -0.0861  0.1523  0.0175
20907W        W37381  10.278   4.564  10.896 -0.2077  0.3321 -0.0006
20908W        W37382   6.450  12.126   4.786  0.0696  0.0208  0.1946
20909W        W37383  14.196   5.415  14.837  0.0188 -0.0856 -0.2520
20910W        W37384   7.068  10.397  13.859  0.0002  0.1503  0.0711
20911W        W37385  17.036   1.585   4.235  0.3704 -0.4049  0.0583
20912W        W37386  11.365  13.539  15.163  0.4010 -0.2058 -0.0778
20913W        W37387   7.553   5.490   1.507 -0.3294  0.2191  0.1704
20914W        W37388  14.090  15.016   3.910 -0.1977  0.1901 -0.0489
20915W        W37389  11.729   0.501   0.934 -0.1178 -0.0355  0.1539
20916W        W37390   8.346  16.332   3.477  0.1471 -0.0776 -0.3542
20917W        W37391   5.191  17.718   0.886  0.1016  0.1447  0.1511
20918W        W37392  13.469  14.129   0.585 -0.0065 -0.0151  0.0577
20919W        W37393   8.900  10.626  13.588 -0.1713  0.1311 -0.2907
20920W        W37394  12.212  12.639  13.698  0.1642 -0.1116 -0.2603
20921W        W37395  11.134  18.274  15.137  0.0043 -0.1007 -0.1011
20922W        W37396  14.282  12.647  13.448 -0.0377 -0.2236 -0.3882
20923W        W37397   2.281  12.452   2.912 -0.0288 -0.1300 -0.0938
20924W        W37398   8.418  12.361  11.993 -0.0293  0.3184 -0.3464
20925W        W37399   7.576   5.937   2.723 -0.2033  0.4907  0.2008
20926W        W37400   6.223   7.310   1.217  0.0655 -0.0329 -0.0515
20927W        W37401   1.625   1.625  15.673  0.0413 -0.1589  0.1411
20928W        W37402  15.753   7.982   3.804 -0.0934 -0.3676  0.2993
20929W        W37403   1.752   6.155   4.844 -0.0514 -0.0794 -0.0674
20930W        W37404  11.665   7.525  11.792  0.0372 -0.0259 -0.1944
20931W        W37405  16.617   6.915   1.952  0.0837 -0.1142  0.3310
20932W        W37406  17.276  17.416   3.111  0.3661  0.4920  0.1749
20933W        W37407   6.766  11.892  12.165  0.2044 -0.1881 -0.0108
20934W        W37408   8.613  14.375   2.894 -0.1958  0.3619 -0.0938
20935W        W37409   5.829  14.134  15.494  0.1656  0.0691  0.1109
20936W        W37410   5.890   1.036   0.963 -0.2184  0.0262  0.1526
20937W        W37411   8.374  17.987   1.096 -0.2226  0.1808  0.3560
20938W        W37412   6.853  12.440  12.087  0.2309  0.1810 -0.0888
20939W        W37413   3.452   4.630   3.361 -0.0525  0.0015  0.0033
20940W        W37414  13.783   9.562  15.350 -0.1620  0.2335  0.1284
20941W        W37415   6.949   3.953   1.564 -0.0106 -0.0097 -0.0918
20942W        W37416   9.571   2.769  12.359 -0.3119 -0.0684  0.2698
20943W        W37417   0.076   6.215   3.559 -0.0608  0.0692  0.2897
20944W        W37418  11.028   7.217   1.609 -0.1387  0.3151 -0.2481
20945W        W37419  14.337  13.625   5.345 -0.1611  0.1970 -0.0635
20946W        W37420  13.505   5.913  13.610  0.2732  0.2068 -0.1159
20947W        W37421   6.358   8.547   1.096  0.3169  0.0228  0.0284
20948W        W37422  10.554   4.020   5.575 -0.0520  0.0432 -0.0606
20949W        W37423  13.508   6.505  15.142 -0.0989  0.0091 -0.1224
20950W        W37424  15.565   3.334   1.082 -0.3058  0.1462 -0.0747
20951W        W37425  17.747   0.094   2.727 -0.2009 -0.0077  0.2519
20952W        W37426   2.026   6.552   4.014 -0.0053  0.0014 -0.2486
20953W        W37427   0.897   1.096   2.947 -0.1751  0.4917  0.0897
20954W        W37428   8.888  13.891   4.443 -0.2376 -0.1731 -0.2853
20955W        W37429  17.393   7.741  14.496 -0.0816  0.2296 -0.1911
20956W        W37430   0.495  18.277  11.434 -0.3254 -0.0455  0.0441
20957W        W37431   4.173   8.488  14.486 -0.0857 -0.1120  0.0946
20958W        W37432  13.137  14.569  14.767  0.0654 -0.4870 -0.0154
20959W        W37433  13.126  16.488  15.170 -0.2294  0.2042 -0.1355
20960W        W37434  12.238   2.664  15.824  0.2467 -0.0638  0.0645
20961W        W37435   6.974  10.087  12.632 -0.2777  0.1255 -0.1373
20962W        W37436   5.590  11.756  13.987 -0.1928  0.0041 -0.0202
20963W        W37437  16.606  16.164  12.237 -0.3339  0.2764 -0.0642
20964W        W37438  18.274  12.198  14.104 -0.1039  0.1237 -0.2419
20965W        W37439  11.650   3.130   5.332 -0.5623 -0.2416 -0.2807
20966W        W37440  15.356   8.890  10.213  0.2866 -0.3749 -0.2147
20967W        W37441   8.165  17.123  15.718 -0.2109 -0.1953 -0.0255
20968W        W37442   8.048  14.014   3.478 -0.2313  0.2543  0.3269
20969W        W37443  14.381  10.177   2.481  0.1063  0.0595 -0.2638
20970W        W37444  18.092  10.548   3.312 -0.1293 -0.0085 -0.2915
20971W        W37445  11.729  13.305   0.463 -0.0462 -0.2728 -0.1122
20972W        W37446  11.307  12.795   1.493 -0.0243  0.0672  0.2611
20973W        W37447  10.780  14.419  11.259  0.1471  0.0813 -0.0977
20974W        W37448   7.816  17.268  13.298  0.0459  0.0410 -0.1519
20975W        W37449   2.945   1.468   1.743  0.3326 -0.2997  0.0542
20976W        W37450   3.447  11.050  10.310 -0.0227  0.1481 -0.1163
20977W        W37451   9.556   9.281   1.385 -0.2754  0.3166 -0.2182
20978W        W37452  13.874   5.501   0.386 -0.1712  0.2355 -0.0140
20979W        W37453  17.025  16.233   1.974 -0.0312  0.2328 -0.1632
20980W        W37454  10.328   0.659   4.580 -0.0781 -0.0847  0.0213
20981W        W37455  11.598   4.650  11.134 -0.0813 -0.2675  0.1487
20982W        W37456  17.970   6.242   3.716  0.1049 -0.0194 -0.1003
20983W        W37457   3.930   2.235   0.081  0.3627  0.4549 -0.1502
20984W        W37458  18.121   2.162  13.195 -0.2501  0.0164  0.1620
20985W        W37459  13.670   3.779   2.925  0.0800 -0.2582  0.2375
20986W        W37460   5.944  10.050  12.913 -0.3707  0.0631 -0.1573
20987W        W37461  17.640   7.445   2.538  0.1209 -0.0105 -0.1723
20988W        W37462   8.468  13.415   1.222  0.3379  0.3102  0.1316
20989W        W37463   3.265   3.794   3.896  0.0769 -0.0885 -0.2822
20990W        W37464  12.574   7.067   3.027 -0.0835 -0.0611  0.0397
20991W        W37465  18.312   3.410   1.098 -0.2232 -0.0906 -0.2341
20992W        W37466   8.724  16.058  13.368  0.1168 -0.0431  0.1167
20993W        W37467  16.878   5.157  11.463  0.2316 -0.0215  0.0226
20994W        W37468  15.837   3.994  12.372 -0.1161 -0.1693  0.2513
20995W        W37469  16.801  12.049   0.943 -0.0869  0.1937 -0.1083
20996W        W37470   8.703   3.419   4.176 -0.0516 -0.2022  0.1736
20997W        W37471  14.242  17.193  15.210  0.0869  0.1592 -0.0607
20998W        W37472  16.497  15.117  11.562  0.0633 -0.0377  0.0916
20999W        W37473   2.853   1.367  11.953  0.1847 -0.0199  0.0851
21000W        W37474   2.437   7.015   3.279 -0.0789 -0.3503 -0.0535
21001W        W37475  16.906   1.815   4.923  0.0342 -0.0851  0.3720
21002W        W37476  17.103  12.958  11.735 -0.1511  0.0375  0.0222
21003W        W37477   5.039  17.516  12.634  0.0743 -0.1556  0.2093
21004W        W37478   2.957   9.452   4.313  0.0770 -0.2249 -0.0527
21005W        W37479  16.019   3.157  13.972  0.1222 -0.2166  0.1911
21006W        W37480   4.535  14.164  16.014  0.1513  0.1193 -0.1901
21007W        W37481  15.723  14.948   4.643 -0.1279  0.0849  0.0067
21008W        W37482  17.259  11.935   3.443 -0.0185  0.2169 -0.3631
21009W        W37483   1.256   5.432  12.924  0.1782 -0.0099 -0.3431
21010W        W37484   3.887  18.197   5.819  0.0185 -0.0203  0.0119
21011W        W37485   9.899  18.114  14.764 -0.4071  0.0731 -0.3164
21012W        W37486   0.501   0.530  14.402  0.0955 -0.0465 -0.0913
21013W        W37487  12.968   1.035   4.136 -0.3241 -0.4569  0.2306
21014W        W37488   4.007  11.666  13.105  0.1645 -0.1470  0.0978
21015W        W37489   8.397   6.471   0.025  0.3476  0.1577 -0.2417
21016W        W37490  13.937   4.063  11.803 -0.0132  0.2963 -0.0777
21017W        W37491   9.280   0.004  15.476  0.3013  0.1760  0.3486
21018W        W37492   1.265   9.993   0.910  0.0229 -0.0950 -0.0679
21019W        W37493  13.834   0.855  15.788  0.1792 -0.2562 -0.1768
21020W        W37494  12.544  16.836  12.860 -0.0031 -0.0492 -0.1100
21021W        W37495   1.247   6.583   4.641 -0.2782  0.0613 -0.2194
21022W        W37496   0.907  13.103   2.872  0.2988  0.1378 -0.1453
21023W        W37497   4.081   7.689  12.870  0.1450  0.2759 -0.3635
21024W        W37498   1.768   9.851   0.850  0.1489 -0.0927 -0.1933
21025W        W37499   9.358   9.433  15.964 -0.4366 -0.1982  0.2373
21026W        W37500   4.567  14.972   4.353  0.2609 -0.0848  0.1833
21027W        W37501   8.191  16.935   2.009  0.3307 -0.1552 -0.4080
21028W        W37502   9.489  10.291  12.626  0.1225  0.2586 -0.0084
21029W        W37503  14.714  10.533  10.519 -0.3331  0.0924  0.2346
21030W        W37504   8.235   3.055  13.349  0.0101 -0.0106  0.0100
21031W        W37505  17.032  16.542   6.270  0.1370 -0.0333  0.1024
21032W        W37506  16.849   4.225  12.077  0.0883  0.1535 -0.0061
21033W        W37507  14.185   5.275  11.526  0.1031  0.0334 -0.0995
21034W        W37508   1.011  11.931   0.373 -0.2278  0.1888  0.0792
21035W        W37509   1.639  13.336  13.164  0.4681  0.0222 -0.2020
21036W        W37510   0.079  18.158   3.453 -0.1257  0.5540 -0.1630
21037W        W37511  15.591   7.120  11.672  0.0244  0.1798 -0.0176
21038W        W37512  16.443  15.497  12.824  0.1646  0.0591 -0.0441
21039W        W37513  18.267   8.805   3.171  0.2229  0.0420  0.0252
21040W        W37514  13.655  11.807   4.711 -0.0500  0.1207  0.2671
21041W        W37515   4.749   7.451  13.553 -0.0335  0.1158 -0.2042
21042W        W37516  13.473   6.042  14.129  0.0856  0.1166  0.0198
21043W        W37517  15.655   8.120  13.046 -0.3569  0.1746  0.4561
21044W        W37518  15.516   5.315  11.093 -0.1364  0.0532  0.1233
21045W        W37519   5.642   7.033  13.637  0.1375  0.0792  0.0478
21046W        W37520   4.074   9.470   0.122  0.0858  0.2725  0.1450
21047W        W37521   8.656  15.860  13.890  0.0820 -0.1427  0.3589
21048W        W37522  14.620  11.965   1.726  0.0989 -0.2527  0.1036
21049W        W37523   9.342   4.766   5.280 -0.2133 -0.0867 -0.0264
21050W        W37524   6.980   0.937  14.957  0.2893 -0.0914 -0.0953
21051W        W37525   3.056   8.387   4.307 -0.1677  0.0832  0.1632
21052W        W37526   3.584   8.924   4.249  0.0018 -0.2930  0.0751
21053W        W37527   6.022   2.599  13.236  0.3312 -0.1199 -0.1564
21054W        W37528  11.395  15.406   4.155  0.4459 -0.1150  0.2708
21055W        W37529  13.776   9.457   3.220 -0.0363  0.1732 -0.2483
21056W        W37530   7.002  17.821   1.236  0.1536 -0.5944 -0.0699
21057W        W37531   7.685   8.220  12.497  0.2076  0.0496 -0.2490
21058W        W37532   4.492   7.447   1.773  0.0156  0.2685 -0.1276
21059W        W37533   0.745  12.787  16.150 -0.3547 -0.2086 -0.1178
21060W        W37534  11.800  15.686  14.333  0.4515 -0.0606  0.2704
21061W        W37535  12.555  11.366  11.524 -0.0020  0.0064 -0.0734
21062W        W37536  15.808   8.460  13.802  0.0222  0.1260  0.1011
21063W        W37537  16.661  14.158   0.345  0.1931 -0.1122  0.0629
21064W        W37538   9.874  10.855  14.356 -0.1328  0.1637 -0.0013
21065W        W37539   2.442  16.443  12.026  0.0522  0.3436 -0.0780
21066W        W37540   5.667   7.205   6.191  0.4634 -0.1319  0.3594
21067W        W37541  12.493   7.629   5.238 -0.2882 -0.0312 -0.3560
21068W        W37542  15.225   6.216  14.455  0.0781  0.0285 -0.0060
21069W        W37543   6.189   1.034   2.662  0.1752  0.0357  0.0983
21070W        W37544  16.407  13.215   0.993 -0.0674  0.3844  0.2274
21071W        W37545   5.389  12.942  13.048 -0.0184 -0.1535  0.4459
21072W        W37546   3.540  10.393  16.053  0.1104 -0.4617  0.2117
21073W        W37547   7.433  13.163  13.175  0.4421 -0.1823  0.0172
21074W        W37548  17.261  15.986   5.749  0.2361 -0.3746  0.2372
21075W        W37549   2.813  14.989  14.949  0.4048 -0.0075  0.0041
21076W        W37550  12.804  10.411  11.690 -0.2044  0.1027 -0.3400
21077W        W37551   8.712   8.932  11.916 -0.4560 -0.0016 -0.0975
21078W        W37552   8.135  11.219  13.460 -0.0013 -0.0562 -0.2549
21079W        W37553  13.817   3.262  14.638  0.0403 -0.1424  0.0533
21080W        W37554  10.988   8.830   1.108 -0.1442 -0.2591  0.2571
21081W        W37555  17.205   7.643  12.577  0.3239  0.2186  0.1580
21082W        W37556  12.090   0.108  15.883  0.1001 -0.0193  0.1864
21083W        W37557  18.214  17.033   4.584 -0.1971  0.0230 -0.0270
21084W        W37558  13.652  13.270  13.003 -0.0634 -0.3496 -0.0925
21085W        W37559  15.864   7.297   1.041  0.0531  0.3058  0.1045
21086W        W37560   5.455   9.754   3.862 -0.0844 -0.0550  0.0689
21087W        W37561   0.222   5.246  16.000  0.0739 -0.0529 -0.0711
21088W        W37562  16.771  14.416   4.675  0.1686 -0.0176  0.1190
21089W        W37563  13.152   8.315   5.024  0.0631  0.0640  0.0171
21090W        W37564  10.761  15.743   4.936  0.0706  0.1849 -0.0822
21091W        W37565   8.659  13.295   5.832 -0.1847 -0.0935 -0.0459
21092W        W37566   9.797   8.061  13.419 -0.2121  0.3631 -0.1622
21093W        W37567   6.144   7.701  10.672 -0.1269 -0.0717  0.0337
21094W        W37568  18.022  13.378  14.764 -0.1565  0.1076  0.1006
21095W        W37569  16.303  14.558   0.520 -0.0543 -0.0679 -0.0351
21096W        W37570  16.795  17.406   2.981 -0.2574  0.0090 -0.2751
21097W        W37571   2.136  12.883  12.547 -0.0524  0.1462 -0.2643
21098W        W37572   6.446   5.201  12.579 -0.0585 -0.0041 -0.3889
21099W        W37573   1.220   4.392  15.041 -0.1477  0.0581  0.0627
21100W        W37574  18.285   1.070  15.751 -0.3257  0.0226 -0.1504
21101W        W37575  11.568  11.797   2.758  0.1532  0.0474  0.3124
21102W        W37576  14.634  10.189   0.448 -0.0498 -0.3690  0.2488
21103W        W37577   6.059   6.766  13.340  0.1502  0.1488 -0.0654
21104W        W37578  10.228   0.302  14.033 -0.1524  0.2956 -0.0939
21105W        W37579  14.118  11.582   2.458 -0.1094 -0.1626 -0.0130
21106W        W37580   6.452   6.386  14.254 -0.1115 -0.1954  0.3878
21107W        W37581   6.246   8.121   4.797 -0.1305  0.0049 -0.1101
21108W        W37582   2.007   2.030  13.546 -0.2975 -0.0305 -0.0704
21109W        W37583  14.017  16.838  11.571  0.0803 -0.0547  0.2378
21110W        W37584  14.983  11.145   2.024 -0.0130  0.0161  0.2120
21111W        W37585   5.211   2.381  16.177  0.4670 -0.1280 -0.0463
21112W        W37586   3.183  13.080   1.636  0.1360  0.2553  0.0560
21113W        W37587   1.719   1.350  14.135 -0.2518 -0.3404 -0.1273
21114W        W37588   7.737  18.210  16.319  0.0108 -0.1150 -0.2458
21115W        W37589   7.911   3.123   3.431  0.1785  0.0132 -0.1435
21116W        W37590  14.683  13.338   2.664  0.4345 -0.2531  0.0827
21117W        W37591  14.581   9.699   2.937  0.1466  0.0006 -0.1138
21118W        W37592   5.937   7.314   0.799  0.2691  0.1280 -0.0686
21119W        W37593   8.146  15.427  13.338 -0.3218  0.1369  0.0503
21120W        W37594   3.077  15.578  15.254 -0.3798 -0.1016  0.2629
21121W        W37595   2.139  11.038   4.699 -0.0690  0.1195 -0.0354
21122W        W37596   5.002   8.553   5.200 -0.1574 -0.0047  0.1370
21123W        W37597   0.885   1.068   0.957 -0.0072 -0.1507 -0.2221
21124W        W37598   8.325   4.297   4.119  0.1777  0.2547  0.0871
21125W        W37599   0.317   1.902   2.779  0.3998  0.2088 -0.3782
21126W        W37600  15.612  14.606  14.144  0.3419 -0.0595  0.3196
21127W        W37601   3.232   8.756  12.804 -0.1046 -0.0808 -0.2694
21128W        W37602   0.486   0.268  11.107 -0.2527 -0.1937  0.1601
21129W        W37603  11.262  16.882   4.162  0.1962 -0.2937  0.3973
21130W        W37604   3.778  17.103   4.156  0.1215 -0.1240 -0.1530
21131W        W37605   1.538  13.127   4.656  0.0578 -0.1726 -0.0059
21132W        W37606   7.297  14.443   3.601  0.1571  0.0295  0.2836
21133W        W37607   6.147  14.766   4.391  0.2669 -0.0392  0.2388
21134W        W37608   9.718  15.628   5.717 -0.1058  0.0078  0.0546
21135W        W37609  10.480   7.634  15.042  0.0179  0.0236 -0.0275
21136W        W37610  11.634   6.062  12.734 -0.1586  0.0246  0.0269
21137W        W37611   2.375   8.425  15.069 -0.1892 -0.0480 -0.1310
21138W        W37612   3.893  12.475  15.689  0.1098 -0.2236 -0.4367
21139W        W37613   5.014  16.162   4.790 -0.0139  0.0222 -0.0868
21140W        W37614   9.873   0.023   3.891 -0.0111 -0.1697  0.3582
21141W        W37615  14.242   0.518   2.823  0.0369 -0.1259 -0.2089
21142W        W37616   9.265  14.881  14.974  0.1808 -0.2244 -0.0350
21143W        W37617  12.435   4.203   0.941 -0.0511  0.1820  0.1297
21144W        W37618   4.264  13.843   2.806  0.2571 -0.2040 -0.0111
21145W        W37619   3.134   2.777   2.319 -0.1772  0.2042 -0.1534
21146W        W37620  15.281   1.766   6.099  0.1236 -0.0114 -0.1641
21147W        W37621  17.749  13.002   4.221 -0.1627 -0.1053 -0.0871
21148W        W37622   1.090   8.798  11.780  0.2996 -0.1574 -0.0003
21149W        W37623   3.429   1.382   1.581  0.2048 -0.1162 -0.1212
21150W        W37624   8.250   7.059  13.552 -0.2588 -0.2156  0.2547
21151W        W37625  17.069   9.108   1.726  0.1650  0.2559  0.3597
21152W        W37626  13.938  15.167  15.097 -0.0808  0.0240  0.1117
21153W        W37627   8.639  12.989   4.556 -0.0663  0.2373  0.1742
21154W        W37628   5.000   5.578   5.495  0.0400  0.0106  0.0328
21155W        W37629  14.115  14.426   3.980 -0.2787  0.1612 -0.0361
21156W        W37630   7.611   0.747  13.676 -0.2330  0.1264  0.0806
21157W        W37631  14.841  12.517   4.939 -0.0681 -0.2649  0.3015
21158W        W37632  13.610  15.271   5.529  0.0259 -0.1976  0.0215
21159W        W37633  11.569  13.754   3.486 -0.0297  0.2504 -0.1975
21160W        W37634  13.543  12.757  11.785 -0.1409  0.1904  0.1264
21161W        W37635   9.684   7.425   3.969 -0.0128 -0.0234 -0.1159
21162W        W37636   0.632  17.266  16.089  0.1909 -0.0711  0.1456
21163W        W37637  14.716   3.433   2.222  0.3105 -0.0364 -0.1974
21164W        W37638   4.193  18.001   4.198 -0.0219 -0.1227 -0.2688
21165W        W37639   8.595   0.429   0.818 -0.0287 -0.2798 -0.1277
21166W        W37640  12.124   4.017  15.306  0.2050  0.0447 -0.3893
21167W        W37641  14.092  13.554  13.369 -0.1265 -0.0897  0.1394
21168W        W37642   2.588   6.844  16.014  0.0726 -0.1804  0.2397
21169W        W37643   6.284   4.944  14.218  0.1475 -0.0228 -0.1482
21170W        W37644  17.771   2.028   1.784  0.1168 -0.0873  0.0243
21171W        W37645  11.951  15.296   4.375  0.1825  0.4073  0.0781
21172W        W37646   8.285  13.927   5.879 -0.0977 -0.1061  0.0492
21173W        W37647  16.944   1.304   0.931 -0.0048 -0.0689  0.2468
21174W        W37648   8.496   9.982   2.415  0.0075 -0.2045  0.1272
21175W        W37649   0.640  15.800   2.000 -0.0904 -0.1902 -0.1271
21176W        W37650   7.252   2.684  11.161 -0.0935  0.0896 -0.0815
21177W        W37651   5.101   9.800  12.834 -0.1338 -0.2612  0.1193
21178W        W37652  16.213  10.604  13.348  0.1780 -0.2644 -0.0012
21179W        W37653  17.195  18.153  11.680 -0.2006  0.0984 -0.0507
21180W        W37654  10.600  15.250  11.760 -0.0478  0.2867  0.2483
21181W        W37655   9.337   9.943  12.964 -0.4278  0.1292 -0.2034
21182W        W37656  11.076  16.002   3.981 -0.3868 -0.2689 -0.1884
21183W        W37657   2.216   5.203   3.973 -0.0337  0.3093  0.2433
21184W        W37658   1.226   7.783   2.415  0.0571 -0.1008  0.3804
21185W        W37659  11.660   1.291  13.224 -0.1805 -0.0899 -0.0371
21186W        W37660   8.077  17.799   5.026  0.0933  0.1169 -0.2111
21187W        W37661   8.190   5.326  16.039  0.1508 -0.2199  0.0991
21188W        W37662  10.500   2.650   1.119  0.2671  0.2044  0.2000
21189W        W37663   3.035  11.314   2.847  0.1546 -0.0951 -0.0901
21190W        W37664   9.189   9.825  14.036 -0.2652  0.0037 -0.1903
21191W        W37665   1.023  17.946  11.152 -0.0591  0.2449  0.0884
21192W        W37666  14.957  12.760  12.755 -0.2446  0.0646  0.0504
21193W        W37667   7.959   3.913  11.459 -0.0543 -0.0107  0.0915
21194W        W37668   1.675  14.233   5.799 -0.0077  0.0359 -0.1951
21195W        W37669  10.198   4.680   2.617  0.0463  0.2238 -0.0561
21196W        W37670  16.748  18.150  12.659  0.4165  0.1474 -0.1496
21197W        W37671  17.972   2.345  16.142  0.1580 -0.0573 -0.0414
21198W        W37672   2.936   5.736  11.272 -0.3558  0.1208  0.1646
21199W        W37673   9.792   1.274   2.940  0.4474 -0.3120  0.0202
21200W        W37674   9.968   3.063  13.133  0.1319  0.1487  0.1546
21201W        W37675  12.393  11.695  14.980 -0.3564  0.1895  0.1255
21202W        W37676  16.763   8.492  16.034  0.0267 -0.1792 -0.2218
21203W        W37677  10.406  11.600   2.225 -0.2083  0.2548  0.0559
21204W        W37678  17.670  10.945  16.275  0.0163  0.0451  0.0459
21205W        W37679   2.299  14.670  11.953  0.1073 -0.2062 -0.0976
21206W        W37680  11.475  17.627   2.183 -0.1459  0.4545 -0.0166
21207W        W37681   8.168   0.084   0.950 -0.0490 -0.0738 -0.1887
21208W        W37682  17.537   9.726   0.682  0.1764 -0.0696  0.2232
21209W        W37683   8.261  12.246  12.890 -0.2270 -0.0903  0.0248
21210W        W37684   4.117  17.618   1.768  0.1936  0.1780  0.0659
21211W        W37685   2.583   6.004  13.799  0.0276 -0.2357  0.4361
21212W        W37686   2.465  11.603   1.195 -0.0781 -0.2482 -0.4419
21213W        W37687  12.778  16.880   3.300 -0.0528  0.0398  0.1306
21214W        W37688  14.831  16.214   1.779 -0.2862  0.0300  0.1907
21215W        W37689  14.427  15.382   1.676  0.0695 -0.1492 -0.0111
21216W        W37690  16.809   6.747  15.400  0.0098  0.4122 -0.0056
21217W        W37691  13.420  13.329  14.755  0.1766  0.1140 -0.4489
21218W        W37692   1.746  15.698   0.151 -0.2141  0.0195 -0.3617
21219W        W37693   6.089  11.719  14.779  0.1213 -0.5118 -0.1649
21220W        W37694   0.298  15.955   1.658  0.2819  0.1241  0.1240
21221W        W37695  17.343  16.182   3.327 -0.2001  0.0186 -0.2329
21222W        W37696  13.114  15.062  12.454  0.3193 -0.0814 -0.1460
21223W        W37697   7.063   5.065  13.261  0.1379 -0.1296  0.0339
21224W        W37698   0.282  17.843  12.298 -0.3788 -0.0689  0.2938
21225W        W37699   0.366   7.523   0.264  0.1829  0.2133  0.1241
21226W        W37700  12.393  10.767  12.381 -0.3395 -0.1274 -0.4068
21227W        W37701  12.538  15.669  10.778  0.2480 -0.4014 -0.1662
21228W        W37702  16.247  13.958  14.844  0.2446 -0.0854 -0.1443
21229W        W37703   3.845   2.577   5.530 -0.0482  0.0250 -0.1299
21230W        W37704   8.207  12.453  14.145  0.2255  0.0336 -0.1111
21231W        W37705   7.507  14.904  12.921 -0.0360 -0.0930  0.2795
21232W        W37706   3.953   4.674  13.946 -0.0900 -0.3968 -0.2795
21233W        W37707  13.587  16.223  14.938 -0.0540  0.2937  0.0641
21234W        W37708   0.540   5.009   4.744 -0.3115  0.0836 -0.1442
21235W        W37709   3.908   8.842  15.725 -0.0708 -0.1111 -0.1506
21236W        W37710   4.597  18.177  12.999 -0.0454 -0.0485 -0.3065
21237W        W37711  12.397   2.627   2.655  0.2714 -0.0143  0.1932
21238W        W37712  13.823  18.136  11.702  0.0739  0.2661  0.2397
21239W        W37713   3.808   9.329   4.044  0.1470 -0.2539  0.1433
21240W        W37714  16.257   0.119  14.890  0.0996 -0.0382  0.1648
21241W        W37715  16.583   4.798  13.869  0.0947 -0.1677  0.0337
21242W        W37716   2.473   4.423   5.679 -0.1384 -0.2957 -0.0953
21243W        W37717   9.940  12.917  15.721  0.0347 -0.0926 -0.2545
21244W        W37718  10.864  16.646   4.546  0.2823  0.1009 -0.2527
21245W        W37719   5.986   8.556   0.464 -0.1145 -0.2774 -0.0469
21246W        W37720   4.959   3.136  14.667  0.0996 -0.1350 -0.3022
21247W        W37721  17.235   6.515  15.538 -0.1239 -0.0409 -0.0139
21248W        W37722  11.200  12.187   4.315  0.2099  0.2781  0.2149
21249W        W37723  10.350   3.463   4.820  0.0603  0.0617 -0.3157
21250W        W37724  17.835  17.724  13.502  0.0484 -0.1535  0.1283
21251W        W37725   5.480   6.798   1.690  0.1254  0.3400  0.1057
21252W        W37726  14.421   8.334   0.204  0.1096  0.1590  0.1041
21253W        W37727   5.493   3.728  12.632  0.3180  0.1400  0.1494
21254W        W37728   8.615   2.514   3.449  0.1683 -0.1860  0.0002
21255W        W37729  12.047   9.099   0.519  0.0228 -0.0967 -0.4460
21256W        W37730   1.654  14.662  16.032  0.1173 -0.1189  0.0722
21257W        W37731   4.989  17.693  13.150 -0.0182  0.1077 -0.0445
21258W        W37732   2.463   4.796   2.910  0.0188  0.2497  0.1496
21259W        W37733  16.363  16.976   0.297  0.0359 -0.0103  0.0334
21260W        W37734   2.678  10.277  14.822 -0.0304  0.1954  0.1182
21261W        W37735  10.767   8.803   3.036 -0.2077 -0.0071  0.3548
21262W        W37736  15.901   5.520  11.614  0.0004  0.1961  0.2427
21263W        W37737  12.779  10.862   5.956  0.1316 -0.0929 -0.1544
21264W        W37738   5.973  10.469   1.257 -0.1793 -0.0910 -0.0850
21265W        W37739   8.107   1.386   5.047  0.4738  0.2368  0.0505
21266W        W37740   9.180  10.552  15.986 -0.5298 -0.1806  0.4091
21267W        W37741   5.190  15.272  15.453  0.0281  0.0953  0.0714
21268W        W37742  10.924   8.788  14.133  0.0729  0.0229  0.1700
21269W        W37743  17.918  17.448  15.882 -0.0522 -0.1963  0.1250
21270W        W37744   5.814   9.304  15.899 -0.2032 -0.1673  0.0986
21271W        W37745  15.633   8.657  16.158  0.2587  0.2546  0.1383
21272W        W37746  15.567   0.772   5.184 -0.2712  0.0815  0.2038
21273W        W37747   0.112  11.859   4.002  0.1899  0.1846 -0.2066
21274W        W37748  16.772   3.700  11.208  0.2055  0.0636  0.0816
21275W        W37749  10.444   7.088  14.923  0.1242  0.1030  0.3869
21276W        W37750  17.850   5.370   0.564 -0.1781 -0.1338  0.2367
21277W        W37751   1.202  13.942   2.975 -0.0105  0.1271  0.0420
21278W        W37752   0.270   1.963  12.439 -0.1096 -0.0087 -0.1490
21279W        W37753   9.007   5.966   0.146 -0.0940 -0.0268 -0.0440
21280W        W37754   8.875   8.145   4.097 -0.0703  0.0261  0.2105
21281W        W37755   7.206  12.998  10.385 -0.3869  0.0662 -0.0858
21282W        W37756   0.736   2.480  13.924  0.0637  0.4452  0.0004
21283W        W37757  10.569   8.191  11.049  0.0589 -0.2265 -0.1758
21284W        W37758   5.638   0.152   2.775 -0.2638 -0.0508 -0.1607
21285W        W37759   3.622  17.223  12.610  0.1952  0.0292  0.0474
21286W        W37760  10.732  16.648  12.007  0.2681  0.1218 -0.5298
21287W        W37761  17.991   5.331   1.435  0.1657 -0.0964 -0.0940
21288W        W37762  11.544  14.857  12.628  0.1486  0.0304  0.1069
21289W        W37763  11.136   6.977   2.741  0.2657  0.1097  0.1448
21290W        W37764   1.749   4.954  13.982  0.1261  0.1525  0.1563
21291W        W37765  13.192   3.989  11.172  0.0841 -0.5089  0.5258
21292W        W37766  10.570  15.866   2.083  0.2154 -0.1746  0.0479
21293W        W37767  12.066  17.476   1.179  0.0081  0.1676  0.3382
21294W        W37768  12.858   1.303  13.436  0.2716  0.1313  0.0688
21295W        W37769   4.934  16.046   3.586  0.0498 -0.3737 -0.0199
21296W        W37770  12.231  14.647  12.836 -0.1565 -0.0700 -0.0971
21297W        W37771   7.802  12.152  11.211  0.1074  0.2866 -0.2928
21298W        W37772  10.592  13.698  15.795 -0.1615 -0.1210  0.2245
21299W        W37773   5.725  10.978  12.676 -0.1531 -0.0169  0.1237
21300W        W37774  11.397  17.024   4.686 -0.1941 -0.0837  0.2911
21301W        W37775   6.735   0.650   4.532 -0.2837  0.2281  0.0338
21302W        W37776   0.157  16.937  15.621  0.1343 -0.0957  0.4218
21303W        W37777   9.224   1.394   1.122 -0.1548 -0.4309  0.0293
21304W        W37778  14.223  17.555   1.498 -0.2081  0.0925  0.2947
21305W        W37779   3.944   3.856  14.087 -0.1423 -0.3471 -0.0265
21306W        W37780  10.260  14.963   4.190  0.1975 -0.0571  0.0501
21307W        W37781  13.062  18.328   2.698 -0.2153  0.0091  0.4858
21308W        W37782   2.253   8.063  12.565  0.1133  0.2236  0.0588
21309W        W37783  12.011  15.287  15.575  0.1005 -0.0526 -0.0083
21310W        W37784  16.158   7.981  15.294 -0.1147  0.1048 -0.0479
21311W        W37785   2.427   8.056  15.367 -0.1904  0.1284 -0.1567
21312W        W37786  17.839   6.861   0.213  0.1508  0.0179  0.1216
21313W        W37787   5.772   0.212   1.943 -0.1089 -0.0542  0.0635
21314W        W37788  15.875  10.432  15.263  0.0902  0.0482  0.0148
21315W        W37789  13.826  18.063   4.999 -0.3948 -0.0112 -0.3004
21316W        W37790   3.740  14.591  12.389 -0.1935 -0.2326 -0.2096
21317W        W37791  13.382  16.057   3.206 -0.1146 -0.1759 -0.1441
21318W        W37792  16.058   4.543   3.710 -0.0330  0.0833 -0.1214
21319W        W37793   8.959   6.326  11.062 -0.2743 -0.2441 -0.1137
21320W        W37794  15.743  17.174   3.068 -0.0027 -0.1780 -0.2254
21321W        W37795   7.972  15.189  14.692 -0.3937 -0.1437 -0.2886
21322W        W37796  13.726  15.896  13.942  0.0373  0.1260  0.2204
21323W        W37797   2.844   4.615   3.260  0.0682 -0.0431  0.1069
21324W        W37798   6.436   2.689  12.072 -0.1847  0.0174 -0.2040
21325W        W37799  13.220  14.798  12.099 -0.0783  0.3642 -0.0234
21326W        W37800  13.200  10.315  10.910 -0.0282  0.0010  0.3259
21327W        W37801   4.753   9.870  14.210  0.2549 -0.0831  0.1027
21328W        W37802   3.230   7.035   5.486  0.3005  0.0782 -0.1893
21329W        W37803  11.772  14.708  13.177  0.2991  0.0453 -0.0015
21330W        W37804   4.568  13.315   0.140 -0.2122  0.0531 -0.1974
21331W        W37805   4.464   8.934  14.598  0.0333  0.1500  0.3535
21332W        W37806   1.469   0.652   0.303 -0.0241  0.1530 -0.0380
21333W        W37807  14.848  11.929  15.876  0.0605 -0.1394 -0.2390
21334W        W37808   0.308  16.543  14.849 -0.1415  0.3496 -0.0880
21335W        W37809   9.691  15.018  15.225  0.2098  0.3153  0.1440
21336W        W37810  17.061   0.684   2.232  0.4236 -0.4326  0.1144
21337W        W37811   0.774   3.228  16.146  0.0550 -0.0695 -0.0239
21338W        W37812   7.737  15.870   6.164 -0.1026  0.0779 -0.3320
21339W        W37813   0.629   6.970   2.120  0.0930  0.1423 -0.4314
21340W        W37814  10.482   2.172  14.447  0.3676  0.2285 -0.3117
21341W        W37815   1.004  17.961  15.764  0.2355 -0.1469 -0.1295
21342W        W37816   4.445   5.469   1.462  0.1940  0.2468 -0.0785
21343W        W37817   0.271  14.860  15.139  0.1231 -0.0558 -0.0725
21344W        W37818  11.875   2.497   4.898 -0.3387 -0.0569  0.5294
21345W        W37819  12.340  10.133  12.482 -0.0656  0.0269 -0.1054
21346W        W37820   5.953   3.383   4.038  0.3024 -0.1334  0.1136
21347W        W37821   4.712  10.017  11.612 -0.3499  0.0638  0.3498
21348W        W37822  16.834   8.524  11.173  0.1683 -0.2699  0.0768
21349W        W37823   8.186   8.616  13.604 -0.0805 -0.0444 -0.1608
21350W        W37824   0.830   4.519  13.786 -0.1530  0.2389 -0.0420
21351W        W37825   5.740   5.100  11.684  0.0850 -0.2158 -0.1440
21352W        W37826   8.726  15.961  12.865  0.0589  0.1791  0.1984
21353W        W37827  17.539   8.279   5.483 -0.2226 -0.0306 -0.0262
21354W        W37828  15.542  12.491   3.509 -0.2758  0.2681 -0.2194
21355W        W37829  17.008   4.134  11.136 -0.0442 -0.2597  0.0694
21356W        W37830   6.380   7.466  13.902 -0.1093 -0.1322  0.2323
21357W        W37831   9.715  13.865  12.064 -0.1930 -0.0977 -0.2671
21358W        W37832   3.180  14.467  14.309 -0.1018  0.0554 -0.0309
21359W        W37833   8.087  10.404   4.115 -0.0575  0.0680 -0.0682
21360W        W37834   9.909   6.463   4.031  0.1370 -0.0882 -0.3981
21361W        W37835  17.253   4.024  16.326 -0.0762 -0.1478  0.3231
21362W        W37836  15.196  16.726   0.194  0.3798 -0.2039  0.1958
21363W        W37837   1.572  16.480  12.460  0.1165  0.0141 -0.1120
21364W        W37838  15.729  17.474   2.670  0.1427  0.0190  0.0027
21365W        W37839  13.631   6.903  12.078  0.4001  0.0605  0.1816
21366W        W37840   6.024   5.182   0.899  0.2545  0.2170  0.1308
21367W        W37841  11.816  10.525  14.386 -0.1631  0.0115  0.4733
21368W        W37842  12.072  10.178  15.754 -0.0012  0.0050 -0.1824
21369W        W37843   7.952  15.908  15.992 -0.0332 -0.1177 -0.1136
21370W        W37844   5.467   8.137   0.975 -0.1411  0.0577 -0.1141
21371W        W37845   4.434   1.548  16.036 -0.2721  0.0651  0.2392
21372W        W37846  14.882   8.356  15.494 -0.0309  0.0659 -0.0571
21373W        W37847   2.618   9.061   1.821 -0.2591  0.2668  0.1242
21374W        W37848   5.708   8.505   2.831 -0.1577  0.0101  0.2576
21375W        W37849   2.535   6.700   0.139  0.0823 -0.1632  0.1498
21376W        W37850  13.585   4.436  11.036 -0.1866 -0.1159  0.2847
21377W        W37851   3.296  16.408  14.326  0.0996  0.1592 -0.3037
21378W        W37852  13.404  17.286  13.150  0.1283  0.0704  0.1840
21379W        W37853  16.269   5.193   1.209  0.1676 -0.0528  0.1459
21380W        W37854  17.040   0.691   4.315 -0.1842 -0.0061 -0.0334
21381W        W37855  10.491  10.833   1.182  0.0405 -0.0824  0.3730
21382W        W37856   2.922   4.915   5.420 -0.1695  0.1724 -0.0641
21383W        W37857   6.910  16.115   2.383  0.2246 -0.4476  0.0969
21384W        W37858  13.152  18.149   5.459 -0.1589 -0.1657  0.0623
21385W        W37859  11.678  17.433   3.731 -0.3193 -0.0083 -0.0279
21386W        W37860   5.287   7.898  12.500 -0.0973  0.1712  0.2972
21387W        W37861  11.324  12.506  15.943 -0.0999 -0.1533 -0.0055
21388W        W37862   4.891   3.764   3.814  0.2244 -0.0237 -0.3978
21389W        W37863   4.817   1.144   4.785 -0.0929  0.0757 -0.0062
21390W        W37864  10.810  15.361   2.058  0.0873  0.0626 -0.1071
21391W        W37865   4.546  12.596  15.357 -0.4926  0.1105 -0.0764
21392W        W37866   4.914   2.090   0.347  0.0550 -0.1010 -0.0038
21393W        W37867   2.319   7.303   1.308 -0.4320  0.1853 -0.2887
21394W        W37868  16.012   6.810  11.380  0.0018 -0.0266  0.0709
21395W        W37869  11.210   7.069  11.114  0.1690 -0.2291 -0.1313
21396W        W37870  10.135   8.681   0.324  0.1454 -0.0754  0.5391
21397W        W37871   9.946  12.324   2.693 -0.0113  0.0124 -0.3305
21398W        W37872  13.780  11.918  15.566  0.1667 -0.0784 -0.1254
21399W        W37873  10.803   5.237   3.096  0.2489  0.0317 -0.0545
21400W        W37874   9.979   5.441  12.990  0.2283 -0.1235  0.1481
21401W        W37875   7.243   1.038  13.675 -0.0144 -0.0455 -0.2328
21402W        W37876  16.645   1.543  11.719  0.1925 -0.2438  0.3663
21403W        W37877   8.350   0.925   3.012  0.0618  0.2573 -0.2911
21404W        W37878   4.487  18.104   2.487 -0.0743  0.0746  0.1450
21405W        W37879  16.111  15.525  12.390  0.0853  0.0942  0.2710
21406W        W37880   8.807  16.624   1.404  0.3038  0.0352 -0.0123
21407W        W37881  14.258   2.264  11.500  0.2142  0.2088  0.0787
21408W        W37882  10.913  12.028  14.261 -0.1450 -0.0077  0.3080
21409W        W37883   1.635   9.431   5.821 -0.1398 -0.0409  0.3037
21410W        W37884  14.611  14.051  11.389 -0.4486  0.2732  0.1304
21411W        W37885   8.974   7.052  13.383 -0.1854  0.0386  0.1060
21412W        W37886  16.125   7.686   3.001 -0.3257  0.2720  0.3049
21413W        W37887  17.635   9.175   0.420  0.3412  0.0915  0.0488
21414W        W37888  14.661  17.480  15.239 -0.0549  0.2947  0.1725
21415W        W37889  13.623   0.237  11.749 -0.1560 -0.3981 -0.4140
21416W        W37890   9.203  10.288  13.802  0.1220 -0.0945  0.2207
21417W        W37891  12.688  18.248  11.949  0.3670 -0.2571 -0.3698
21418W        W37892   2.235  12.837  13.484  0.1058 -0.1235 -0.0545
21419W        W37893   5.047   6.634   0.700 -0.1127  0.1988  0.0701
21420W        W37894  17.533   7.998  10.693 -0.0671  0.0824 -0.1256
21421W        W37895   6.832   8.221   3.861 -0.0180  0.1953 -0.0777
21422W        W37896  15.552   3.960   2.848 -0.2017  0.0873 -0.0600
21423W        W37897  11.891  15.035  11.713 -0.0810  0.1964  0.3472
21424W        W37898  11.049   8.544   0.707 -0.0670  0.2035  0.0489
21425W        W37899   6.596  12.895  16.018 -0.2316  0.1310  0.0756
21426W        W37900   6.756  13.909   1.133 -0.1549  0.1413 -0.3365
21427W        W37901   0.238   9.300  16.247 -0.1906  0.0251  0.2357
21428W        W37902   0.191  17.920   5.321 -0.1638 -0.1132 -0.1483
21429W        W37903   9.335   1.800   4.428  0.1290  0.0019 -0.0071
21430W        W37904   9.871  15.334   0.988  0.0325  0.3096 -0.0397
21431W        W37905   6.266   2.252  15.297 -0.4712  0.0115 -0.1131
21432W        W37906  15.720   9.613   0.692  0.0009 -0.0105  0.1200
21433W        W37907  12.640  12.871  14.792 -0.0717  0.0185  0.0778
21434W        W37908  16.286   7.413  12.510 -0.1374  0.1412 -0.0147
21435W        W37909  15.338   9.487  15.944  0.1489 -0.0049  0.1419
21436W        W37910  15.866   2.246  11.206  0.2318 -0.1419 -0.0367
21437W        W37911   3.611  14.734   3.171 -0.0847 -0.0727 -0.2098
21438W        W37912   6.960   5.542   0.029  0.2192  0.2027  0.1163
21439W        W37913   0.331  13.774  15.959 -0.3395 -0.0255 -0.1903
21440W        W37914   5.525  16.813   6.467 -0.0083  0.0785  0.0989
21441W        W37915   2.037  15.319   4.540  0.0532 -0.1944 -0.2000
21442W        W37916   0.930   4.065  14.642 -0.0522  0.0332 -0.1268
21443W        W37917   8.999  14.127   0.223 -0.0102 -0.0785 -0.0165
21444W        W37918   9.388   6.650   1.984  0.1658 -0.0477  0.0347
21445W        W37919  15.727  15.786  13.485  0.0841  0.0910  0.1227
21446W        W37920   4.973  17.773  14.383 -0.1311  0.2517 -0.1422
21447W        W37921   3.221  16.827  13.578 -0.1031 -0.1789  0.2659
21448W        W37922  15.096  16.437  14.568  0.1274 -0.1932  0.2545
21449W        W37923  11.263  13.550   2.408  0.0960  0.3967  0.3693
21450W        W37924   0.825   7.767  13.458 -0.0044 -0.4444  0.0789
21451W        W37925   8.937  17.293   2.664 -0.0036 -0.0117 -0.1858
21452W        W37926  12.623  13.433  12.666 -0.0965 -0.2144 -0.0484
21453W        W37927   9.851  16.352  12.136 -0.1207  0.0803  0.1171
21454W        W37928   9.342  11.500  13.089 -0.1697 -0.2116  0.0336
21455W        W37929  17.907  13.866  14.659  0.1395 -0.1221 -0.2539
21456W        W37930   2.011  13.490   5.481 -0.0439  0.3204  0.1675
21457W        W37931  15.867  10.573  14.801 -0.1156  0.1094 -0.1500
21458W        W37932  10.328  16.484   3.832 -0.2695 -0.0990 -0.1771
21459W        W37933   9.574  12.652   1.440 -0.0868  0.1161  0.0762
21460W        W37934   7.892   6.193  12.240 -0.2979  0.2866 -0.1147
21461W        W37935   7.725  14.736  11.533 -0.2160 -0.1995 -0.3206
21462W        W37936   4.879  17.153  13.008  0.1291  0.0418 -0.0634
21463W        W37937   1.580   9.402  14.023 -0.4167  0.3752 -0.0924
21464W        W37938   7.277   3.694  14.983 -0.0888  0.1078  0.4101
21465W        W37939   7.175  10.953   4.051 -0.1081 -0.1118 -0.2230
21466W        W37940   9.198   9.516  13.168  0.0155 -0.0854 -0.0715
21467W        W37941   8.416  15.834  11.122  0.1396 -0.1179 -0.1153
21468W        W37942  16.650  17.433  15.080  0.1322 -0.1631  0.1574
21469W        W37943  15.028   4.374   0.585 -0.1826 -0.2103 -0.0391
21470W        W37944  17.989   1.675  11.930  0.1142 -0.1550  0.0416
21471W        W37945  18.334   3.396  14.610  0.1604 -0.2329  0.0790
21472W        W37946   7.858  11.033   2.908 -0.1073  0.0050 -0.2231
21473W        W37947   0.282  16.876  16.125 -0.0816 -0.1931 -0.0329
21474W        W37948  12.929  13.287  14.716  0.0715  0.2413 -0.0365
21475W        W37949  15.595   2.769  14.843  0.0180 -0.2543 -0.1154
21476W        W37950   3.662   0.747  15.048  0.0611  0.0642  0.1140
21477W        W37951  13.493  12.462   2.971  0.2608 -0.0185  0.4158
21478W        W37952   0.350  12.958   4.274  0.3483 -0.0046 -0.1402
21479W        W37953  18.288   5.581   0.302 -0.2498  0.0217 -0.0086
21480W        W37954   8.547   3.590   3.027 -0.1716  0.1570 -0.1365
21481W        W37955  17.893  12.639  11.356 -0.0608 -0.2015 -0.1450
21482W        W37956  14.892  14.277  15.380 -0.3552  0.1823 -0.0452
21483W        W37957  17.573  16.749  10.738 -0.0202 -0.2369  0.2181
21484W        W37958   2.434   4.930  15.128  0.2228  0.0283  0.1017
21485W        W37959   2.162   1.806  15.944 -0.0857  0.2807 -0.2235
21486W        W37960   1.681   2.963   0.994  0.2121  0.1492 -0.1575
21487W        W37961  11.830  12.203   4.056  0.1168  0.4230 -0.0534
21488W        W37962  13.117   3.973  13.553  0.2660  0.1457 -0.1700
21489W        W37963   5.770   2.223  15.513  0.0209  0.0608 -0.3177
21490W        W37964   1.413  12.351   2.922  0.3551 -0.0430 -0.0660
21491W        W37965   7.252  11.627  14.482 -0.1137  0.2003 -0.0305
21492W        W37966  15.225  17.604   2.474 -0.2754 -0.1349  0.3966
21493W        W37967  12.061   9.586   5.071 -0.0175 -0.2337  0.1682
21494W        W37968   5.359  10.599   5.630 -0.1786  0.0617  0.1309
21495W        W37969  18.039   1.077  12.588 -0.2355  0.4609  0.2964
21496W        W37970   2.932  15.301  12.078  0.0044  0.0291  0.2929
21497W        W37971   9.888  13.288   4.844  0.1417  0.0515 -0.0996
21498W        W37972  16.746   8.753   5.252 -0.0486 -0.0748 -0.3035
21499W        W37973  17.898   6.051   2.786  0.1098 -0.1655 -0.2872
21500W        W37974   8.359   3.594  11.316  0.1203  0.1546 -0.1372
21501W        W37975  14.299   8.821  14.962  0.0795  0.0535  0.1650
21502W        W37976  16.477   2.363   3.536 -0.3527 -0.1991 -0.2177
21503W        W37977  12.294  10.376   0.869 -0.3461  0.0313  0.0459
21504W        W37978   7.891  10.381  15.410 -0.2703  0.1042  0.0219
21505W        W37979   3.430   2.916   2.973 -0.0981  0.1193 -0.0735
21506W        W37980  16.468  11.077   4.250  0.2330 -0.1165  0.0446
21507W        W37981   2.477   3.121  13.646 -0.0090  0.0529 -0.0032
21508W        W37982  11.751  15.784   0.226 -0.0209  0.0019 -0.1963
21509W        W37983  16.949   8.895   3.517  0.2889  0.0129  0.0246
21510W        W37984   5.547   4.986   0.254 -0.2223 -0.2518  0.0146
21511W        W37985   0.375  10.941  13.377  0.1342 -0.1632 -0.2302
21512W        W37986  11.809   2.587  15.558  0.2613 -0.1262  0.0566
21513W        W37987   7.119  16.778  13.176 -0.0255  0.2355 -0.0272
21514W        W37988  15.470   9.047  12.673 -0.0890 -0.0463  0.1084
21515W        W37989  11.882  15.515   6.211  0.0452  0.0205  0.1513
21516W        W37990  17.248   2.346   5.106  0.0441  0.1027 -0.0192
21517W        W37991  17.636  12.187  13.011  0.0642 -0.2417  0.2106
21518W        W37992  11.392   4.944   3.444 -0.1646 -0.0672 -0.1190
21519W        W37993  11.125   9.203  15.560  0.0018 -0.0167  0.0538
21520W        W37994   5.304   5.861   2.879  0.1545  0.1740 -0.1388
21521W        W37995   3.594   5.469  14.157  0.2714  0.2666  0.1736
21522W        W37996   3.030  16.678  12.667 -0.2607 -0.1596 -0.0988
21523W        W37997   7.333  16.431  11.655 -0.3107  0.0671 -0.0264
21524W        W37998   6.449   8.653   4.058  0.0060 -0.0144 -0.1917
21525W        W37999  11.179   6.517   2.143 -0.0291  0.0776 -0.0938
21526W        W38000   6.500   6.065  15.158  0.0788 -0.1769 -0.0555
21527W        W38001   8.875   4.467   1.613 -0.0432 -0.0056  0.1348
21528W        W38002   0.581   9.024  12.266 -0.0425  0.3442  0.1464
21529W        W38003   4.000  13.084   3.741 -0.0120 -0.2116 -0.3185
21530W        W38004   3.769  12.278   2.343 -0.0191 -0.0489  0.0421
21531W        W38005  15.674   1.488   2.516  0.2084 -0.2016  0.4584
21532W        W38006   7.391  18.380  14.150 -0.0714 -0.2131  0.0849
21533W        W38007   6.950   4.348  13.908 -0.2196  0.2751  0.0741
21534W        W38008   3.914  14.094   3.054  0.2964 -0.0301  0.1819
21535W        W38009  16.919  11.200   2.149  0.1977  0.1071 -0.3636
21536W        W38010  16.259   9.504   4.075 -0.3172 -0.2766 -0.0764
21537W        W38011   8.294  14.466  13.232  0.0505 -0.0626 -0.1293
21538W        W38012  17.961  12.481   4.867  0.0310 -0.2071  0.0199
21539W        W38013   6.739   2.721   2.997  0.3294  0.1986  0.2516
21540W        W38014   8.725  18.112  12.325 -0.1381 -0.0950 -0.0930
21541W        W38015  14.487  18.287   4.404 -0.0958 -0.1854  0.2938
21542W        W38016   5.640   2.024   5.509  0.1510 -0.0180 -0.0277
21543W        W38017  10.724   1.296   3.614 -0.0561 -0.0109  0.3175
21544W        W38018   7.483   2.899   3.418 -0.0973 -0.0911  0.2367
21545W        W38019  15.129  10.868   2.797 -0.0678  0.2527 -0.0622
21546W        W38020   5.950   0.996   3.970  0.0611  0.1903  0.2694
21547W        W38021   1.017  10.838  16.027 -0.0712 -0.0836  0.1703
21548W        W38022   3.758  10.056   2.854  0.3055  0.0773  0.2865
21549W        W38023   3.731   7.131  13.269 -0.4039 -0.2779  0.1414
21550W        W38024  12.416   3.567   0.161  0.1813 -0.1927  0.1092
21551W        W38025  11.752  13.047  12.159  0.3011 -0.1473 -0.1913
21552W        W38026   0.066   8.848  15.608  0.1824  0.2475 -0.4666
21553W        W38027   4.397   5.172   4.155 -0.0474 -0.0427  0.2376
21554W        W38028   3.667   3.357  14.709  0.2847  0.0347 -0.0709
21555W        W38029   0.918  16.582  14.749  0.1549  0.1294  0.2094
21556W        W38030  14.830  17.834   2.964  0.0289 -0.1265 -0.1952
21557W        W38031  12.637   8.287  15.514 -0.3075  0.2127  0.2054
21558W        W38032  11.192   1.910   5.121  0.0207 -0.0132  0.1944
21559W        W38033   9.016   8.416   4.540 -0.1305  0.1794 -0.0575
21560W        W38034   9.394   3.711   2.035  0.2625  0.0919 -0.1731
21561W        W38035  10.615   7.662   1.628 -0.1016  0.1519 -0.1752
21562W        W38036  18.022   9.642  16.177  0.3400  0.0649  0.4192
21563W        W38037  15.412  17.791   1.417  0.3527  0.0570  0.0973
21564W        W38038   1.157   6.286   0.403  0.2997 -0.1578 -0.0932
21565W        W38039   1.967   4.855   3.025 -0.0096 -0.0866  0.0927
21566W        W38040  11.428   4.456   1.855 -0.2640  0.3481 -0.0489
21567W        W38041   8.804  11.120   0.136 -0.1265 -0.1231  0.0062
21568W        W38042  17.578   3.932  14.757  0.0185  0.0881 -0.1266
21569W        W38043  12.572  15.049   2.918  0.1842 -0.0293  0.0047
21570W        W38044  12.764  15.981   1.522  0.0244  0.2432  0.1277
21571W        W38045   0.629  11.007   3.204 -0.2598  0.0208  0.1729
21572W        W38046  18.292  14.554   2.726  0.2948  0.1539 -0.1977
21573W        W38047   4.365  10.944   3.027 -0.1360  0.0115  0.3677
21574W        W38048   5.474  15.560  13.064 -0.0223  0.0476  0.0195
21575W        W38049  10.346  15.663   4.565 -0.1048  0.1906  0.1278
21576W        W38050   2.349  11.176  15.325 -0.0591 -0.1433  0.1395
21577W        W38051   0.970  10.207   3.234 -0.2702 -0.2168  0.0743
21578W        W38052   4.430  16.687   2.393 -0.1084 -0.0312  0.0269
21579W        W38053   2.862  12.375   3.808 -0.3585  0.3544 -0.1754
21580W        W38054  10.239   1.502   4.958  0.2465  0.0448  0.0007
21581W        W38055   1.411  16.371   3.577  0.1768 -0.1607  0.1784
21582W        W38056  16.041  17.858  12.068 -0.0185 -0.1365  0.0174
21583W        W38057   3.645  10.903   0.803 -0.1855 -0.0227 -0.4024
21584W        W38058  15.309   5.221   3.563 -0.1059  0.1412  0.2004
21585W        W38059   2.842   9.143   0.664  0.3570 -0.1872 -0.2791
21586W        W38060   0.429   7.039  15.781  0.0435  0.0716  0.4614
21587W        W38061  11.279  15.387   2.359  0.1885 -0.0801 -0.2891
21588W        W38062  17.959   1.556   2.004  0.2698  0.1574  0.2854
21589W        W38063   1.918  17.819  14.739  0.0034  0.2035  0.0550
21590W        W38064   1.196  16.386  13.229  0.0201 -0.2627  0.3514
21591W        W38065  13.526  13.575  11.241 -0.0155 -0.0020  0.0366
21592W        W38066  13.898  15.680   4.238  0.0246 -0.2312  0.0087
21593W        W38067   9.369   5.940   3.743  0.1844  0.2254  0.2724
21594W        W38068  16.107  18.022   4.325 -0.2222 -0.4664 -0.1491
21595W        W38069  12.205  11.547  12.426  0.1802  0.0287  0.0664
21596W        W38070  11.262   4.748   0.917 -0.0209 -0.2378  0.1114
21597W        W38071  14.915  10.634   1.808 -0.2521  0.0191 -0.3472
21598W        W38072   7.794  17.374  14.259  0.3514  0.0540  0.2095
21599W        W38073   9.765   3.788   3.445 -0.1756  0.0211  0.2175
21600W        W38074  16.701   9.344   0.693  0.1793  0.0671 -0.1291
21601W        W38075   3.093   3.928   1.976  0.0085 -0.1192  0.2302
21602W        W38076   4.729   3.483  14.272 -0.1760  0.2147  0.2184
21603W        W38077   7.939  13.777   2.938  0.0149  0.1822  0.0421
21604W        W38078   7.672  13.043   4.012 -0.1627  0.1137 -0.0017
21605W        W38079   6.634  15.507  11.671  0.4131 -0.0323  0.0600
21606W        W38080   0.460   2.463   1.404 -0.1050  0.0532 -0.0486
21607W        W38081   6.827   7.819   3.020  0.3409  0.1660  0.2457
21608W        W38082   4.707   7.227   2.745 -0.0853  0.1029 -0.1872
21609W        W38083   0.886  10.342   5.610  0.0205 -0.1900 -0.2912
21610W        W38084   3.608  16.348  11.476  0.1071  0.0839  0.0524
21611W        W38085   5.750  15.759  14.417  0.1418 -0.1209  0.0629
21612W        W38086  14.023   5.964   3.825 -0.1650  0.2781 -0.0853
21613W        W38087   9.561   4.630   4.216  0.1913 -0.2374 -0.0395
21614W        W38088  17.304  13.752  16.193  0.0749  0.0868 -0.1319
21615W        W38089  16.259   3.821   1.381 -0.4742 -0.1199  0.3327
21616W        W38090  10.162   0.074   4.736 -0.1917 -0.0340  0.3202
21617W        W38091   0.145   7.564   3.409  0.0610  0.2208  0.0654
21618W        W38092  10.396   9.191  14.972  0.1640 -0.0822  0.2773
21619W        W38093   1.882  10.710   2.474  0.0270 -0.1180  0.1357
21620W        W38094  16.560   9.331  14.843 -0.2018 -0.0099  0.1204
21621W        W38095  13.340  10.914   2.754  0.0987  0.4961  0.1680
21622W        W38096  17.543   1.706   4.335 -0.0208 -0.0705  0.1007
21623W        W38097   7.720   0.391   5.427 -0.3020  0.0084  0.1826
21624W        W38098   7.340   5.347   4.804  0.0327 -0.0214  0.2419
21625W        W38099  16.025  14.058   5.187 -0.0932 -0.0523 -0.0349
21626W        W38100   4.686  18.253  16.263  0.0577 -0.2440 -0.2105
21627W        W38101  14.885  12.847  14.901  0.0332  0.3103 -0.0555
21628W        W38102  14.696   3.068   3.034  0.1256 -0.0207 -0.1152
21629W        W38103  17.542   6.764  14.205 -0.0716 -0.1720  0.0014
21630W        W38104   5.279  15.048  12.448 -0.0071  0.0492 -0.0135
21631W        W38105   9.066  11.060  14.481 -0.4996 -0.1142  0.1765
21632W        W38106   5.478  13.442  16.018  0.1602 -0.2803 -0.1113
21633W        W38107   7.487  16.461   5.360 -0.0412 -0.2345  0.1710
21634W        W38108  13.856  15.510  13.034  0.1361 -0.0686 -0.0327
21635W        W38109   7.932   5.860  11.875 -0.0407 -0.2238 -0.3622
21636W        W38110  11.162  11.133   1.060  0.0855  0.0035  0.1361
21637W        W38111   7.408   0.972   2.280  0.0628 -0.1980 -0.1385
21638W        W38112  15.110   4.231   0.099 -0.1378  0.2447 -0.2482
21639W        W38113  10.120   8.004   4.830  0.1332  0.2606 -0.1914
21640W        W38114   2.511   5.759  14.662  0.0692  0.3150  0.3478
21641W        W38115  12.093   9.685  12.353  0.0062  0.0152  0.4203
21642W        W38116   1.757  15.663   1.100 -0.2213  0.1338 -0.1501
21643W        W38117   9.239  11.009   0.559  0.1769 -0.2920  0.2454
21644W        W38118  11.548  14.159   1.303 -0.1663  0.2994 -0.2480
21645W        W38119   7.828  16.485  11.464 -0.1592  0.1361  0.1336
21646W        W38120   1.143   6.894   2.274  0.1330 -0.1376  0.1626
21647W        W38121  10.404   9.202  16.016 -0.1584  0.3713 -0.1202
21648W        W38122  12.429   4.647  13.735 -0.1905  0.2514  0.1936
21649W        W38123  10.930  10.841   1.456  0.0694  0.0529 -0.0521
21650W        W38124   7.662   9.506  13.648 -0.0081 -0.1220 -0.3894
21651W        W38125  16.944  14.141  12.419 -0.1023 -0.2012  0.1953
21652W        W38126   7.889   5.585  14.279 -0.1199 -0.0332  0.1150
21653W        W38127  10.191   2.257  11.696  0.1817 -0.1956  0.0247
21654W        W38128  14.065   4.075   4.648  0.0755 -0.0834 -0.3393
21655W        W38129   2.516  11.626   3.827  0.3816 -0.1114 -0.0862
21656W        W38130  15.390  11.726  15.946 -0.1002 -0.1568  0.0122
21657W        W38131  17.612   5.413   5.078  0.1745 -0.0044  0.0727
21658W        W38132  18.109   0.279   4.799  0.3212  0.3323 -0.2354
21659W        W38133   2.576   5.421  12.063  0.0960 -0.1437  0.2183
21660W        W38134   9.001  16.429  12.127  0.0585  0.0971  0.1365
21661W        W38135   3.463  11.002   2.832 -0.0738 -0.1991  0.1150
21662W        W38136  10.388   4.900  12.069  0.1678  0.0254  0.1966
21663W        W38137  13.599  16.116  11.677 -0.1019  0.2777  0.3601
21664W        W38138  10.322  17.539   1.908  0.0659 -0.1634  0.3470
21665W        W38139   3.511  15.338   0.631  0.1046 -0.2797  0.1346
21666W        W38140  17.960   8.230   0.818 -0.2286 -0.0633  0.1586
21667W        W38141   6.599  12.686  14.108  0.0270  0.1007  0.1269
21668W        W38142  12.657  14.121   2.366  0.1716  0.0493 -0.2513
21669W        W38143   5.361   2.233  14.398  0.1161 -0.0599  0.3930
21670W        W38144   5.425  14.771  15.562 -0.3154 -0.1281  0.1852
21671W        W38145   3.933   5.600  15.049 -0.0549 -0.3316  0.3523
21672W        W38146  16.669   1.218  15.723 -0.1794 -0.1585 -0.1446
21673W        W38147   9.827   0.719  13.600  0.0664 -0.2763 -0.1726
21674W        W38148   4.191  11.772  11.848  0.2343  0.0821 -0.0092
21675W        W38149  17.328   3.479  13.015  0.1431 -0.0428 -0.2779
21676W        W38150  10.092  16.460  15.922  0.0072 -0.3282 -0.0915
21677W        W38151   0.215   3.340  15.666 -0.0885  0.0193 -0.3836
21678W        W38152   8.022   6.958  11.528 -0.1767 -0.0299  0.1588
21679W        W38153   8.633   3.934   3.432 -0.3208 -0.1085  0.1675
21680W        W38154   0.617  16.429  13.685  0.0766 -0.0848  0.2502
21681W        W38155   4.711  16.434   0.194  0.2224  0.2558 -0.1993
21682W        W38156   7.585   8.605   2.551 -0.1267 -0.0361 -0.2049
21683W        W38157  16.149   4.546  13.941  0.1231 -0.0098 -0.2358
21684W        W38158   6.494   7.933   0.158 -0.0126 -0.1845  0.0475
21685W        W38159   4.043   7.277   2.552  0.0353  0.0197  0.0077
21686W        W38160   6.324  18.368  13.649 -0.1209 -0.1790  0.0329
21687W        W38161  14.403   1.576  14.874  0.0787 -0.1195  0.1307
21688W        W38162  14.147   7.137   2.465  0.0021 -0.1424 -0.1688
21689W        W38163   3.907   2.340   3.454  0.1738  0.0697  0.0593
21690W        W38164   7.636  10.158  13.956  0.1257  0.0666 -0.0065
21691W        W38165   2.199   8.238   3.748 -0.0530 -0.2027  0.2672
21692W        W38166   5.011   9.340  12.047  0.1038 -0.2852 -0.1493
21693W        W38167  11.579   6.038  14.045  0.3233  0.0409  0.0773
21694W        W38168   8.492  17.661  14.661 -0.0854 -0.0883  0.0387
21695W        W38169   4.556  14.565   5.656  0.0373  0.0524  0.0171
21696W        W38170   1.993  16.304   2.594  0.1933  0.2223 -0.1308
21697W        W38171   2.096   3.461   5.703 -0.1319 -0.0965  0.0098
21698W        W38172   2.828  16.895  15.745 -0.2707 -0.0376 -0.0146
21699W        W38173   0.083   9.261   0.936  0.0426 -0.1014  0.0614
21700W        W38174  16.160   5.663   1.268  0.0018 -0.0005 -0.1002
21701W        W38175   5.402  15.085   2.819 -0.2090  0.3721  0.0430
21702W        W38176  17.853   5.740  15.126 -0.0550  0.2078  0.0363
21703W        W38177  15.886  13.240  12.488  0.1295  0.2422 -0.0282
21704W        W38178   6.442   0.305   2.250  0.0324  0.2447  0.0632
21705W        W38179   3.403  11.863   5.695 -0.0304 -0.1289 -0.0846
21706W        W38180   0.929   5.391   2.582 -0.1415 -0.3169 -0.2966
21707W        W38181  16.613  17.581  14.006  0.0156 -0.3523  0.1354
21708W        W38182  15.644  11.811  15.451  0.0751  0.3700  0.0033
21709W        W38183  10.722   2.396  15.151  0.0535  0.1908 -0.1644
21710W        W38184   1.940   4.697  12.427  0.0630 -0.1296 -0.0284
21711W        W38185  11.446   1.089  11.705 -0.2716 -0.3840  0.2448
21712W        W38186  14.705  13.623  15.000 -0.0781  0.0599  0.0454
21713W        W38187   6.374   1.234   5.819  0.1390 -0.1056 -0.1095
21714W        W38188   0.065  11.987   2.140  0.2168  0.0812 -0.3139
21715W        W38189   2.582  17.735   1.864  0.0611 -0.4007 -0.0291
21716W        W38190   9.425  16.780   2.714 -0.0291  0.0445  0.3539
21717W        W38191  18.233  17.915   1.869  0.0873  0.3451 -0.0076
21718W        W38192   4.233   1.810   5.134  0.1415 -0.0334 -0.1030
21719W        W38193   8.797  15.417  13.797 -0.2013  0.0956  0.0044
21720W        W38194   1.307  13.281  11.968 -0.1122 -0.3037 -0.2778
21721W        W38195   6.031   3.527   5.575  0.1086  0.2626 -0.1000
21722W        W38196  17.862  16.993  12.644  0.0264 -0.0945 -0.2053
21723W        W38197   5.618   7.180   3.122 -0.2370 -0.1565 -0.2121
21724W        W38198   3.581  10.403  15.052  0.3855  0.2844  0.1493
21725W        W38199   5.611   1.886  13.686 -0.0003  0.1874  0.0063
21726W        W38200   0.701   1.392  16.288 -0.1284 -0.1280  0.0086
21727W        W38201   5.163  16.632   1.920  0.1069  0.0503  0.1140
21728W        W38202   7.579   1.767   4.418  0.0179 -0.3228  0.1177
21729W        W38203   6.664   6.334  11.720 -0.0666  0.2661 -0.2183
21730W        W38204   8.473  13.531  13.189 -0.2911 -0.0410 -0.3945
21731W        W38205   1.513  16.143   1.206 -0.1742  0.0722  0.1871
21732W        W38206   1.295  10.274  14.649  0.3183  0.2419  0.0848
21733W        W38207   8.526  14.080  11.188  0.3330 -0.1544  0.0520
21734W        W38208  13.914   1.928   2.008  0.0938 -0.3521 -0.2079
21735W        W38209  13.052   5.726  16.126  0.0680  0.2050 -0.1853
21736W        W38210   7.785   6.472   3.537  0.0571  0.1198 -0.0318
21737W        W38211  17.480  17.948  15.322 -0.0175 -0.3004  0.1487
21738W        W38212   2.500  14.032  13.713  0.1252  0.1425  0.0383
21739W        W38213   9.234   0.155  13.625  0.0938 -0.0571  0.3975
21740W        W38214   8.165   1.282   0.886  0.1033  0.1169  0.0201
21741W        W38215  14.523   6.823  10.205  0.1671  0.1138  0.0201
21742W        W38216  10.926   2.406  11.013  0.0845 -0.0899  0.0452
21743W        W38217  11.552   3.012   4.803  0.3719 -0.0906 -0.3740
21744W        W38218   1.870   7.913   3.290 -0.1303  0.1828  0.0954
21745W        W38219  14.488   9.571   4.380  0.1337 -0.0175 -0.0197
21746W        W38220   6.703  13.787  14.702  0.0372 -0.1946 -0.0175
21747W        W38221   1.490  11.143  14.246  0.1466 -0.2168  0.2899
21748W        W38222   5.361   5.185   3.950  0.0851 -0.1683 -0.3209
21749W        W38223   0.692  15.376   2.242  0.1227  0.2311  0.0517
21750W        W38224  13.643   2.132   4.625 -0.0487  0.0148 -0.2105
21751W        W38225   8.821  16.457  13.790  0.2436 -0.1703  0.0834
21752W        W38226   9.666  16.227  14.781 -0.2090  0.0497  0.2645
21753W        W38227   0.748   3.982  11.937  0.1991 -0.1669 -0.0059
21754W        W38228   4.870  16.570   1.452 -0.2137 -0.2564 -0.2279
21755W        W38229   1.761  11.036   4.236 -0.2951 -0.1105 -0.2252
21756W        W38230   0.117  13.759   1.088  0.0128 -0.1629  0.2666
21757W        W38231  12.721  11.842   4.157  0.1408 -0.1841 -0.0275
21758W        W38232   5.643  18.357   0.111 -0.2561  0.0020  0.0029
21759W        W38233  16.390   6.567   1.630  0.0291 -0.3502  0.0496
21760W        W38234   6.221  10.590  14.195  0.3468 -0.3292  0.1667
21761W        W38235   0.074   1.643  15.053 -0.0647  0.1362 -0.0996
21762W        W38236   0.772   4.243  11.032  0.0250 -0.2831 -0.3652
21763W        W38237   1.144   5.236  15.276  0.1575  0.1707 -0.0690
21764W        W38238   6.534  10.537   2.383 -0.3206  0.1061  0.2467
21765W        W38239   4.901   7.539  11.909  0.3143 -0.0359  0.2539
21766W        W38240  14.334   5.638   1.222  0.0855  0.0166 -0.1756
21767W        W38241  12.641   0.387  12.065  0.0237 -0.3387  0.1328
21768W        W38242  15.798   5.318  12.143  0.0276 -0.1693  0.2574
21769W        W38243  17.087   3.716  15.334 -0.2057  0.2153  0.0661
21770W        W38244  12.857   4.150  14.885 -0.1596  0.3829  0.0533
21771W        W38245  12.180  11.160  11.273 -0.2526  0.5027 -0.3130
21772W        W38246  15.279  12.091   3.290 -0.1086  0.1663  0.1770
21773W        W38247  12.220   2.928   3.040 -0.1888 -0.2786 -0.3307
21774W        W38248   8.241  15.731   3.582 -0.0081 -0.0035  0.0694
21775W        W38249  16.873   9.451  15.627  0.1968 -0.1191 -0.3367
21776W        W38250  10.553  17.197   3.780 -0.1011  0.2723 -0.2615
21777W        W38251   2.837   9.587  15.357  0.0182  0.0185 -0.2385
21778W        W38252  15.813   7.484   5.111 -0.0915  0.0786  0.1466
21779W        W38253  15.046  16.636   2.157 -0.0534  0.1138  0.0145
21780W        W38254   4.841   1.271   2.393 -0.0038 -0.0068 -0.5289
21781W        W38255   6.458   0.582   2.682  0.2246  0.1939  0.0573
21782W        W38256   2.997   8.506  15.840  0.1090 -0.0290 -0.3103
21783W        W38257   1.575  11.652   3.631 -0.0128 -0.2545 -0.1678
21784W        W38258  16.281   6.239  13.604  0.0753  0.1814  0.1921
21785W        W38259  13.361  11.518  14.225  0.4341 -0.0573  0.0366
21786W        W38260  17.053   2.893  14.170 -0.1536  0.2436 -0.2992
21787W        W38261  15.476  14.239   0.295  0.0815  0.2280 -0.1983
21788W        W38262  11.955   8.839   4.365  0.2807 -0.1707  0.1707
21789W        W38263   3.397  18.355  14.430 -0.0830  0.0351 -0.1903
21790W        W38264   4.074  11.950   2.536  0.0039  0.1025 -0.0281
21791W        W38265  12.738  13.756  14.942 -0.0747 -0.4912 -0.2387
21792W        W38266  10.530   7.611   0.793 -0.0301 -0.1756 -0.2618
21793W        W38267  11.517  13.388   4.206 -0.1466  0.0519 -0.0952
21794W        W38268  15.717   0.627  15.312 -0.1064  0.3270 -0.0947
21795W        W38269  12.497  15.931   2.884 -0.4858 -0.0839  0.0467
21796W        W38270  11.869  17.930   5.419 -0.0041 -0.0877  0.1840
21797W        W38271  12.300   7.336   2.166  0.3909  0.0291 -0.2376
21798W        W38272  10.157   5.868   2.227 -0.0319 -0.0585  0.1025
21799W        W38273  12.203  15.829  12.108 -0.0652 -0.2462 -0.0971
21800W        W38274  17.622   2.411  11.974  0.1587  0.0940  0.2828
21801W        W38275   0.604   6.390  15.287  0.2354  0.1785  0.0947
21802W        W38276   3.808  15.324   1.290 -0.0063 -0.0458  0.4559
21803W        W38277   8.531   6.992   0.863 -0.0000 -0.1921  0.0101
21804W        W38278   7.932   0.616  12.069  0.3054  0.0146 -0.0563
21805W        W38279  18.285   4.508  13.832 -0.2195  0.1081 -0.1477
21806W        W38280  17.093  16.248   0.724  0.1232 -0.0473 -0.0283
21807W        W38281   4.875   4.112  12.922  0.0770  0.1200  0.2705
21808W        W38282  12.401   4.223   1.813 -0.1601  0.1572  0.1664
21809W        W38283   0.929  13.688   4.631  0.1627 -0.1691  0.5037
21810W        W38284  18.223   7.448  11.530 -0.3483  0.2183  0.0527
21811W        W38285   6.417  12.027   1.021 -0.1133  0.0102  0.1589
21812W        W38286  14.550   3.026   2.522 -0.0027 -0.2767  0.1097
21813W        W38287  17.746  17.147   5.848 -0.0384  0.0940 -0.0193
21814W        W38288  14.308  11.835  12.895 -0.0048 -0.2167  0.0790
21815W        W38289   5.561  13.895  12.174 -0.1734  0.0840  0.1810
21816W        W38290   6.001  13.115   4.026 -0.0842 -0.0792 -0.3029
21817W        W38291   9.704  10.868  11.867 -0.2641 -0.1752  0.1796
21818W        W38292   2.264   2.084   1.360 -0.1616 -0.4141  0.1638
21819W        W38293   5.420  18.224  15.557  0.0929 -0.1345 -0.1466
21820W        W38294  12.390  17.163   2.523  0.0957  0.2396 -0.2080
21821W        W38295  17.624  13.385   3.201 -0.2808  0.2007  0.1161
21822W        W38296   5.890  18.160   2.888 -0.1296 -0.3883 -0.2087
21823W        W38297  13.448   8.107   4.461 -0.0046  0.1785 -0.2232
21824W        W38298   1.327  10.528  11.311 -0.0202  0.3258  0.1091
21825W        W38299   1.764  13.657   3.166  0.1936 -0.1260 -0.0653
21826W        W38300   1.463  14.567  12.508  0.2140  0.3022  0.0561
21827W        W38301   1.955  16.372   5.114  0.2391 -0.1455 -0.1862
21828W        W38302   8.825  14.362   4.724 -0.1729 -0.0147  0.2254
21829W        W38303   3.064  15.212   0.390  0.0832  0.1241 -0.2722
21830W        W38304  16.013  17.928   5.832 -0.2276  0.0579 -0.0269
21831W        W38305   4.166   4.439  11.526 -0.0816  0.4110  0.1875
21832W        W38306   3.182   3.315   3.223 -0.0854 -0.1079 -0.2643
21833W        W38307  15.691  17.069   4.065 -0.0550  0.0282 -0.0863
21834W        W38308  10.808   8.279  14.864 -0.0781  0.0131  0.1252
21835W        W38309   8.131   4.373  12.584 -0.0083  0.2188 -0.2060
21836W        W38310  10.036   2.491   4.559 -0.0562  0.1714  0.3574
21837W        W38311  13.487  10.893  14.732 -0.1932 -0.1806 -0.3489
21838W        W38312  13.616  18.320  12.165  0.1108 -0.0903 -0.1372
21839W        W38313   5.701   7.237   1.522 -0.0592  0.1390 -0.0605
21840W        W38314  15.277   2.042   2.753  0.2091 -0.0023 -0.1736
21841W        W38315   3.695  11.734   3.440 -0.0288 -0.1429  0.2576
21842W        W38316   3.966   3.035   2.643  0.2451  0.0485  0.0372
21843W        W38317   0.451   4.202  13.050  0.1599  0.4081  0.1028
21844W        W38318  17.949  13.859  13.846  0.1682  0.1595 -0.1592
21845W        W38319   3.667  13.939   0.745 -0.1085 -0.0156  0.0079
21846W        W38320  16.126  17.333   3.910 -0.0048  0.1875  0.0565
21847W        W38321   2.224   1.624  14.373  0.0579  0.3309  0.1951
21848W        W38322  16.174   4.361   9.782  0.2853 -0.1290 -0.0452
21849W        W38323  12.644  13.830  16.324 -0.0209  0.0251 -0.3036
21850W        W38324   6.989   0.720   2.163 -0.1662 -0.1104  0.1274
21851W        W38325  12.703   0.340   2.855  0.2349 -0.0680  0.0005
21852W        W38326  12.133   5.002  16.134  0.0120 -0.0766 -0.4436
21853W        W38327   8.991   1.695   4.855  0.4331 -0.0790  0.2317
21854W        W38328   3.979  17.459   3.472 -0.1911 -0.1032 -0.0987
21855W        W38329  16.814  12.895  13.223  0.0141  0.2508 -0.1471
21856W        W38330   4.239  15.856  12.769 -0.0184  0.0781 -0.0969
21857W        W38331   7.836  15.297   6.530 -0.0279  0.1284 -0.2875
21858W        W38332   3.901  16.915   6.489  0.1033 -0.0415 -0.0506
21859W        W38333   8.149   7.204   0.411  0.2318  0.0572  0.1869
21860W        W38334   6.236   6.342   0.043 -0.1548 -0.2937  0.1624
21861W        W38335   2.644  15.824   3.344 -0.2099  0.0892 -0.0201
21862W        W38336  11.450   6.665  11.311  0.1261 -0.0539 -0.2440
21863W        W38337   1.805  18.276  16.327 -0.0219 -0.0221 -0.4048
21864W        W38338  17.703   6.996   4.371  0.0310  0.1609  0.1366
21865W        W38339  17.175  15.811   0.477  0.1349 -0.0429  0.0399
21866W        W38340  14.912   7.215  12.796 -0.0862 -0.1448  0.1067
21867W        W38341   3.829  16.024  12.658  0.0832  0.0974 -0.0974
21868W        W38342   0.561   9.996   1.247 -0.1590  0.0176 -0.3363
21869W        W38343  18.021  12.515  12.732 -0.4901  0.1729  0.1861
21870W        W38344  13.553   2.464  13.996 -0.1807  0.4218  0.2048
21871W        W38345  13.017  17.697  11.579 -0.0283  0.1495  0.0047
21872W        W38346  17.183  17.675  13.991  0.0123 -0.0984  0.1006
21873W        W38347  13.715   0.473  13.093 -0.0957  0.1653 -0.0226
21874W        W38348  10.337   5.329  12.666  0.3029  0.0972 -0.0047
21875W        W38349  18.095  10.060  12.417 -0.0803  0.1359 -0.2398
21876W        W38350   3.992  16.912   1.925  0.1475 -0.0440 -0.1784
21877W        W38351  13.966   2.361   0.549  0.1165  0.1184  0.1894
21878W        W38352   1.143  12.226  11.831  0.1957  0.1123  0.3156
21879W        W38353   4.247  17.250   2.191  0.2008  0.0268  0.2630
21880W        W38354  17.160   5.192  13.335 -0.2418 -0.3413  0.1856
21881W        W38355  10.863  17.488  11.665 -0.3368 -0.2011  0.2172
21882W        W38356   0.464   3.027  15.371 -0.1264  0.2153 -0.0847
21883W        W38357   3.618   5.024  13.694  0.2273  0.1076  0.1437
21884W        W38358  18.118   2.901   2.618 -0.0791 -0.3625 -0.4219
21885W        W38359   6.854   1.358   0.458 -0.4927  0.0058 -0.1163
21886W        W38360  13.871  10.836  11.050  0.0627  0.0529 -0.0063
21887W        W38361  12.377  10.446  11.417 -0.0243 -0.0887 -0.1968
21888W        W38362  15.533  13.287  14.885 -0.1350  0.1242 -0.4879
21889W        W38363  14.935   4.303  13.693  0.0413 -0.0224 -0.1529
21890W        W38364   6.610  11.356   2.464  0.0624 -0.1017  0.0095
21891W        W38365  16.960  17.819   6.205  0.1088 -0.4055 -0.5105
21892W        W38366   7.937  14.477  14.232 -0.1372  0.2525  0.1051
21893W        W38367  13.358   6.989   2.090  0.0559  0.1643  0.0806
21894W        W38368  18.389  16.655   2.953 -0.0250  0.0507  0.2025
21895W        W38369   1.168  13.700  10.449 -0.0707  0.1454 -0.2499
21896W        W38370   2.309   5.931  15.872 -0.0339  0.1502  0.1519
21897W        W38371   2.471  16.705  12.492  0.1089 -0.0510 -0.0059
21898W        W38372  13.041   0.918   3.581  0.2859  0.0912  0.0147
21899W        W38373  13.901   9.397   3.744  0.2948  0.0508  0.0575
21900W        W38374  15.754  10.238   4.898  0.0295 -0.2885 -0.1588
21901W        W38375  12.036  17.720   0.753  0.1609  0.3181  0.1524
21902W        W38376  17.120  10.058  11.138  0.0128 -0.0980 -0.2730
21903W        W38377   1.173  15.151   0.653  0.0188 -0.2107 -0.1019
21904W        W38378  15.047  11.000   0.268 -0.0231  0.0814 -0.2829
21905W        W38379   3.256  13.477   2.022  0.0624  0.2111 -0.1341
21906W        W38380   6.542   6.874  11.049 -0.0322 -0.2824 -0.0845
21907W        W38381  16.921   8.766   1.375  0.0740 -0.1059 -0.2989
21908W        W38382   8.508   8.209   4.735 -0.0806  0.0710  0.2698
21909W        W38383  15.060  11.308   4.637  0.1354 -0.0176 -0.1585
21910W        W38384  10.640   5.355  15.671 -0.1751 -0.3907  0.0772
21911W        W38385  13.627   2.978   1.900 -0.3835  0.0861  0.0968
21912W        W38386   7.486   5.094  15.453 -0.2049 -0.2459 -0.1002
21913W        W38387  14.265  16.218   0.402  0.0609  0.1433  0.0807
21914W        W38388   9.985  16.379   1.302  0.3164 -0.0095 -0.0069
21915W        W38389  10.952   1.665  16.124  0.3780 -0.1343  0.2865
21916W        W38390   3.248  13.633   1.565  0.0061  0.1644  0.0964
21917W        W38391   5.030   4.366   4.414 -0.0812 -0.6288 -0.3247
21918W        W38392   3.069   6.625  13.573  0.0098  0.1032  0.0848
21919W        W38393   5.943   1.285   5.623  0.2036 -0.2447 -0.0032
21920W        W38394   7.849   2.939  11.822 -0.0890 -0.0514  0.0459
21921W        W38395   5.111   6.951  13.576  0.2572 -0.1314 -0.2012
21922W        W38396  14.127   5.086   4.931 -0.1339  0.1337  0.3008
21923W        W38397   7.246   4.780  11.975  0.3736  0.2719 -0.1015
21924W        W38398  12.977  16.896  11.905  0.0375  0.0227  0.2699
21925W        W38399   7.740   9.147   1.013  0.0501  0.0018  0.4020
21926W        W38400  13.310  17.446   0.760 -0.0928 -0.0699 -0.1676
21927W        W38401  12.467  18.258  12.427 -0.0775  0.0173 -0.1711
21928W        W38402  14.072   3.537   3.256 -0.1184 -0.1502 -0.0548
21929W        W38403  12.773   3.367  15.530  0.2298  0.2036  0.2307
21930W        W38404   9.389   2.187   2.582 -0.2127 -0.1695  0.0023
21931W        W38405  14.414  16.827   5.536  0.0043 -0.0296 -0.1048
21932W        W38406  12.104   3.002  12.424  0.1593  0.2402  0.0658
21933W        W38407  11.307   5.751   0.346 -0.1463  0.1411 -0.0855
21934W        W38408   2.389   1.229  12.788 -0.2207 -0.2485  0.2339
21935W        W38409  11.276  10.987  11.146  0.3158 -0.0526 -0.0118
21936W        W38410   4.153   2.064   3.951 -0.0969 -0.2352 -0.1673
21937W        W38411  15.555  12.991   3.574  0.0802 -0.0829  0.3144
21938W        W38412  11.019   4.421   1.234  0.0243 -0.2554  0.0622
21939W        W38413   7.216  14.718  14.672  0.0781 -0.1050  0.0557
21940W        W38414   5.505   6.973  11.494  0.0541  0.1202 -0.0238
21941W        W38415  13.934  10.755  14.997  0.1149  0.0946  0.0774
21942W        W38416  10.287  11.933  11.585  0.0283  0.0216  0.1856
21943W        W38417   6.816   7.358   3.785  0.2205 -0.3048 -0.2081
21944W        W38418   7.432   8.498  13.320 -0.0848 -0.0966 -0.1569
21945W        W38419   0.058   9.488  11.706  0.0217  0.0050  0.0089
21946W        W38420  15.767  11.161   3.278  0.0978 -0.3856 -0.0536
21947W        W38421   5.056   1.560   3.433  0.2250 -0.3383 -0.2339
21948W        W38422   5.541   3.411   1.300  0.1170  0.0384 -0.4609
21949W        W38423   5.780   4.358  14.687  0.1806 -0.2013 -0.1984
21950W        W38424   2.110   2.226  12.676  0.0893  0.1590 -0.0668
21951W        W38425   6.489   4.387  11.451 -0.3737  0.3844  0.0014
21952W        W38426   5.658  11.354   0.453 -0.0225  0.2144  0.2491
21953W        W38427   3.745   8.695  14.284  0.1008 -0.0200  0.0082
21954W        W38428  10.219   6.272   0.836 -0.0793  0.4917 -0.0595
21955W        W38429   4.508  14.913   1.298 -0.0263  0.1655  0.0685
21956W        W38430   9.751   3.182   0.801 -0.1287  0.3209  0.1588
21957W        W38431  16.277  14.963   1.875  0.0977 -0.1971  0.2741
21958W        W38432  14.795  16.114   0.644 -0.2195 -0.2460 -0.2369
21959W        W38433   1.796   1.553   3.728 -0.0196  0.0684  0.2387
21960W        W38434   6.560   6.413   5.199 -0.5236 -0.0761 -0.0411
21961W        W38435  13.905   0.279   0.171 -0.1525  0.1058  0.0397
21962W        W38436   7.869  10.495  15.896  0.2137 -0.0092  0.2067
21963W        W38437   7.236   5.483   4.332 -0.0232  0.1009  0.2199
21964W        W38438  16.791   8.463  12.187  0.3198 -0.1609 -0.1186
21965W        W38439  12.961   6.135   2.233  0.3190  0.0742  0.0709
21966W        W38440  11.802   9.627   2.302 -0.1700  0.3358  0.0119
21967W        W38441   1.040  10.154   4.772 -0.1465 -0.0670  0.1761
21968W        W38442  18.038   7.164   2.779 -0.0453  0.2069 -0.0451
21969W        W38443   0.701   9.466  15.416  0.1205 -0.1861  0.2160
21970W        W38444  17.860   1.890   4.668 -0.0250 -0.1236 -0.0406
21971W        W38445   5.169  14.534  12.330 -0.2226 -0.3537 -0.1441
21972W        W38446   5.104  18.093   3.867 -0.3261  0.1458  0.1865
21973W        W38447  12.281   7.638   4.750  0.1372 -0.2634 -0.0970
21974W        W38448   5.052  13.009  13.446  0.1496  0.3609  0.0180
21975W        W38449   7.464   8.308   5.164  0.3094 -0.0723  0.0284
21976W        W38450  12.261  16.032   3.302  0.2596  0.2074  0.3787
21977W        W38451   9.178  16.702  13.429  0.0584 -0.1677 -0.2017
21978W        W38452   6.034  15.856   1.405 -0.0674 -0.1939  0.0087
21979W        W38453   2.767  16.074   4.569 -0.1039 -0.1383  0.1658
21980W        W38454  12.882  17.309   4.244  0.1799 -0.1202  0.1316
21981W        W38455  14.560  13.668   0.267 -0.1876  0.1893  0.1755
21982W        W38456  13.381   5.472  13.392 -0.2532 -0.0466 -0.1784
21983W        W38457  13.489   4.286  16.001  0.0666 -0.3141  0.2080
21984W        W38458  13.817  17.080   2.301 -0.2050 -0.1431 -0.0237
21985W        W38459  16.152  12.483   4.723 -0.2330  0.0454 -0.0452
21986W        W38460   2.654   6.266   0.350  0.0617 -0.3196 -0.2018
21987W        W38461  17.125   7.988   2.962  0.0901  0.0177 -0.0774
21988W        W38462  18.105  17.376   0.054 -0.2467 -0.1064 -0.2882
21989W        W38463  10.069  18.099   1.153  0.4480 -0.2278  0.2229
21990W        W38464   4.145   0.372  13.572 -0.2519 -0.0184  0.1135
21991W        W38465   5.356   8.538   2.433 -0.3170 -0.1356  0.3309
21992W        W38466   5.435   6.026  12.690 -0.1933 -0.0629  0.1839
21993W        W38467   9.154   1.625   1.783  0.0723 -0.0361 -0.0497
21994W        W38468  14.747  12.138   3.396  0.3891  0.0556 -0.2453
21995W        W38469  12.799   8.483   1.257  0.1115 -0.4686 -0.3085
21996W        W38470   5.480  11.467  11.682 -0.0334 -0.1278 -0.2410
21997W        W38471  11.624   8.742  12.452 -0.1906 -0.1096 -0.2434
21998W        W38472   5.369  17.568   4.582  0.0373 -0.1733 -0.0037
21999W        W38473   2.096  11.661  12.680  0.0908  0.4800  0.1295
22000W        W38474   9.415  17.972   4.457 -0.0919  0.2333  0.0182
22001W        W38475   0.251   8.016   0.404 -0.1857  0.0191  0.0242
22002W        W38476   1.661   4.108   5.093  0.1081  0.2209 -0.1691
22003W        W38477  17.957  11.889  16.194 -0.0142  0.1759 -0.0597
22004W        W38478   0.299  18.017  12.798 -0.1109  0.1102 -0.2601
22005W        W38479   0.948   4.630   4.624  0.0252 -0.2451 -0.3249
22006W        W38480   7.759  15.941   1.741  0.0661  0.0957 -0.0704
22007W        W38481  16.569  16.994   5.111  0.1471 -0.0097  0.0346
22008W        W38482   7.974  13.006  12.495  0.1172  0.2791  0.0627
22009W        W38483  12.028  11.203   5.763  0.0844 -0.2912 -0.2280
22010W        W38484  11.548   5.621  12.329 -0.2114 -0.0369 -0.3778
22011W        W38485  17.387   5.550  11.990 -0.2259  0.0927 -0.1558
22012W        W38486  11.199  16.019  14.552  0.0146 -0.0896  0.3721
22013W        W38487  10.497   1.625   0.670  0.2211  0.1313  0.0334
22014W        W38488   6.218  16.531  13.334  0.1587  0.1502 -0.2566
22015W        W38489   9.170   1.514   5.716  0.1494  0.1771  0.2610
22016W        W38490   0.936  11.905   5.014  0.3008 -0.1294  0.1473
22017W        W38491  13.979  16.070   2.397 -0.0194  0.1421  0.2213
22018W        W38492   8.193   1.541   3.832  0.4151 -0.2558 -0.0132
22019W        W38493   9.881  16.797   0.855  0.0711 -0.1128 -0.1256
22020W        W38494   1.647   3.699  15.396  0.2486 -0.1140  0.0743
22021W        W38495   6.429   2.755  15.090 -0.4208  0.1689  0.0644
22022W        W38496   9.732  15.333   6.179 -0.1667 -0.1552 -0.0033
22023W        W38497   9.536  11.151   2.332  0.1046  0.1690  0.0686
22024W        W38498  11.399  15.185   2.865  0.0572 -0.2364 -0.1752
22025W        W38499   0.168   4.858   4.436  0.2831 -0.3899 -0.1647
22026W        W38500   2.508  13.841   2.072 -0.1782  0.4021  0.1057
22027W        W38501   2.258   5.351   0.489 -0.3035  0.2712 -0.0720
22028W        W38502   2.301  17.479  14.537  0.2715 -0.1899 -0.0349
22029W        W38503   6.627   0.748  15.329  0.0809 -0.1379  0.2297
22030W        W38504   0.691  12.828   4.967  0.3546 -0.1468 -0.0223
22031W        W38505   3.220   7.674   0.573  0.0896  0.1065 -0.2358
22032W        W38506  17.731  12.518   4.356  0.0841  0.2238 -0.0610
22033W        W38507   2.548  11.802  13.597  0.0601 -0.1793 -0.2441
22034W        W38508   0.509  13.963   3.505  0.0870 -0.2957  0.0154
22035W        W38509   2.936   9.287   2.186 -0.1989  0.1488 -0.6222
22036W        W38510  13.423  16.519   0.552  0.3115 -0.1872 -0.0186
22037W        W38511  13.743   6.696   0.094 -0.1237  0.3187 -0.1383
22038W        W38512  15.120  14.941  12.523  0.1058 -0.3454  0.1063
22039W        W38513  17.987  14.283  11.520 -0.1593 -0.0929 -0.0361
22040W        W38514   7.353   6.664   4.890  0.0067  0.3868  0.1934
22041W        W38515   0.530   9.948   4.946  0.1661 -0.0343 -0.0604
22042W        W38516   4.134   4.265  13.136 -0.1654  0.3362 -0.1192
22043W        W38517   1.775  14.604   2.217  0.3049 -0.1271 -0.0903
22044W        W38518  10.267  17.452   0.593 -0.1806 -0.3687  0.1177
22045W        W38519  13.418  13.933   5.390 -0.4501 -0.1421  0.1431
22046W        W38520  17.000   2.439   4.216  0.0073 -0.0630  0.2172
22047W        W38521  15.482  10.983  14.854  0.1037  0.2607  0.0895
22048W        W38522  15.096  18.253   0.423 -0.0695 -0.0730  0.1001
22049W        W38523  12.443  12.157  15.940  0.0251  0.0036  0.1094
22050W        W38524   4.289   1.454   2.519 -0.0900  0.2586 -0.0231
22051W        W38525   2.671   9.065  15.350  0.1263 -0.1286 -0.0090
22052W        W38526   4.299   9.702  14.084 -0.1220 -0.1000  0.0405
22053W        W38527  15.110  12.477  12.340  0.0857 -0.2144  0.0264
22054W        W38528  15.478  11.712   2.821  0.2732  0.0875  0.0866
22055W        W38529  17.083   3.934  14.899 -0.0942  0.1255 -0.1402
22056W        W38530   8.237  14.425   5.814  0.0657 -0.0323 -0.2149
22057W        W38531   8.382   2.566  12.035 -0.0295  0.0926  0.2101
22058W        W38532   2.472  11.144  12.538  0.1084 -0.1832 -0.1307
22059W        W38533   9.016  17.993   0.951  0.0433  0.1194 -0.2675
22060W        W38534   4.661  17.565   2.046 -0.1763  0.2850  0.2036
22061W        W38535   7.716  10.579   5.464  0.0832 -0.0239 -0.4354
22062W        W38536  14.002   1.957   3.959  0.1581  0.0046  0.0800
22063W        W38537   5.519   9.417  11.846 -0.2314 -0.0566  0.0309
22064W        W38538  18.221   8.164  14.268 -0.2548  0.1321  0.1293
22065W        W38539   6.352  16.469   4.125  0.0519 -0.2351 -0.4493
22066W        W38540  10.828  12.680  11.137 -0.1670  0.1751  0.1500
22067W        W38541  16.765   2.327   2.448 -0.1360  0.0108 -0.1593
22068W        W38542   2.754   3.032   5.460 -0.1052  0.0796 -0.3111
22069W        W38543   9.377  13.415   1.502  0.2597 -0.0990 -0.2162
22070W        W38544  13.226   8.152  12.662  0.1555 -0.1224 -0.1369
22071W        W38545  15.835   4.002   4.127  0.0493  0.0370  0.1688
22072W        W38546  10.120   3.900  13.358 -0.1580  0.2739  0.1685
22073W        W38547  10.762   5.151  11.865  0.0382  0.0905  0.0412
22074W        W38548   0.780  10.273   0.007  0.1389 -0.4500 -0.2000
22075W        W38549  11.440   5.862  11.920  0.3955  0.1497 -0.3304
22076W        W38550  12.767   7.922  10.927  0.0582 -0.0547  0.0220
22077W        W38551  16.420  14.876  12.837 -0.0948 -0.0570 -0.2581
22078W        W38552  15.840  17.652  13.378  0.0084  0.0282 -0.0338
22079W        W38553   3.027   8.041  14.504 -0.0561  0.2002  0.1596
22080W        W38554   8.426   6.399  13.141 -0.0691 -0.5434 -0.0823
22081W        W38555  15.863  12.841  13.459 -0.0461  0.0199  0.2230
22082W        W38556  15.982  15.927  11.216 -0.0493 -0.0374  0.0531
22083W        W38557  17.436   4.318  11.357 -0.0657  0.0980 -0.1284
22084W        W38558  10.364  17.834  14.123  0.1376  0.0106  0.1513
22085W        W38559   3.307  10.458   4.324 -0.2048  0.0030 -0.1643
22086W        W38560  17.017  13.431  11.626  0.1713  0.3420  0.2775
22087W        W38561   8.081  16.625  11.866  0.0211  0.0118 -0.1781
22088W        W38562  12.133   2.225  12.073 -0.0424 -0.1031 -0.0982
22089W        W38563   1.148   1.519  12.080  0.1865 -0.0122  0.0568
22090W        W38564   7.913   0.333   1.894 -0.0672  0.3195 -0.1806
22091W        W38565   6.482   0.823   4.979  0.1814 -0.1541 -0.0672
22092W        W38566   7.982  16.634   3.244 -0.0221  0.0368  0.1041
22093W        W38567  14.071   6.109   5.653 -0.1201 -0.0175 -0.0725
22094W        W38568   7.438   6.913   3.494 -0.0529 -0.1403  0.3582
22095W        W38569  13.302   2.127   1.587 -0.2099  0.1447 -0.2569
22096W        W38570  11.607   9.908  13.178  0.0802 -0.0980 -0.0260
22097W        W38571   4.334  14.376   5.219 -0.1219 -0.0172  0.1301
22098W        W38572   9.346   4.161   1.602  0.1784  0.2888  0.2745
22099W        W38573   7.756   9.512  12.021 -0.1644  0.3048 -0.0624
22100W        W38574   6.083  14.321   4.200  0.1578  0.1978 -0.2353
22101W        W38575   8.552  13.930  15.976 -0.0526 -0.0874 -0.0537
22102W        W38576  10.200  13.008   3.779 -0.0276  0.0398 -0.1101
22103W        W38577   8.204   7.127   3.205  0.0509  0.0716 -0.0445
22104W        W38578   4.337  12.187   3.729  0.1202  0.2257  0.1292
22105W        W38579  12.810   6.574  14.954  0.1485 -0.3978 -0.0093
22106W        W38580   2.986   7.463   5.485  0.0941 -0.0800 -0.1892
22107W        W38581  16.956   0.520  14.627  0.1172 -0.0998 -0.1551
22108W        W38582   5.866   1.061  15.724 -0.0694  0.1171 -0.0035
22109W        W38583   5.195   4.121   2.028  0.0733  0.0427  0.2919
22110W        W38584   3.903  14.834   1.343 -0.3811 -0.0843  0.2962
22111W        W38585  15.518   2.775  16.152 -0.3752  0.0198 -0.1781
22112W        W38586   4.238   7.222  12.857  0.2782  0.0305 -0.1770
22113W        W38587  12.855  10.120  14.451 -0.0509 -0.2177 -0.0391
22114W        W38588   1.571   8.427  15.665  0.2355 -0.1122  0.0057
22115W        W38589   1.515   6.089  10.564 -0.1679 -0.0572 -0.2360
22116W        W38590   9.033   0.372  14.609 -0.1285 -0.0252  0.2199
22117W        W38591  17.072   5.667  15.413  0.1524 -0.3285 -0.2047
22118W        W38592   7.755  13.546   2.097  0.1026  0.1987 -0.0768
22119W        W38593   5.114   4.294   5.442  0.3011  0.0020 -0.1849
22120W        W38594   4.381   3.592   1.089  0.1902 -0.0670 -0.4632
22121W        W38595  14.215   6.338  15.287 -0.0636  0.1180 -0.0009
22122W        W38596   7.060  11.193   2.247  0.0902 -0.0345  0.1110
22123W        W38597   0.940  11.148   0.208 -0.1410  0.0183 -0.0087
22124W        W38598  13.044   9.088  15.546 -0.0511  0.0055  0.2177
22125W        W38599   8.116  14.086   3.961 -0.0389  0.2538 -0.3075
22126W        W38600   6.599  12.137   3.441 -0.0314  0.0541 -0.0492
22127W        W38601   9.235   8.977   1.599 -0.0630 -0.1091 -0.1751
22128W        W38602   6.401   8.914  15.551 -0.0225 -0.0974  0.0660
22129W        W38603  10.036   2.795   1.744 -0.3207 -0.1075 -0.1397
22130W        W38604   3.435  14.061  12.509  0.2382  0.1922 -0.0948
22131W        W38605   0.056  15.994  14.450 -0.2050 -0.0341 -0.1586
22132W        W38606   2.391  16.623  15.975  0.2345 -0.1619 -0.1061
22133W        W38607   4.946   5.293  12.238 -0.0130 -0.0901 -0.0052
22134W        W38608   4.107   9.717  12.917 -0.2843  0.1406  0.1316
22135W        W38609   4.302  14.317   3.758  0.1098  0.2992 -0.4585
22136W        W38610   5.283   3.827   1.152 -0.2518  0.0512  0.0330
22137W        W38611  15.027   1.654  13.382 -0.0596  0.1863  0.2372
22138W        W38612  11.665  10.799   2.666 -0.3393 -0.0301  0.0327
22139W        W38613   5.203   4.679   3.960 -0.1150  0.4077 -0.1064
22140W        W38614   3.780  11.871  15.575  0.1439 -0.0314  0.3239
22141W        W38615  17.925   0.675  14.605  0.1870 -0.0472 -0.1848
22142W        W38616  17.855   8.919   1.763 -0.0551 -0.3195 -0.2284
22143W        W38617   9.765   0.861  14.529  0.3170 -0.1697  0.2866
22144W        W38618  16.556   9.189   1.157 -0.0718  0.1182  0.1606
22145W        W38619  15.442   8.857  11.696  0.3472  0.0892  0.0250
22146W        W38620   7.012  16.253   6.429  0.3492 -0.2456  0.1333
22147W        W38621   9.332   7.747   2.799 -0.2254 -0.1476  0.2007
22148W        W38622  17.279  15.475  14.496 -0.0167  0.0581 -0.1196
22149W        W38623   0.013   0.634   0.430  0.0137 -0.1100 -0.0885
22150W        W38624   3.698   7.231   1.930  0.1791  0.2335  0.1187
22151W        W38625   9.622   9.412  13.426  0.2009  0.1565  0.2370
22152W        W38626  17.934  10.755   3.894 -0.0099  0.1579 -0.0851
22153W        W38627  14.373   6.156  15.760 -0.2928 -0.0090 -0.1488
22154W        W38628   8.345   5.908  11.620  0.4008  0.1924  0.0061
22155W        W38629  11.505   5.949   4.241 -0.0859  0.1012  0.2573
22156W        W38630  11.498   9.079  13.725  0.3171 -0.1694  0.2590
22157W        W38631  10.715  13.735  12.592 -0.1999  0.2142  0.1013
22158W        W38632  11.727  14.838  14.927  0.1915  0.2536 -0.1483
22159W        W38633  10.635   6.303  11.483  0.0660 -0.1498 -0.4709
22160W        W38634  12.196  17.844   1.584 -0.0644  0.0228 -0.1827
22161W        W38635  16.115   6.964   0.037 -0.0455  0.3485 -0.2726
22162W        W38636   5.000  11.495   4.167  0.2211  0.1146  0.0649
22163W        W38637  11.505   0.793   0.532 -0.0151  0.0692 -0.1672
22164W        W38638  10.216   7.957   2.995 -0.0036  0.0159  0.0849
22165W        W38639   3.665  15.638   1.871  0.2509  0.0900 -0.0979
22166W        W38640   9.649   0.011  11.648 -0.0093  0.1371 -0.0304
22167W        W38641   9.081  16.878   4.761  0.1391  0.2287 -0.0899
22168W        W38642   9.490  11.732  14.722  0.0044 -0.3454 -0.0920
22169W        W38643  15.133   8.134  13.090 -0.1465 -0.2697 -0.1246
22170W        W38644   0.382   0.960  13.402 -0.3339  0.2267 -0.0322
22171W        W38645   0.202  13.334   3.296 -0.3148 -0.2166  0.1320
22172W        W38646  10.259  14.726   3.764  0.1275 -0.1764 -0.2068
22173W        W38647  15.759  17.930   0.925  0.0555 -0.2310  0.1247
22174W        W38648   9.979   4.655  11.476  0.1551 -0.1754 -0.0581
22175W        W38649   2.877  16.295  15.796 -0.1498  0.0424  0.3891
22176W        W38650  12.285   3.143  14.641  0.3859  0.1052  0.0385
22177W        W38651   1.840   0.317  13.174 -0.1380 -0.2443 -0.4046
22178W        W38652   1.845   0.982   0.606  0.1277  0.3236  0.1891
22179W        W38653  16.421   6.274   5.585  0.2131 -0.1320 -0.2737
22180W        W38654   1.600  14.202  12.918  0.1728  0.5130  0.1776
22181W        W38655  14.050  15.099   0.880 -0.2270  0.0137 -0.3014
22182W        W38656   5.299  15.964   5.314 -0.1783  0.0442  0.1673
22183W        W38657  17.316   0.916  11.856  0.0263  0.1543  0.2033
22184W        W38658  12.368   6.154  11.420 -0.4456  0.5767  0.0131
22185W        W38659  13.067  10.253   3.948  0.2289 -0.1663  0.0110
22186W        W38660  18.335  13.336   1.909 -0.1543  0.0093 -0.0281
22187W        W38661  16.665  12.034  13.915 -0.1301  0.1227 -0.2117
22188W        W38662  15.813  16.907  11.347  0.1819 -0.2152 -0.2249
22189W        W38663   2.841   8.294  13.422 -0.2943 -0.0968  0.1227
22190W        W38664  15.640   4.491   1.830  0.1479  0.0303 -0.0286
22191W        W38665  12.322   1.102  13.432  0.1830 -0.0836 -0.1120
22192W        W38666  14.665   7.434  15.851 -0.0772  0.2944  0.0498
22193W        W38667  18.095   7.007  12.584 -0.0796  0.0153 -0.2057
22194W        W38668   1.202   5.041   1.704  0.0627 -0.1737 -0.3886
22195W        W38669   6.196  11.476   4.646 -0.0761  0.0004  0.0432
22196W        W38670   7.035   5.441   9.948  0.0351 -0.0612  0.2874
22197W        W38671  15.334  18.279   5.243  0.3955 -0.2630  0.0759
22198W        W38672   8.677  15.865   3.916 -0.2433 -0.1319  0.1613
22199W        W38673   2.656   1.092   4.134  0.0718 -0.0120  0.1578
22200W        W38674   5.433  14.810  12.035  0.1393 -0.2559  0.0235
22201W        W38675   1.227  12.413  13.517  0.1395 -0.0882  0.2137
22202W        W38676   5.333   7.968  13.077 -0.0355 -0.0577 -0.1028
22203W        W38677  10.632   9.481   3.853 -0.1408 -0.1171  0.2738
22204W        W38678   4.059  13.534  15.167  0.0975 -0.0568 -0.1064
22205W        W38679   9.659   8.961   3.437  0.0556  0.0177  0.0238
22206W        W38680  17.643   5.121   4.469 -0.2680  0.0587  0.2682
22207W        W38681   0.730   0.870  15.112 -0.2066 -0.1382 -0.4296
22208W        W38682   7.782  12.203  15.188 -0.0985  0.2852  0.1218
22209W        W38683   3.096   1.625  15.583  0.2287  0.0162  0.1777
22210W        W38684   0.656   7.321   4.976  0.1740  0.0554  0.0719
22211W        W38685   3.548   2.340  13.590 -0.1230  0.2123 -0.0883
22212W        W38686  12.340   5.648   4.584 -0.0698  0.0403 -0.4801
22213W        W38687   5.193  13.992   3.326 -0.2250  0.2736  0.0354
22214W        W38688   8.019   4.042   1.879 -0.1853 -0.3249  0.1385
22215W        W38689  17.102  12.336   3.911 -0.0471 -0.0943 -0.1359
22216W        W38690   8.819   9.908  15.406 -0.2945 -0.2580  0.3641
22217W        W38691   4.962   6.191   4.170 -0.1386 -0.2777  0.2404
22218W        W38692   1.188   1.986   4.495 -0.1791 -0.0478  0.1745
22219W        W38693  14.354   7.869   0.628 -0.1124  0.1139 -0.0938
22220W        W38694  15.185  11.899   5.478 -0.0969  0.2489  0.1320
22221W        W38695  12.562   0.208   3.890 -0.4058 -0.0740 -0.0144
22222W        W38696   0.261  13.990   0.693  0.0153 -0.2354  0.1434
22223W        W38697   6.646   9.442  11.987  0.1982  0.0159 -0.0560
22224W        W38698   8.772   3.483  13.146  0.5020  0.1785 -0.1422
22225W        W38699  11.660  14.066   2.406 -0.1132 -0.1842 -0.0325
22226W        W38700   5.787   0.537  15.727 -0.0122 -0.1173  0.1497
22227W        W38701   3.983   3.002  13.036  0.1649  0.0202 -0.0982
22228W        W38702   0.469  13.292  16.073  0.1131  0.2784 -0.1457
22229W        W38703   9.975  15.228   2.720 -0.0771 -0.0587  0.2504
22230W        W38704  13.017   7.179   3.522  0.0174  0.1456 -0.2138
22231W        W38705   4.465   1.665   3.724 -0.0995 -0.0968  0.2146
22232W        W38706   3.019  17.413  13.247 -0.2836 -0.1962 -0.4366
22233W        W38707   6.874   1.908  14.630  0.0354 -0.1149 -0.0668
22234W        W38708  11.728  10.317   2.855 -0.0856 -0.0725  0.1673
22235W        W38709   7.244  10.335  15.103 -0.0414  0.0793  0.1350
22236W        W38710  14.157  13.884  14.745  0.6227 -0.1025 -0.2591
22237W        W38711  15.817   6.146  11.017  0.3805 -0.0340 -0.1729
22238W        W38712   2.035  16.096  14.626 -0.1348  0.3046  0.0568
22239W        W38713   6.040  12.066  13.785 -0.2100  0.2438 -0.0720
22240W        W38714   9.311  16.589   5.282 -0.0494  0.2076 -0.0589
22241W        W38715   7.161   7.409  11.537 -0.0331  0.1667  0.3971
22242W        W38716  11.568   2.119  16.209  0.1414  0.2424 -0.0132
22243W        W38717  17.671  13.692   3.626  0.2365 -0.1020  0.2414
22244W        W38718  12.084   6.987  14.180 -0.2186  0.4543 -0.0002
22245W        W38719  14.649  10.640   0.145  0.2787 -0.0687  0.2653
22246W        W38720   9.273   3.276   2.276  0.0133  0.0134  0.0249
22247W        W38721   2.209   3.823   3.119  0.3596  0.2422 -0.2093
22248W        W38722  13.746  15.866   3.714  0.2242 -0.1491 -0.0517
22249W        W38723   4.333  11.127  12.225 -0.2274 -0.0983  0.3249
22250W        W38724   9.553   7.223   2.663  0.0682 -0.2466  0.2666
22251W        W38725  17.662   2.161  14.128  0.1604  0.2777  0.1712
22252W        W38726   0.235   1.215  16.058 -0.2016 -0.1877 -0.0419
22253W        W38727   3.885   7.223  11.208 -0.1474 -0.3761  0.1908
22254W        W38728   5.527  13.664   4.630  0.0139 -0.0897  0.0537
22255W        W38729   6.618   8.357  13.542  0.0685 -0.1203 -0.1182
22256W        W38730  15.728   5.827  10.685 -0.1161  0.3967  0.1231
22257W        W38731   7.728  10.863  12.762 -0.1881 -0.0955  0.2485
22258W        W38732  10.284   3.678  13.810 -0.0900  0.1980  0.2659
22259W        W38733   2.354  16.433   0.717  0.3496  0.1502  0.1222
22260W        W38734  15.604  11.759   2.210  0.0815  0.0063  0.1062
22261W        W38735   6.327  12.847  12.027 -0.1074  0.0829  0.1008
22262W        W38736   9.187   1.694   3.774 -0.4333  0.1485  0.0195
22263W        W38737  14.480   8.655  16.162  0.0563  0.0571 -0.0449
22264W        W38738   9.551  12.956  12.678 -0.0883 -0.4204 -0.1233
22265W        W38739   0.136  13.381  15.701  0.1417 -0.2225 -0.0842
22266W        W38740  11.579   3.048   3.034 -0.1659  0.0221  0.1398
22267W        W38741  13.354   7.550  12.120  0.0058  0.0878  0.0605
22268W        W38742   3.482  16.985   1.976  0.0185  0.0061  0.2538
22269W        W38743  15.577   8.867  13.696  0.1265 -0.2691  0.2376
22270W        W38744   7.022   5.180   5.819  0.0513  0.1578  0.0083
22271W        W38745  17.330   0.361   0.255  0.1302  0.0726  0.2653
22272W        W38746  17.960  15.716  12.653  0.4180 -0.3303  0.2336
22273W        W38747   7.337  18.101  15.937  0.0999 -0.1663  0.0345
22274W        W38748  10.822   4.359   2.597 -0.0708 -0.1474 -0.0443
22275W        W38749   9.826  13.554   4.335  0.3096 -0.0596  0.0060
22276W        W38750   3.830   3.416  12.724  0.5033 -0.0261  0.2397
22277W        W38751   6.670  15.239   5.494  0.0012 -0.0407  0.0792
22278W        W38752  15.744  11.238  12.760  0.2342 -0.0039  0.0760
22279W        W38753   0.762  12.221  12.656 -0.0392  0.1482  0.1325
22280W        W38754   9.588  10.619  14.043  0.2568 -0.0706  0.0382
22281W        W38755  17.243   2.927   3.736 -0.1732 -0.2024  0.0964
22282W        W38756   4.292   0.994  15.593 -0.0050 -0.2332  0.1968
22283W        W38757   8.507   6.002   0.379 -0.0394  0.2148 -0.0281
22284W        W38758   3.705  16.546  12.395  0.3319  0.0447 -0.1650
22285W        W38759  12.296   1.833   4.652 -0.0802  0.0639 -0.0583
22286W        W38760   5.215   8.399   3.025  0.0670 -0.2187  0.1262
22287W        W38761   3.261   2.193   2.033 -0.1475 -0.0556 -0.1673
22288W        W38762  10.853  17.783  12.681 -0.1037  0.0928  0.0439
22289W        W38763   0.637  11.990   1.377 -0.2377  0.0162 -0.1075
22290W        W38764  15.742   3.613   3.749  0.0691 -0.3281 -0.1557
22291W        W38765   8.888   9.155  16.028 -0.2574 -0.1265 -0.1990
22292W        W38766   6.741  15.851   4.762  0.1226  0.0635 -0.1775
22293W        W38767  14.268   9.810   3.857  0.0936  0.2049  0.2250
22294W        W38768   4.197   7.916  12.299 -0.1376 -0.1404  0.1436
22295W        W38769   2.778  12.037   2.309 -0.2723 -0.0475 -0.1465
22296W        W38770  14.316   1.878  14.367 -0.2272 -0.0498  0.0574
22297W        W38771   6.190  17.407  15.056 -0.0909  0.0692  0.0972
22298W        W38772   3.811   8.076   1.936 -0.0604  0.0397  0.0252
22299W        W38773   5.118  17.726   1.636 -0.1080  0.1363  0.0397
22300W        W38774  16.926   1.239  13.490  0.1904 -0.0319 -0.2899
22301W        W38775   1.083  16.399  13.826 -0.0919  0.0161  0.1933
22302W        W38776   1.429  15.039  15.391  0.1660  0.4006 -0.2798
22303W        W38777   1.323   6.639  14.294 -0.1641 -0.2159  0.0066
22304W        W38778  11.335  16.011  12.461 -0.1857  0.0051 -0.2033
22305W        W38779   3.494   6.364  16.093 -0.3226  0.3736  0.1225
22306W        W38780  12.478   2.106  10.755 -0.2258 -0.0955  0.1216
22307W        W38781  17.913   4.479   1.380 -0.0592 -0.0671 -0.0140
22308W        W38782   2.300  17.788   1.416 -0.0787 -0.1530 -0.3192
22309W        W38783  13.100  15.014   2.816 -0.0219  0.0493  0.1686
22310W        W38784   7.524   5.177  16.234  0.2412 -0.3711 -0.0600
22311W        W38785   9.004   2.498   1.688  0.1271  0.0537 -0.1585
22312W        W38786   1.601   4.056  16.209 -0.1278  0.0876 -0.1201
22313W        W38787  10.343  11.611  15.661  0.0614  0.0535  0.0519
22314W        W38788   9.900  16.844   4.519  0.1824 -0.0268  0.0674
22315W        W38789   5.204  17.503   5.962 -0.1842 -0.0774 -0.0763
22316W        W38790   2.270   2.829  14.978  0.4343  0.0724 -0.3615
22317W        W38791  11.121   7.253   0.068  0.1081  0.0665 -0.0815
22318W        W38792  13.155  17.735   4.670 -0.1039  0.3906 -0.0952
22319W        W38793  13.732  11.614  11.713  0.0846 -0.2141  0.3088
22320W        W38794   6.287  17.520   2.384  0.0671  0.0624 -0.0498
22321W        W38795  17.957   5.548   2.793  0.1176 -0.1279  0.2041
22322W        W38796   0.410   7.767  13.011 -0.0972  0.1917  0.2325
22323W        W38797  16.686   4.071  12.632 -0.0857 -0.4229 -0.0844
22324W        W38798   0.668  15.424   0.210 -0.1326 -0.0745 -0.0597
22325W        W38799   0.178  15.966   5.549  0.0130 -0.0297 -0.0176
22326W        W38800   5.563   7.368  16.167  0.1976  0.1598  0.0386
22327W        W38801   9.862  17.697   2.233 -0.3079 -0.1523  0.1033
22328W        W38802  11.913   1.901  12.424  0.0119  0.0457  0.1431
22329W        W38803  13.209   9.471   2.140  0.1514  0.1035  0.1047
22330W        W38804   7.250  18.117   1.897  0.0645  0.1269  0.3349
22331W        W38805  17.783   0.960  11.778  0.0200 -0.0574 -0.1179
22332W        W38806   4.125  11.162   1.325  0.0264 -0.2169 -0.0920
22333W        W38807   4.115  15.282   0.419 -0.0186  0.2592 -0.2228
22334W        W38808  17.571   9.141   2.162  0.1055  0.0571  0.2999
22335W        W38809  17.334  17.955   1.534 -0.2005  0.0457 -0.2724
22336W        W38810  15.990   9.108  16.095 -0.3418 -0.2228 -0.1718
22337W        W38811  17.806   6.323  11.270  0.1333  0.0798  0.1736
22338W        W38812   4.526   7.650  15.458 -0.0058 -0.0460  0.2210
22339W        W38813  10.215  14.796   3.282 -0.1252 -0.1532  0.2916
22340W        W38814   3.023  17.862   0.705  0.3215 -0.2415 -0.0184
22341W        W38815   0.069  14.729  13.560  0.1944  0.2102  0.0109
22342W        W38816   4.706  13.942  14.416 -0.2540  0.2272 -0.2262
22343W        W38817   6.625   1.310   2.805 -0.0429 -0.2488 -0.0359
22344W        W38818   2.072   9.894  14.117  0.1242  0.0642 -0.0889
22345W        W38819   2.580  13.204  13.413  0.1076  0.2015  0.0841
22346W        W38820  13.709   0.036   3.671  0.0182  0.0375 -0.4960
22347W        W38821  11.592   4.575   5.312  0.2700 -0.1715 -0.1959
22348W        W38822   2.782   8.669  11.093 -0.1152  0.2152  0.1532
22349W        W38823  11.280   1.731  12.214 -0.0335 -0.6550  0.1695
22350W        W38824  12.317  11.779   6.075 -0.0297 -0.1195  0.0754
22351W        W38825  14.926  13.945  10.300 -0.1876  0.3116 -0.0378
22352W        W38826   9.661   7.903  12.467 -0.0977 -0.0867  0.1064
22353W        W38827  12.240  13.357  14.250  0.0256  0.0867 -0.1662
22354W        W38828  11.108  18.393  16.116 -0.0498 -0.1851 -0.1443
22355W        W38829  11.157   3.116   5.486 -0.3175  0.0298 -0.0809
22356W        W38830  16.510  10.184  12.356  0.0583 -0.1502  0.1410
22357W        W38831   0.264  16.342  11.685  0.1192  0.1282  0.3716
22358W        W38832   6.284  15.850  14.743  0.0141  0.0943  0.1855
22359W        W38833  16.167  16.929  16.147  0.2765  0.0323 -0.1694
22360W        W38834  17.347   2.235   2.513 -0.2100 -0.1069 -0.4002
22361W        W38835   4.954   8.908  14.405 -0.2227 -0.2304 -0.0202
22362W        W38836  12.449  13.025  13.915 -0.2405 -0.0739 -0.2005
22363W        W38837  11.791   2.273   3.534  0.2168  0.3373  0.0229
22364W        W38838   7.967   8.481  12.053  0.2533 -0.1792 -0.0116
22365W        W38839  17.717   3.436  11.519  0.0609 -0.0546 -0.1784
22366W        W38840  12.655   9.605   3.080  0.0474  0.3253 -0.2642
22367W        W38841  10.792   1.395   5.022 -0.0035 -0.3851 -0.0856
22368W        W38842  15.153  14.191  11.630  0.0783  0.0421 -0.0192
22369W        W38843   6.155   0.277   1.596  0.2751 -0.1281  0.1809
22370W        W38844  16.636  10.719  14.231 -0.0759  0.1931  0.1031
22371W        W38845   1.189  16.562  11.640  0.0289  0.0036 -0.0344
22372W        W38846  10.273   4.461  14.137 -0.0189 -0.0960  0.0392
22373W        W38847  10.036  12.910   0.345  0.0720  0.5296  0.3407
22374W        W38848  11.837  12.356  10.222 -0.0328  0.3230  0.0381
22375W        W38849  13.056  16.044   2.692 -0.0319 -0.1168  0.1008
22376W        W38850   0.393  12.881   1.080 -0.0434 -0.0956  0.0049
22377W        W38851  12.697   0.442   5.263 -0.2590  0.0664  0.1789
22378W        W38852  13.869   8.624  12.302  0.2014  0.2289 -0.2332
22379W        W38853  11.048   7.356   4.699 -0.1189 -0.0541  0.3407
22380W        W38854   3.648   1.518   6.355  0.1434  0.2415 -0.0799
22381W        W38855  11.186  13.315   5.609  0.2205  0.2882  0.1060
22382W        W38856  17.182   9.464  13.890  0.3390  0.0483  0.1013
22383W        W38857   8.380  10.436   4.544 -0.0641 -0.2420 -0.2010
22384W        W38858   6.590  16.123   2.745  0.0523  0.3448  0.5789
22385W        W38859  14.295  16.979   0.502 -0.4178 -0.2276 -0.2589
22386W        W38860   2.929   8.354   3.064  0.2944 -0.1052  0.2040
22387W        W38861   3.617   5.727   3.569  0.0887 -0.1623  0.0827
22388W        W38862  17.151   9.495   4.739  0.0269 -0.0803  0.0169
22389W        W38863   8.984   1.190  15.133 -0.0068 -0.2443 -0.2361
22390W        W38864  16.350  18.005  13.838  0.2855 -0.1890 -0.0719
22391W        W38865   6.413  16.218   2.301 -0.3206  0.1078  0.2030
22392W        W38866  14.791  16.709  12.352  0.2718 -0.4099  0.0213
22393W        W38867   9.404   6.484  10.855  0.1901  0.0410  0.1778
22394W        W38868  16.248   4.808  16.273  0.0634 -0.1766 -0.2006
22395W        W38869   3.006  13.271  12.220  0.3476 -0.4186  0.1897
22396W        W38870   1.637   2.642   3.880  0.2176  0.3178  0.1043
22397W        W38871   4.411   2.696   5.117 -0.1268  0.1907 -0.1212
22398W        W38872   8.137   4.913   3.397 -0.0555 -0.1775 -0.1171
22399W        W38873   3.680   5.005  11.954 -0.1574  0.1477  0.2291
22400W        W38874   6.363  14.282   5.950 -0.0466  0.0829  0.1349
22401W        W38875  14.640   7.147  14.565 -0.0335 -0.1670  0.1411
22402W        W38876   6.010   0.540   5.180 -0.0949 -0.0172  0.0605
22403W        W38877  13.423   6.920   2.633 -0.0001  0.1311  0.1286
22404W        W38878  14.467  13.131  15.125 -0.2559 -0.0902  0.3734
22405W        W38879  13.014   4.599  12.787 -0.0007 -0.2685  0.1362
22406W        W38880  13.478   1.236   4.858  0.0666  0.1862 -0.2212
22407W        W38881  16.415   3.147  11.168 -0.5465 -0.0072  0.1778
22408W        W38882   1.439   1.600  15.195  0.4104 -0.0269 -0.0029
22409W        W38883   4.907   8.191  13.222 -0.1078  0.2259 -0.0326
22410W        W38884   9.704   4.342   5.152  0.3037  0.2076 -0.3955
22411W        W38885  10.549   4.386  11.820  0.1910 -0.0334 -0.1858
22412W        W38886   3.798   7.734  10.995 -0.1282 -0.2071 -0.3347
22413W        W38887   6.975   1.717   5.177  0.0472 -0.3607  0.0526
22414W        W38888  10.048  14.239  15.116 -0.1463  0.2808  0.1348
22415W        W38889   8.262  13.553  15.758  0.0113 -0.0657  0.1082
22416W        W38890   3.456  16.849   4.531  0.2936 -0.2798  0.1412
22417W        W38891   5.239   3.194  15.188 -0.1847  0.3351  0.2926
22418W        W38892   2.327   4.146   1.492  0.1667  0.0163  0.0477
22419W        W38893  17.793   6.446   4.131 -0.1634 -0.0849 -0.2440
22420W        W38894  13.096  14.958   4.211 -0.1973 -0.1030  0.3302
22421W        W38895   5.829   0.006  13.533 -0.0522  0.0402  0.1078
22422W        W38896  15.779  16.105   3.687 -0.0333 -0.0163  0.0369
22423W        W38897   9.847   5.242   1.493 -0.0449  0.3553  0.0986
22424W        W38898   5.501  15.906   1.152 -0.0350  0.0032  0.0878
22425W        W38899  13.303   7.546  15.787 -0.1988  0.1472  0.2882
22426W        W38900  12.508   7.831  10.470  0.0793  0.1835 -0.2169
22427W        W38901   2.137   5.879  12.478  0.0786  0.0368 -0.3130
22428W        W38902   8.758  17.143   0.550  0.0237  0.0564 -0.0790
22429W        W38903  17.408  14.671  13.652 -0.0025 -0.0240  0.2389
22430W        W38904  14.457  10.844   2.176 -0.0094  0.1819 -0.2937
22431W        W38905  12.820  17.363  15.224 -0.1456 -0.3687  0.2757
22432W        W38906  10.942   5.578  12.023 -0.2326 -0.4335 -0.0393
22433W        W38907  16.601  15.345  14.650 -0.1277  0.0069  0.1347
22434W        W38908   4.340  14.750   6.129 -0.1628 -0.2961  0.3896
22435W        W38909   7.888   3.463  11.357 -0.1217 -0.0760  0.0990
22436W        W38910   2.715   8.594  12.917  0.2368 -0.0511 -0.1016
22437W        W38911   8.296   5.913   4.009 -0.1163 -0.2262 -0.0447
22438W        W38912   7.154   4.357   3.669 -0.0466  0.0602 -0.0881
22439W        W38913   4.024   1.448  15.566 -0.1754 -0.0195 -0.0554
22440W        W38914   7.593   7.000  12.379  0.3340 -0.0745  0.0932
22441W        W38915  11.155   4.391   3.921  0.3190 -0.0467  0.0637
22442W        W38916   6.701   0.906  12.763 -0.2314 -0.0796  0.0361
22443W        W38917  14.569  15.654   4.367  0.2948  0.3582 -0.0396
22444W        W38918   6.629   4.364   3.877  0.3329  0.2728  0.0900
22445W        W38919   6.285  14.974   2.712 -0.0216 -0.1839  0.1200
22446W        W38920   3.644  15.586  11.723  0.0547 -0.1274 -0.3356
22447W        W38921   4.018   6.010  12.171  0.2624  0.1433  0.2102
22448W        W38922  11.343   3.223  11.397 -0.1350 -0.5028  0.0439
22449W        W38923   6.330  10.760   5.288 -0.0006 -0.0721 -0.1931
22450W        W38924   0.412  12.410  16.213  0.1639 -0.0049  0.0970
22451W        W38925   2.512  17.466   5.359 -0.1241  0.4926 -0.3575
22452W        W38926  17.886  11.182  11.708  0.2685 -0.0473  0.0066
22453W        W38927  16.799   4.185  16.223 -0.0143 -0.2283  0.2108
22454W        W38928  17.451   4.781  11.531 -0.1956  0.1271  0.2325
22455W        W38929  11.519   8.441   4.204  0.1411 -0.1960 -0.1609
22456W        W38930  10.361   7.671   2.496  0.1911 -0.2766 -0.2224
22457W        W38931  18.311   4.108   1.225 -0.2584 -0.1861 -0.1460
22458W        W38932  14.017   6.728  15.011 -0.0193 -0.3207 -0.0079
22459W        W38933   4.973  15.164   2.043  0.0663  0.1417 -0.0412
22460W        W38934   5.976  10.508  13.184 -0.0780 -0.2361  0.0154
22461W        W38935   2.564  11.663   1.983  0.1148  0.0272  0.0485
22462W        W38936  18.001   4.779  15.301 -0.0373 -0.4079  0.2901
22463W        W38937   2.321  17.333   2.122 -0.1028 -0.2337 -0.3230
22464W        W38938   4.708  11.851   0.579  0.1250 -0.0940  0.1354
22465W        W38939   3.166  15.674   1.932 -0.2561 -0.1156 -0.0406
22466W        W38940   1.777   7.178   5.027  0.0745  0.4462 -0.0377
22467W        W38941   2.663  16.200  12.475 -0.0622 -0.1893 -0.5654
22468W        W38942   6.828   3.059   2.556  0.0458 -0.1737 -0.0592
22469W        W38943   4.852   2.557   3.613  0.0260  0.1301  0.0672
22470W        W38944   3.972   4.515   0.677 -0.0631 -0.2533  0.1610
22471W        W38945   9.599  15.010   2.319  0.0922  0.1018 -0.1904
22472W        W38946   9.266   0.634  12.444  0.0836  0.1203  0.2425
22473W        W38947   1.491   5.785   3.084 -0.3768  0.1613 -0.1307
22474W        W38948  12.126   2.227   5.388 -0.0595 -0.3008 -0.2542
22475W        W38949  16.181   1.192   2.063  0.1333 -0.3220  0.1155
22476W        W38950   7.806  17.369   1.159 -0.1427 -0.0240 -0.2448
22477W        W38951  17.926  18.019   3.355 -0.0213  0.1050  0.0128
22478W        W38952  15.248   8.278   4.406  0.2038 -0.0115  0.2781
22479W        W38953  10.237   5.111  14.739 -0.2140  0.2163 -0.0963
22480W        W38954  13.941  14.429   4.439  0.0594  0.0613 -0.0103
22481W        W38955   9.098  13.278  11.002 -0.3185 -0.1130  0.1513
22482W        W38956   3.116   9.781  14.246 -0.1088 -0.3817 -0.0012
22483W        W38957  11.045   4.986  15.374  0.0911 -0.1881  0.1259
22484W        W38958   4.100  12.454  14.403  0.1327 -0.1442 -0.2512
22485W        W38959   4.349  11.783   2.152  0.4528  0.0617  0.0264
22486W        W38960  17.771  15.747   4.469  0.1482 -0.2223  0.1236
22487W        W38961  15.558   2.742  12.725 -0.3341 -0.0504  0.0614
22488W        W38962  16.034  12.690   2.404 -0.1720  0.3114 -0.1739
22489W        W38963  16.320  10.973   0.288 -0.0567 -0.3399  0.1057
22490W        W38964  15.691  12.078   3.722 -0.4404 -0.0278 -0.0054
22491W        W38965   4.659   7.205  15.964 -0.4328  0.0541  0.1061
22492W        W38966   1.981  14.480   5.456 -0.0696 -0.2588 -0.1083
22493W        W38967  17.524  13.001  11.326 -0.0959 -0.0220  0.1289
22494W        W38968   2.712   6.280   5.571  0.3339  0.2163 -0.4516
22495W        W38969   4.728  15.768  12.966 -0.0124 -0.1269 -0.1434
22496W        W38970   5.796   3.106  14.376  0.2980  0.0398  0.0291
22497W        W38971  12.989   0.141   1.746 -0.1551 -0.5124  0.0010
22498W        W38972  12.275  17.359  12.199  0.0777  0.1410 -0.0431
22499W        W38973   5.718  10.434  12.220  0.0327  0.1175  0.0879
22500W        W38974  13.965  10.564  13.331 -0.0406  0.0537 -0.0423
22501W        W38975  18.133   7.549   3.046 -0.0345  0.1794 -0.3976
22502W        W38976  15.457  10.431   3.568 -0.0330 -0.2358  0.1020
22503W        W38977   9.576   3.582   2.502  0.3006  0.0912  0.0412
22504W        W38978   0.556  10.075  11.329  0.0300  0.1200 -0.1435
22505W        W38979  11.963  16.104  13.126 -0.1478 -0.5239 -0.0908
22506W        W38980  11.718  13.136   2.322  0.0236 -0.3208 -0.2063
22507W        W38981  12.182  13.036   4.619 -0.1116  0.2069 -0.0004
22508W        W38982   7.922  15.091   1.074  0.1044  0.0669  0.1572
22509W        W38983   9.259   9.608  12.094 -0.0176 -0.1241 -0.0539
22510W        W38984  14.518  12.277   0.858  0.0630 -0.1444  0.1040
22511W        W38985   7.668  11.604   5.272  0.1648  0.1653 -0.0253
22512W        W38986  13.263  10.212   1.496  0.1673 -0.2194  0.1232
22513W        W38987  15.522   5.136   1.910  0.1036 -0.1335 -0.5501
22514W        W38988  15.104  15.191   4.931  0.1515  0.0220 -0.1963
22515W        W38989  15.069   9.905   0.041 -0.0482 -0.2214 -0.0794
22516W        W38990  11.010  17.159   5.499 -0.3915 -0.1934 -0.2986
22517W        W38991   9.989  13.656  15.804  0.2827 -0.2977  0.1277
22518W        W38992  18.249  16.072  11.608  0.3325  0.4348 -0.3317
22519W        W38993   3.209  14.183   0.642  0.0799 -0.0836 -0.3065
22520W        W38994  17.283   1.095  13.212 -0.1466  0.1939  0.0083
22521W        W38995  17.231  13.771  11.930 -0.1745  0.0297 -0.2883
22522W        W38996  10.889   5.215  11.231 -0.0745 -0.2047  0.1044
22523W        W38997  10.234   9.754   5.397 -0.2547 -0.1799 -0.2571
22524W        W38998  11.555  15.138  14.531 -0.2338  0.0992  0.1307
22525W        W38999   8.593  12.559   3.381 -0.4047 -0.0976 -0.3397
22526W        W39000  13.932   6.199   3.204 -0.1217 -0.0724  0.0550
22527W        W39001  15.642   3.863  13.556 -0.1203  0.1834 -0.0561
22528W        W39002   7.450  14.393  11.789 -0.1033  0.0600 -0.1556
22529W        W39003  18.295   8.189  10.753 -0.2065  0.0029  0.2567
22530W        W39004   9.177   5.400  13.465  0.0541  0.1969 -0.5259
22531W        W39005   1.708  11.740   0.404 -0.1674 -0.0953  0.3267
22532W        W39006  10.347  13.371   3.541  0.0266  0.0481  0.1628
22533W        W39007  16.528   8.696   4.433 -0.3079 -0.2175  0.1970
22534W        W39008  13.069   0.955  15.572  0.0383  0.0238  0.0201
22535W        W39009  16.136  14.457  14.955  0.1028 -0.0134 -0.0127
22536W        W39010   0.104   8.454  13.631  0.1542 -0.0059  0.0920
22537W        W39011  13.083   3.509   4.154  0.2445 -0.3506  0.3366
22538W        W39012  15.289   3.155   3.011 -0.2213  0.0612 -0.0754
22539W        W39013   1.162  11.363  11.378  0.0860 -0.0719  0.1167
22540W        W39014   4.358  12.865   0.031 -0.1405 -0.0762  0.2427
22541W        W39015   9.414  11.620   3.748  0.0030 -0.2017 -0.1953
22542W        W39016   5.611  12.037   2.137 -0.3537  0.1062 -0.1036
22543W        W39017  14.152   7.517   1.297 -0.1299 -0.1535  0.1298
22544W        W39018  12.487  18.222  14.602  0.2921  0.1672 -0.2163
22545W        W39019  15.003   4.855   1.859  0.1294 -0.2220 -0.1631
22546W        W39020  15.125   1.447  15.424 -0.0845 -0.0978 -0.0254
22547W        W39021  15.332   4.704  11.781 -0.3586 -0.1769  0.1115
22548W        W39022   7.904  17.041   4.362 -0.0270 -0.0176  0.6404
22549W        W39023  15.744   9.693   3.180  0.0901  0.3523  0.1817
22550W        W39024   6.857   6.669  13.501 -0.0997 -0.1969 -0.0467
22551W        W39025   9.883   0.005   1.942  0.2729 -0.1033  0.1407
22552W        W39026   2.200  16.630   2.274  0.0352 -0.2286  0.3651
22553W        W39027   4.146   2.468  15.060  0.1412  0.2283 -0.0585
22554W        W39028  17.424  17.631  12.727  0.0822  0.0903 -0.1152
22555W        W39029   2.915   8.036  13.908  0.2456 -0.0279  0.3028
22556W        W39030  12.219   5.580  13.818  0.0036  0.2580  0.0438
22557W        W39031   6.924  15.192   4.118  0.2049  0.0634 -0.1595
22558W        W39032   7.017   7.730   2.095  0.1424  0.0325  0.0211
22559W        W39033   8.088  12.445  11.482  0.0903 -0.0886 -0.3499
22560W        W39034  12.237   7.489  15.651  0.0433 -0.1304  0.3517
22561W        W39035  10.860   8.459   2.055  0.1435 -0.1644 -0.4141
22562W        W39036   7.478  14.874  13.553 -0.0826 -0.0955 -0.2865
22563W        W39037  10.771  14.475   5.298 -0.0831  0.1762  0.2826
22564W        W39038   9.768   5.926  11.275  0.1739  0.2826 -0.1063
22565W        W39039   6.834  14.844  11.268  0.1343 -0.1670  0.1166
22566W        W39040   9.981   5.265  11.572  0.0241 -0.1689 -0.1844
22567W        W39041  10.062   1.870   3.702  0.2021 -0.3925  0.0724
22568W        W39042   9.242  17.492  13.270 -0.0761  0.0713 -0.2255
22569W        W39043  12.103   4.588  12.286  0.2870 -0.0077  0.2875
22570W        W39044  17.897  15.811   0.201  0.2125  0.0305  0.0280
22571W        W39045   3.238  10.626   2.564 -0.1562  0.6229  0.1050
22572W        W39046  12.606  11.158  14.135  0.0384 -0.0447 -0.0941
22573W        W39047  12.031  10.460   2.370  0.1071  0.2718  0.3426
22574W        W39048  10.990  13.548  13.656  0.2129  0.1555 -0.1103
22575W        W39049  13.358   4.003  13.046 -0.3168 -0.4746  0.2256
22576W        W39050   4.715   2.616   4.118 -0.1254 -0.0769  0.0062
22577W        W39051   5.938   4.487  12.530  0.0016 -0.2239 -0.1783
22578W        W39052  10.095   2.294   4.085  0.2792 -0.0732  0.2560
22579W        W39053   8.788  16.452  16.286 -0.1793 -0.3159 -0.4329
22580W        W39054   0.060  10.034  14.395 -0.2811 -0.1341  0.2656
22581W        W39055  11.588   2.149   5.251 -0.1764  0.1585 -0.1271
22582W        W39056   8.155  12.411  14.618 -0.0252  0.0541 -0.0810
22583W        W39057  11.790   2.586   1.068 -0.2334  0.1240 -0.0576
22584W        W39058   6.028   1.205   2.209  0.1134 -0.2072 -0.1301
22585W        W39059  10.225  13.385   3.015 -0.0708  0.0669  0.0303
22586W        W39060  11.248  10.785   5.825 -0.1308  0.0787 -0.0559
22587W        W39061   8.279   8.700   3.514  0.0452  0.1559  0.0275
22588W        W39062   4.930   2.131  13.754  0.1804  0.0844 -0.1322
22589W        W39063   1.791   6.025   1.103  0.0221  0.2628 -0.0002
22590W        W39064   4.139  10.821   4.398 -0.2404 -0.0839  0.1043
22591W        W39065   3.100  16.163   1.410 -0.3631  0.0226 -0.0052
22592W        W39066  12.849   8.477  12.222 -0.0158  0.1683 -0.0088
22593W        W39067  18.325   9.441   3.888 -0.1292  0.0269 -0.1323
22594W        W39068   3.333  16.115  15.188  0.0052 -0.0858 -0.2739
22595W        W39069   3.042  18.341   5.357 -0.1658  0.1130  0.1349
22596W        W39070   4.638   3.486   3.206 -0.2011 -0.0135 -0.1253
22597W        W39071  13.272  15.509   6.292  0.3302  0.1296  0.2183
22598W        W39072   4.271  12.947   4.160 -0.0264 -0.2933  0.2585
22599W        W39073   9.560   8.655   2.395 -0.0038  0.0808 -0.2761
22600W        W39074  12.947   1.690  13.813 -0.1102  0.2573 -0.2080
22601W        W39075   4.865   1.270   5.554  0.0031 -0.1022  0.0480
22602W        W39076  18.022   0.555   3.376  0.0035  0.2719 -0.2618
22603W        W39077  15.729   6.170   0.423 -0.1718  0.0118 -0.2057
22604W        W39078   7.434  13.199  15.029 -0.0722 -0.0734  0.2670
22605W        W39079   3.611  17.426  14.707 -0.0205  0.2052  0.2179
22606W        W39080   4.614  16.746  15.777  0.0502  0.0070  0.0710
22607W        W39081   1.948   3.617   2.669 -0.2431  0.2439  0.1116
22608W        W39082   4.295   9.706   0.927 -0.0970 -0.1327 -0.2048
22609W        W39083   8.125  16.742  16.165 -0.2283  0.2456 -0.0858
22610W        W39084   9.106   7.383   1.889  0.1838 -0.1234  0.0388
22611W        W39085   6.447   1.469   0.229 -0.2844  0.2863 -0.3331
22612W        W39086  10.670   1.570   2.869  0.1764  0.0381 -0.0536
22613W        W39087   0.829   1.542  14.509 -0.2249 -0.1265 -0.0534
22614W        W39088   7.991   2.510  16.024 -0.1366 -0.0292  0.2375
22615W        W39089   4.529   9.217  15.019 -0.0855  0.1008 -0.0148
22616W        W39090  10.742  15.012  13.117 -0.1656 -0.0786  0.0639
22617W        W39091  12.223  14.446  13.346 -0.3229  0.0424 -0.1863
22618W        W39092   5.248   0.382   4.688  0.0427 -0.1059 -0.0224
22619W        W39093  16.297  12.649  13.249 -0.2195 -0.0441 -0.1472
22620W        W39094   3.310   6.962   2.078  0.0486 -0.1354  0.4695
22621W        W39095  14.841  10.860   1.138  0.0139 -0.1089 -0.1059
22622W        W39096   7.947  15.545   0.889  0.1099  0.2278 -0.1809
22623W        W39097  15.413   4.321   2.345 -0.1079  0.2362 -0.2796
22624W        W39098  12.960  10.138  15.507  0.1370 -0.1378  0.2489
22625W        W39099  13.211   2.442   3.282 -0.1729  0.4081  0.3615
22626W        W39100  16.068  13.119  16.335 -0.1535 -0.1964  0.1144
22627W        W39101   8.508   7.044  12.427 -0.3924  0.0432  0.1604
22628W        W39102  16.628   9.909   3.827 -0.2540  0.1312  0.0219
22629W        W39103   9.266  15.501  15.188 -0.1040  0.1282 -0.2476
22630W        W39104   3.971   5.237   0.198  0.1904  0.2048 -0.0685
22631W        W39105   9.138  15.556  14.106  0.0203 -0.2216  0.0081
22632W        W39106   1.460  11.785   3.036 -0.3302  0.1450  0.0326
22633W        W39107   4.316   4.566   1.172 -0.1122 -0.1714  0.0343
22634W        W39108   4.258   7.250  13.471  0.1146  0.0885  0.1596
22635W        W39109  17.605  12.759   1.462  0.3767 -0.1086  0.1202
22636W        W39110  11.367   3.518   0.139  0.1534 -0.0761 -0.0211
22637W        W39111   9.109  13.574   3.629  0.2467  0.1559  0.0275
22638W        W39112   2.900   6.662  11.055  0.0713  0.0986  0.1822
22639W        W39113  11.316   9.411  13.140  0.0048  0.1865  0.0385
22640W        W39114  10.209   5.703   4.312  0.2284  0.1406  0.0052
22641W        W39115  11.884   2.445   0.226  0.4847  0.1280  0.0259
22642W        W39116  10.960  10.032  12.561 -0.1336 -0.0461  0.0354
22643W        W39117   5.393   1.333   0.307 -0.1700  0.3495  0.3022
22644W        W39118   7.374  10.554  11.318 -0.0448  0.1378  0.0219
22645W        W39119   8.171   7.764  16.072 -0.0984  0.0043 -0.0062
22646W        W39120  12.110   9.528   2.997  0.2132 -0.0278 -0.0241
22647W        W39121   0.664   9.601   3.009 -0.0144  0.3756  0.0303
22648W        W39122  15.328   6.151  14.016 -0.1944  0.0064  0.0597
22649W        W39123   4.201  13.917   5.245  0.2381  0.0646  0.3102
22650W        W39124  17.771   4.639   4.716 -0.0439  0.0128 -0.0340
22651W        W39125   6.686  12.700   4.991 -0.0873  0.0447  0.3178
22652W        W39126  15.145   9.522   0.508 -0.0636 -0.0339 -0.0024
22653W        W39127  15.778  10.493  14.016 -0.0886 -0.0460 -0.3436
22654W        W39128  17.043   8.503   3.749  0.4156  0.0277 -0.0992
22655W        W39129  14.328   5.090   0.444  0.0345  0.1171  0.0890
22656W        W39130   0.895   1.046  14.650  0.1341 -0.1104  0.0053
22657W        W39131   2.825   9.469   5.815 -0.1490  0.0271  0.1298
22658W        W39132  16.085  11.947   4.608 -0.2996 -0.2087 -0.0021
22659W        W39133  14.283   9.632  15.345 -0.2609  0.1901  0.1173
22660W        W39134  13.944  18.378  15.103 -0.1902  0.0782  0.0801
22661W        W39135   0.169   2.618   0.933 -0.1521 -0.2329 -0.0226
22662W        W39136   5.405  10.558   0.018 -0.1547  0.0900 -0.0940
22663W        W39137   4.141   7.945  16.007  0.1949  0.2993  0.0880
22664W        W39138   0.540   7.435   3.128  0.3252  0.0321  0.2490
22665W        W39139  11.813   2.780   2.667  0.1366 -0.2498  0.3095
22666W        W39140   5.374  18.379  12.684 -0.0317  0.2024  0.0130
22667W        W39141   7.854   0.471  15.311 -0.0488 -0.2384 -0.0894
22668W        W39142   3.330   1.503   3.152 -0.3152 -0.1565 -0.2128
22669W        W39143   9.326  10.437   4.667  0.1291  0.3586  0.2099
22670W        W39144   5.913  13.140  13.031  0.1938  0.2084  0.1242
22671W        W39145   0.359  15.659   0.612 -0.0175 -0.0311  0.1712
22672W        W39146   0.769   0.479  13.414 -0.1219  0.1994 -0.2383
22673W        W39147  17.573  16.674  15.494  0.4683 -0.0153  0.2378
22674W        W39148  13.010  17.178   1.518 -0.1601  0.2309  0.0026
22675W        W39149  11.958   7.896  16.218  0.0102  0.1219 -0.0190
22676W        W39150   5.624  13.235  14.596 -0.0949 -0.0213 -0.0541
22677W        W39151  16.053   3.385   4.551 -0.1093  0.0615  0.1349
22678W        W39152  17.969   1.996   0.652  0.0306  0.1409  0.0613
22679W        W39153   3.557   2.473   1.542  0.0525  0.3073  0.0134
22680W        W39154   5.847  13.448   3.658  0.0843  0.0297 -0.0958
22681W        W39155   5.592  10.845   3.288 -0.1623  0.0039 -0.1998
22682W        W39156  17.113  16.641   4.542 -0.0613  0.3371  0.0953
22683W        W39157  15.374  17.947   3.993  0.5027  0.2528 -0.2336
22684W        W39158  15.615  12.795  13.970 -0.0166  0.4103  0.2373
22685W        W39159  15.102   1.203  13.875 -0.2314  0.0335 -0.0508
22686W        W39160   2.883  16.413  14.754  0.0451  0.0260  0.1747
22687W        W39161   1.575  10.131  15.016  0.2786  0.0066  0.0302
22688W        W39162   4.450  17.234   4.846 -0.2397  0.4015 -0.1957
22689W        W39163   1.970  13.617   4.877  0.2119  0.1563 -0.1897
22690W        W39164  12.385  17.140  13.667 -0.3639 -0.2491  0.0084
22691W        W39165  14.845   1.391   3.479 -0.1688  0.3007  0.0196
22692W        W39166  15.877   9.685   4.731  0.1551  0.2616  0.1288
22693W        W39167   1.944  16.400  16.086 -0.2946 -0.0615  0.1438
22694W        W39168   1.165   5.603   1.748  0.1066 -0.1222 -0.0709
22695W        W39169   0.823   6.123   1.015  0.0412 -0.2074 -0.1194
22696W        W39170   8.042   6.444  15.486  0.2566 -0.1604 -0.2004
22697W        W39171   9.941  10.296   2.356  0.1168  0.1061 -0.0686
22698W        W39172   6.947  10.768   1.433 -0.1680 -0.4073 -0.2292
22699W        W39173  10.453  10.509   1.618  0.0533  0.2153 -0.3649
22700W        W39174   2.642  16.567   2.570  0.2358  0.1761 -0.0389
22701W        W39175   0.403   0.107   1.632 -0.0387  0.1442  0.2149
22702W        W39176   1.244  16.524   4.387 -0.1370  0.2394 -0.1605
22703W        W39177  17.750  14.879  11.029 -0.0462  0.0171  0.2566
22704W        W39178  17.296  11.096  12.975  0.0798 -0.2682 -0.0942
22705W        W39179   8.202   3.734   5.759 -0.0076  0.1768  0.0733
22706W        W39180  11.699   6.414   2.038  0.3981  0.1670  0.2134
22707W        W39181   9.256  15.086   1.538  0.1179  0.0290  0.2960
22708W        W39182  11.343  13.992   0.881 -0.0002 -0.0363  0.0722
22709W        W39183   1.058  14.447  13.494 -0.2305  0.0581 -0.2670
22710W        W39184  13.475  16.242  12.265  0.1158  0.0472  0.0326
22711W        W39185   8.316   9.076   0.899  0.1447 -0.0003 -0.1481
22712W        W39186  15.390   6.291   0.796 -0.0270 -0.1653 -0.1698
22713W        W39187   3.952  12.305  13.504 -0.1042  0.1702  0.3645
22714W        W39188   6.108   4.026  13.431 -0.0321  0.3236  0.0512
22715W        W39189   0.678   6.900  16.172  0.2898 -0.1635 -0.3400
22716W        W39190  12.251   4.740   3.573  0.2546 -0.0167 -0.2414
22717W        W39191  14.966   0.131   0.918  0.0095  0.1228  0.2242
22718W        W39192  16.207  17.953   1.698  0.1030 -0.0315  0.3209
22719W        W39193  16.023   4.940   3.991 -0.0285  0.3454 -0.1782
22720W        W39194   0.313   0.644   4.007  0.3774  0.0239  0.3721
22721W        W39195  12.072   3.537  15.774  0.1757 -0.1264 -0.1198
22722W        W39196  13.131   4.279  12.380 -0.0271 -0.1141  0.1989
22723W        W39197  11.839   6.518  12.724 -0.0554 -0.0183  0.0136
22724W        W39198   6.354   3.214  14.971  0.1876 -0.1152  0.1251
22725W        W39199  14.916  13.895  16.318  0.0637  0.0963  0.3095
22726W        W39200  10.404  16.910   6.253 -0.0843  0.0258  0.0479
22727W        W39201   7.125   6.483  15.013 -0.0539  0.0324 -0.3816
22728W        W39202  10.667  15.463  16.078  0.1569  0.3049  0.1877
22729W        W39203   8.123   3.894   4.858 -0.0420  0.0535 -0.0972
22730W        W39204  12.793   7.018   1.298 -0.0818 -0.0181 -0.0168
22731W        W39205  16.648  12.588   4.901 -0.0267  0.2577 -0.1068
22732W        W39206  10.574   7.014   4.420  0.1077  0.1083 -0.0483
22733W        W39207   8.080   5.639  12.449 -0.0886  0.0437 -0.0667
22734W        W39208   5.656  14.508  13.001 -0.4754  0.1344  0.4599
22735W        W39209   8.087  15.081   2.870  0.1219 -0.2426 -0.0180
22736W        W39210   5.779  15.244   5.208  0.0108 -0.0448  0.1233
22737W        W39211   9.931  14.447   0.679 -0.2036 -0.1138  0.0534
22738W        W39212  11.218  11.667  12.585  0.2446 -0.3006  0.2282
22739W        W39213   2.314   7.060  14.275  0.2073 -0.0494  0.1148
22740W        W39214  13.406  13.943  15.363 -0.2642 -0.0665  0.4386
22741W        W39215  17.832   1.461   1.194 -0.2393 -0.0046 -0.0634
22742W        W39216   8.228  10.419  11.503 -0.1011 -0.2117 -0.0205
22743W        W39217   1.812  16.963   2.459  0.1032  0.2464  0.2350
22744W        W39218  11.082  17.561  14.960  0.0128 -0.3047 -0.0815
22745W        W39219  11.700  11.314  16.272 -0.2778 -0.0566  0.2502
22746W        W39220   5.756  16.589  10.898  0.1079 -0.5071 -0.0247
22747W        W39221  14.736  11.327  16.223 -0.2285 -0.3139  0.0551
22748W        W39222  11.508   9.557  15.877  0.1273  0.0415 -0.2448
22749W        W39223   6.250  15.822  14.241 -0.1409 -0.1055 -0.1153
22750W        W39224   1.623   8.622   4.427 -0.0030 -0.0000  0.4241
22751W        W39225  14.592   2.542   2.324  0.1762  0.2147  0.0344
22752W        W39226   4.116   5.765   0.256  0.0444  0.0803  0.2555
22753W        W39227  15.094   5.622  15.957 -0.1729 -0.1557 -0.0765
22754W        W39228   9.509   8.417   3.618  0.2408 -0.3583 -0.0635
22755W        W39229  12.287   5.198   2.181  0.0435  0.1723 -0.0752
22756W        W39230  13.233  10.319  15.168  0.0371 -0.1169  0.1981
22757W        W39231   8.389  15.646  15.635 -0.0355  0.2583 -0.1091
22758W        W39232  10.461   1.237   1.188 -0.0828 -0.0423 -0.2170
22759W        W39233   0.908   1.997  11.630 -0.0723  0.1639  0.1944
22760W        W39234  13.838  16.373  14.009 -0.3133 -0.1015 -0.2631
22761W        W39235   2.915  14.940  15.942  0.0792 -0.0074  0.0399
22762W        W39236  17.993  14.355  12.056 -0.0956 -0.1008  0.0955
22763W        W39237   4.149  11.941  14.392  0.2397  0.0739 -0.5374
22764W        W39238  17.390   7.567   0.131  0.5306  0.2150  0.0869
22765W        W39239   2.200   3.667  12.342 -0.0294  0.1375 -0.5048
22766W        W39240   5.331  18.340   1.473  0.1229 -0.1949  0.0554
22767W        W39241   2.098   6.293  12.762 -0.1321 -0.2565  0.0104
22768W        W39242   7.960  12.248   4.996 -0.1675 -0.3458 -0.0183
22769W        W39243  12.931   6.515   2.641 -0.0783  0.0780 -0.3237
22770W        W39244   3.930  16.195   0.302 -0.0018 -0.0992 -0.0731
22771W        W39245   7.862  17.787  16.083 -0.1560 -0.0812  0.2217
22772W        W39246   1.179  11.692  11.771  0.1672 -0.5148  0.0325
22773W        W39247  11.843   0.493   0.437  0.1208  0.3485  0.1209
22774W        W39248   5.512  16.805  11.707  0.2198  0.4095  0.0182
22775W        W39249   5.313   8.825  15.165 -0.1758  0.0406 -0.1510
22776W        W39250   2.035   5.635   3.343  0.2014  0.1297  0.5292
22777W        W39251  15.573   0.638   3.817  0.4764 -0.1712 -0.1991
22778W        W39252  16.261   3.807  12.227 -0.0589  0.0695  0.0872
22779W        W39253   9.503  17.997   2.107 -0.2104 -0.1630 -0.0418
22780W        W39254  17.605  11.815  14.601  0.0102 -0.1404 -0.1925
22781W        W39255  16.957   4.001  14.083 -0.1635  0.0515 -0.5016
22782W        W39256   2.660   3.798   1.902 -0.2452  0.5029 -0.0414
22783W        W39257  13.339   7.901  15.060 -0.0023 -0.1465 -0.0676
22784W        W39258   5.992   4.563   2.897 -0.3676  0.0877 -0.0066
22785W        W39259  15.847   8.623  13.353 -0.0280  0.0055  0.2193
22786W        W39260  18.042   3.880   0.866 -0.1782 -0.2153  0.1824
22787W        W39261   2.367   3.767  11.891 -0.0133 -0.0451 -0.0390
22788W        W39262   8.395   2.217   1.558  0.1545 -0.3602  0.2030
22789W        W39263  15.888  18.371   5.382 -0.2657  0.0756  0.1015
22790W        W39264  16.935  14.137   3.446 -0.2767  0.2431  0.1333
22791W        W39265  10.416  12.533  15.948 -0.1700  0.2691  0.1994
22792W        W39266   2.509  12.906  13.942 -0.0724 -0.0856 -0.0389
22793W        W39267   6.962  15.295   5.947  0.3798 -0.1870 -0.1400
22794W        W39268  10.091  11.100  12.756  0.2996  0.0125  0.1066
22795W        W39269   1.236   1.416  15.902  0.2066  0.2553  0.0630
22796W        W39270  13.939   8.577   9.786 -0.1284 -0.0443  0.1844
22797W        W39271   2.138  13.144   1.630 -0.4800  0.1571  0.2342
22798W        W39272  13.991   6.506  12.297 -0.0245  0.0906 -0.0371
22799W        W39273   8.073  12.922  15.427  0.1724 -0.2020 -0.2133
22800W        W39274  12.302   9.202  12.491 -0.1145 -0.0634  0.1333
22801W        W39275   9.615   4.908  14.220 -0.2931 -0.1349  0.1273
22802W        W39276   5.033   2.943   6.099 -0.0528 -0.0161 -0.3123
22803W        W39277  16.680   3.762  11.916  0.0985 -0.3174  0.1769
22804W        W39278  11.839  13.780   1.587 -0.1587  0.0951  0.1209
22805W        W39279  11.681  11.255   2.099 -0.2349  0.0560 -0.0369
22806W        W39280   4.544  10.756   0.036 -0.0450 -0.1244 -0.0436
22807W        W39281  10.989  13.505  11.608  0.0572 -0.0499 -0.0932
22808W        W39282   0.821   9.174  10.686 -0.3518 -0.1110  0.1076
22809W        W39283  13.814   8.092   0.620  0.0499 -0.1097  0.2374
22810W        W39284  12.691   3.177   1.830 -0.1829  0.0500 -0.0430
22811W        W39285  10.544   9.228  12.174  0.5422 -0.0315  0.0028
22812W        W39286   5.876   6.681   0.015  0.0698 -0.0428  0.2409
22813W        W39287   4.353  11.824   0.141  0.0503  0.0404 -0.0079
22814W        W39288  12.559  17.268  12.615  0.0862  0.0600  0.2173
22815W        W39289  10.959  16.340   5.740  0.1255 -0.2232 -0.0068
22816W        W39290   9.093   9.622  10.417 -0.3243 -0.3737 -0.3141
22817W        W39291   9.608  18.384   3.399  0.3863  0.0683  0.2318
22818W        W39292  11.699   7.833   1.802  0.0624  0.2649 -0.0733
22819W        W39293   8.155  12.136   1.671 -0.1056 -0.1021 -0.1790
22820W        W39294  17.139  15.294   1.646  0.1674  0.0934  0.3399
22821W        W39295   5.042   9.223  13.423  0.1859 -0.1565  0.0336
22822W        W39296  17.087  15.936  12.931 -0.4189 -0.3324  0.0868
22823W        W39297  10.532  13.448  13.405  0.0999 -0.3268 -0.0371
22824W        W39298  12.450   6.174  15.724  0.0398 -0.0860 -0.3089
22825W        W39299   8.477   9.847  16.146  0.1304  0.1880  0.0526
22826W        W39300  16.403   9.300  14.312 -0.3523 -0.0946 -0.0256
22827W        W39301  14.335   5.508  11.097 -0.2015  0.0649 -0.1584
22828W        W39302   5.033  10.211  13.132  0.0457 -0.0854 -0.2806
22829W        W39303   3.747   9.478   1.667 -0.0939 -0.3802  0.1819
22830W        W39304  12.019   7.544   3.549 -0.2414  0.1304  0.0264
22831W        W39305   3.260   7.565  14.369  0.1128 -0.2124  0.2599
22832W        W39306   4.597   8.915   4.520  0.1406  0.2571 -0.1293
22833W        W39307   2.501   7.005  15.093  0.0576  0.3669  0.3162
22834W        W39308   5.195   3.768  13.158  0.1361  0.0804 -0.2209
22835W        W39309  13.740   9.205  12.681 -0.2459 -0.1332  0.0779
22836W        W39310   2.208   1.093   4.405 -0.0245  0.1222 -0.1208
22837W        W39311  15.347  16.600  13.009 -0.0644 -0.1798  0.1240
22838W        W39312   9.579  15.929  12.766 -0.0741 -0.1597 -0.2321
22839W        W39313   0.928   5.101   6.201  0.3648 -0.2758  0.3443
22840W        W39314  14.370   1.010   2.644  0.1102 -0.1725  0.1374
22841W        W39315  12.248  15.253  16.033  0.1037  0.3945  0.4023
22842W        W39316  11.295   5.877   1.163  0.4406  0.1491 -0.2221
22843W        W39317  16.368   1.314   5.559  0.3690 -0.0730  0.0255
22844W        W39318  13.661   7.296  11.850 -0.1645 -0.0416  0.0052
22845W        W39319  14.707  12.737  15.947 -0.1797 -0.0315 -0.0060
22846W        W39320   4.195   4.354   4.529 -0.3310  0.1276  0.0831
22847W        W39321   8.014   3.837   1.294  0.4096 -0.0537 -0.0048
22848W        W39322  11.895   8.155   3.777 -0.0437  0.2298  0.1882
22849W        W39323   6.443   2.335   3.176 -0.0133 -0.0473  0.0180
22850W        W39324  13.191   1.357   0.075  0.2312  0.2702  0.4371
22851W        W39325  16.563  13.258  13.630  0.0535  0.1104 -0.0590
22852W        W39326   6.837  11.339  14.133  0.0333 -0.1209 -0.1192
22853W        W39327  17.406  13.857  15.294 -0.4751 -0.0532 -0.1015
22854W        W39328  13.057  14.836   4.691  0.2408  0.2078  0.3140
22855W        W39329   6.536  11.962   2.654  0.3258 -0.0165  0.3448
22856W        W39330  14.097   3.231   1.784 -0.2932 -0.0701 -0.0025
22857W        W39331  13.769   3.080   1.436  0.0772  0.0351  0.1838
22858W        W39332   3.015  13.304   5.019 -0.2644 -0.0768  0.1972
22859W        W39333   5.864   6.587  13.773 -0.0460 -0.0016  0.0400
22860W        W39334   3.085   5.022   0.594 -0.1806 -0.3002  0.0625
22861W        W39335  15.018   3.944  12.229 -0.0007  0.0260 -0.1377
22862W        W39336   7.430   0.587   1.934 -0.1973  0.1328  0.0812
22863W        W39337   5.228   8.872   3.668  0.0940  0.2476  0.2668
22864W        W39338   9.658   0.829   5.093 -0.0514 -0.2371 -0.3267
22865W        W39339   0.523  14.867  10.696  0.1185 -0.0894 -0.0479
22866W        W39340   6.144  14.812   1.096 -0.0245  0.1875 -0.0785
22867W        W39341  16.816   7.182  15.067 -0.0014  0.2712  0.0850
22868W        W39342   0.453  16.547   6.505  0.0402  0.1585  0.3342
22869W        W39343  15.990  12.567   2.882 -0.0385  0.2410 -0.0559
22870W        W39344  16.989  11.279  11.032  0.0942  0.1357 -0.0806
22871W        W39345  11.415  11.925   3.519 -0.2573  0.1381 -0.0460
22872W        W39346   6.040  14.931  13.741  0.3731 -0.1013  0.0892
22873W        W39347  18.191  12.444  16.138 -0.2166 -0.4379  0.1138
22874W        W39348   5.425  11.261   0.855 -0.2740  0.2582  0.3501
22875W        W39349   4.162  10.510  14.002 -0.1603  0.0326 -0.0277
22876W        W39350   2.859  12.032  14.612 -0.0634  0.2926 -0.2054
22877W        W39351   1.452   5.548   4.588 -0.1023  0.0109 -0.0744
22878W        W39352  11.805   8.192  15.177  0.2290 -0.0171 -0.1520
22879W        W39353   7.463  10.584   0.302  0.3008  0.0660  0.0689
22880W        W39354   5.972   0.348  13.866 -0.3496 -0.1847 -0.0198
22881W        W39355   9.423   8.999  13.164 -0.1444  0.3074  0.0733
22882W        W39356  13.394   3.524   2.507  0.3385  0.2831  0.0042
22883W        W39357  10.244  11.543   5.090 -0.1821 -0.0426  0.1157
22884W        W39358   7.114  13.432   3.161 -0.1579  0.0010  0.1995
22885W        W39359  12.843   8.594  11.721  0.2343 -0.3472 -0.1260
22886W        W39360  16.085   0.238   0.289 -0.1845  0.0475  0.1563
22887W        W39361  12.769   8.461  10.728  0.2218 -0.1164  0.2361
22888W        W39362   7.766   7.246   2.969  0.0220 -0.2508  0.2131
22889W        W39363   4.101   1.829   5.730 -0.0841  0.2032 -0.0964
22890W        W39364  17.988  15.143   5.928  0.0464  0.2334  0.1115
22891W        W39365   6.554   7.710   1.625 -0.0765  0.1390  0.0352
22892W        W39366  16.593   2.766   1.178  0.0857  0.0524  0.0118
22893W        W39367  18.159  11.545  13.446 -0.1283 -0.0196 -0.0415
22894W        W39368  12.365  16.077   5.953 -0.2197  0.0059 -0.3814
22895W        W39369  10.689  16.603   3.005  0.2115 -0.4585  0.2890
22896W        W39370   6.986   9.989   5.323 -0.1848 -0.2384  0.3318
22897W        W39371   8.308   2.477   5.122 -0.1244 -0.0252 -0.5019
22898W        W39372  13.340   7.149  14.514  0.1998  0.0500  0.1805
22899W        W39373   6.973   0.884   4.907  0.1714 -0.3556 -0.5000
22900W        W39374   9.541  17.591  11.344 -0.0867  0.3603  0.2715
22901W        W39375  11.566  16.158   6.366 -0.2322 -0.1845  0.0350
22902W        W39376   6.568  14.840   4.828 -0.1056  0.1265 -0.1405
22903W        W39377   4.705  15.907   5.433  0.0278  0.0619  0.1115
22904W        W39378  12.639  13.988  13.992  0.2537 -0.0488 -0.1124
22905W        W39379  14.290   7.573  14.483  0.1195 -0.1698 -0.2068
22906W        W39380   5.393   4.671  14.523 -0.2549 -0.1536 -0.0362
22907W        W39381  14.411   6.761   4.317 -0.0207  0.0929 -0.0990
22908W        W39382  11.770   0.498  12.848  0.3486 -0.0302  0.2429
22909W        W39383   6.309   9.255   4.006 -0.1813 -0.1117  0.0789
22910W        W39384   3.268  12.256  12.603  0.2708  0.1261  0.0073
22911W        W39385  10.898  15.297   5.406 -0.2167 -0.2195 -0.2331
22912W        W39386   3.444  14.600   1.092 -0.4332 -0.0075  0.2117
22913W        W39387   2.946  15.650  14.784  0.1790 -0.0786  0.2036
22914W        W39388  12.348   6.516  14.028  0.2762  0.0061  0.1155
22915W        W39389  16.959   7.756   4.949 -0.1107 -0.0499 -0.3079
22916W        W39390   8.852  10.016  12.854 -0.3304 -0.0314 -0.4326
22917W        W39391   1.900  13.441  14.454  0.0026  0.4415  0.0692
22918W        W39392   5.796  10.998   4.391 -0.1560  0.1011 -0.4189
22919W        W39393  14.240   0.233   3.966 -0.0432 -0.4316  0.0202
22920W        W39394   5.971   3.205   4.581  0.0839  0.0273  0.1100
22921W        W39395   0.754   7.130   0.323  0.0496 -0.1063 -0.2093
22922W        W39396  13.443  10.933   5.210  0.2635  0.0144 -0.1874
22923W        W39397   5.057   8.786  12.113 -0.0648 -0.3044  0.0999
22924W        W39398  18.242   3.484   5.123  0.1307 -0.2395 -0.0862
22925W        W39399  10.192   6.259  11.040  0.2529  0.2279  0.0368
22926W        W39400   0.532  14.982  15.548  0.0215  0.2309  0.0484
22927W        W39401  17.363   7.756  15.311 -0.1518  0.1022  0.1615
22928W        W39402  12.548  16.091   5.412 -0.0214  0.0771  0.0877
22929W        W39403  13.855   6.552   5.448  0.1239  0.2904 -0.2624
22930W        W39404  15.703  13.834  11.809 -0.0251 -0.0558 -0.0791
22931W        W39405  16.197  10.148   2.446 -0.1904 -0.3778  0.1298
22932W        W39406   8.099   2.530   4.653  0.1260  0.0231 -0.0439
22933W        W39407  17.912  10.179  15.570 -0.1001  0.0904  0.0032
22934W        W39408  10.196  13.827  14.838  0.0731 -0.0022  0.2017
22935W        W39409  17.354   9.184  14.777  0.2021  0.0774  0.1275
22936W        W39410  10.147  11.946   1.410 -0.0744 -0.0599 -0.0355
22937W        W39411  13.766   0.712  12.643  0.1668  0.2007 -0.2991
22938W        W39412   7.162   8.343   1.516 -0.3591 -0.2909  0.0133
22939W        W39413   9.985  12.737   5.447 -0.1573  0.1995 -0.1590
22940W        W39414  11.563  13.882   5.643 -0.0161 -0.0292 -0.0074
22941W        W39415  12.673  15.444   0.850  0.0528  0.2560 -0.1034
22942W        W39416   3.752   1.401   1.101 -0.0660  0.1770  0.1705
22943W        W39417  18.249   3.903   3.579 -0.1599 -0.1834 -0.0322
22944W        W39418  17.362  18.092   0.738  0.0984  0.3050  0.1573
22945W        W39419   6.022  10.064  11.664 -0.0004 -0.2078  0.0203
22946W        W39420  10.771  14.801  13.925  0.0541  0.2430 -0.1589
22947W        W39421  13.593  17.874   4.558 -0.2367  0.2435 -0.1699
22948W        W39422   3.506  17.784   4.799  0.3599  0.0702 -0.2476
22949W        W39423  15.665  11.980   1.719  0.0023 -0.1784  0.2776
22950W        W39424  14.525   2.973  11.533 -0.0705  0.2806 -0.0469
22951W        W39425  13.386   5.013   4.349  0.0413  0.3171 -0.0066
22952W        W39426   6.740   8.296  10.874  0.3596  0.4114 -0.2373
22953W        W39427  14.229  18.000  13.096 -0.0074 -0.4652  0.0013
22954W        W39428  15.445   1.194  15.795 -0.0457  0.2186 -0.2518
22955W        W39429   9.228   2.775   3.424 -0.1098  0.0594 -0.1838
22956W        W39430  12.686  16.772  12.404 -0.0319  0.0518  0.0255
22957W        W39431  11.410   5.556  14.161 -0.1403 -0.0756 -0.0560
22958W        W39432   7.087  13.981  11.703 -0.0996  0.0839 -0.3076
22959W        W39433   0.815  16.578   2.063 -0.4362  0.0669  0.0277
22960W        W39434  13.962  16.115   5.103  0.0669 -0.1011  0.2997
22961W        W39435   3.320   0.323   5.626 -0.0040  0.2315 -0.1327
22962W        W39436   1.035  12.514   1.813 -0.1496 -0.2857 -0.0095
22963W        W39437  11.886  15.733   4.573  0.0645  0.0386 -0.1242
22964W        W39438  17.177   4.736   2.557  0.1472  0.0765 -0.2089
22965W        W39439   4.811   4.011  15.493 -0.0049  0.1690  0.0421
22966W        W39440  17.569   1.710   0.711  0.0368 -0.3808 -0.0257
22967W        W39441   2.510  10.654   2.327 -0.1501  0.2956  0.2848
22968W        W39442   5.616  11.880  11.926  0.2460 -0.0070  0.1972
22969W        W39443   9.445  12.304   0.494 -0.1337  0.1527 -0.1888
22970W        W39444   8.588  14.576   1.019 -0.0584  0.0845  0.2372
22971W        W39445   8.007  10.195  10.472  0.0852  0.1674 -0.1034
22972W        W39446  10.082   6.948   1.443 -0.3705  0.0791 -0.1584
22973W        W39447   5.652  16.594  14.186 -0.3607 -0.1964 -0.2344
22974W        W39448  12.326  17.685   2.585 -0.1937 -0.1516  0.1100
22975W        W39449   4.392   4.274   1.676  0.2800 -0.1439 -0.2201
22976W        W39450  14.883   4.981   2.840  0.1687  0.0185  0.2800
22977W        W39451  16.359  10.277  11.685 -0.0089  0.0969  0.0342
22978W        W39452   3.746  13.273  12.914  0.1449  0.0088 -0.0876
22979W        W39453   7.029  16.281  16.047  0.3976 -0.1203  0.1044
22980W        W39454   7.023   0.443   5.429 -0.0471 -0.0459  0.0205
22981W        W39455  12.428  15.431   3.203 -0.1104 -0.0948  0.6207
22982W        W39456   4.369  13.515  13.726 -0.1734 -0.0996 -0.1245
22983W        W39457   2.034  11.228   1.305 -0.0413  0.2266  0.1726
22984W        W39458   2.484   0.546   6.624 -0.1949 -0.1306 -0.0069
22985W        W39459   6.423   8.382  14.696 -0.1174  0.0763 -0.1196
22986W        W39460  18.223   7.845   0.609 -0.0026 -0.2385 -0.1133
22987W        W39461  15.584   3.219  14.318  0.2270 -0.2609 -0.2152
22988W        W39462   4.873   5.257  11.419 -0.2256 -0.3626  0.0039
22989W        W39463  15.253   5.277  15.150  0.0482 -0.3165  0.0214
22990W        W39464   0.404  18.345   5.196 -0.1710  0.0897  0.1742
22991W        W39465   1.401   1.233  11.427 -0.1265 -0.0564  0.0218
22992W        W39466   2.066  16.233  12.768  0.3431 -0.2039  0.0495
22993W        W39467   9.904   9.654   1.236 -0.0875  0.2563  0.2615
22994W        W39468  14.889  15.965   5.427 -0.1419  0.1219 -0.2904
22995W        W39469  15.262   9.954  12.674 -0.1869 -0.1211 -0.3316
22996W        W39470   5.825  13.609  13.429 -0.0436  0.1620 -0.0908
22997W        W39471  11.045  11.577   5.543 -0.2571  0.0182 -0.1583
22998W        W39472   6.136   4.518  15.534 -0.0501  0.0894 -0.0871
22999W        W39473   0.350   1.752  16.054 -0.1363  0.0265 -0.1345
23000W        W39474  11.736  13.832   0.616  0.1963  0.0109  0.0131
23001W        W39475   5.002  14.518   3.205  0.1741  0.1152  0.2764
23002W        W39476   3.279  16.314  13.855  0.1666  0.2059  0.2952
23003W        W39477   9.381  16.663  11.735 -0.0691 -0.0825 -0.0779
23004W        W39478  15.864   4.187   2.163 -0.3095  0.1728 -0.1227
23005W        W39479   2.064  13.915  15.439 -0.2928 -0.0645  0.4128
23006W        W39480   4.335  14.352  13.242  0.3173  0.2313 -0.1352
23007W        W39481   4.046   0.723   0.290  0.1259 -0.0278  0.3110
23008W        W39482  15.880   6.563   1.475  0.0031 -0.0519  0.1731
23009W        W39483   6.868  12.329  15.555 -0.1263  0.2047 -0.2835
23010W        W39484  11.647  14.835  15.523  0.0451  0.0733 -0.1431
23011W        W39485   1.190  15.589   1.211 -0.1607  0.0447 -0.1699
23012W        W39486   2.546   3.265  15.140  0.2370 -0.3568 -0.4635
23013W        W39487   2.511   9.524  12.896 -0.0208 -0.0753 -0.0138
23014W        W39488   8.693  11.658   4.986 -0.0486  0.1889 -0.0415
23015W        W39489  13.362  17.129   5.746 -0.3742 -0.0894  0.1469
23016W        W39490   9.953  12.821  13.109 -0.1794  0.0171  0.2847
23017W        W39491  16.541  17.532   0.380  0.1878  0.1031  0.0271
23018W        W39492   2.926   7.183  15.909 -0.1874 -0.1722 -0.0268
23019W        W39493   3.037  17.488   4.032 -0.0171  0.1554  0.1224
23020W        W39494  15.843  17.645   4.854  0.2095 -0.1991 -0.5064
23021W        W39495   3.710   9.224  13.329 -0.0782 -0.1498  0.0920
23022W        W39496  11.587   9.081  15.739 -0.4512 -0.0513  0.2521
23023W        W39497  18.211   9.153   2.049  0.0448 -0.1004  0.1472
23024W        W39498   3.646  14.047   2.596 -0.0243 -0.2077 -0.1226
23025W        W39499   2.290   1.312  15.988 -0.2421 -0.1427 -0.0409
23026W        W39500  10.036  15.604  11.819  0.1723  0.1408 -0.1862
23027W        W39501   1.950   1.498   1.941  0.0584 -0.0859  0.4113
23028W        W39502   3.232  12.897   3.900  0.0636 -0.2481  0.0980
23029W        W39503   0.997   6.630   1.177 -0.1784  0.0781  0.3385
23030W        W39504  12.945   5.104  14.932 -0.2938 -0.0494  0.0464
23031W        W39505   3.532  17.268   0.993  0.0346  0.1046 -0.2909
23032W        W39506   6.596   4.328   4.880 -0.0808 -0.0491 -0.0572
23033W        W39507  12.371   6.442  12.857 -0.0009  0.1770  0.0329
23034W        W39508  18.044   1.953  13.842 -0.0238  0.2034 -0.1968
23035W        W39509   7.237  17.589  15.891 -0.0621 -0.1970  0.3848
23036W        W39510   8.556  11.285  15.963 -0.0322  0.2373 -0.3985
23037W        W39511  15.034   8.123  10.955  0.4826 -0.2082 -0.1143
23038W        W39512  14.579  18.395   2.892  0.1489  0.0223  0.0806
23039W        W39513   5.963  14.460   2.070 -0.2386  0.0624 -0.0048
23040W        W39514   0.156   6.753   1.367  0.0156 -0.2850 -0.2924
23041W        W39515   7.434  12.405   2.881  0.1538 -0.1998  0.1748
23042W        W39516   0.149   6.381  15.022  0.1932 -0.3239  0.1056
23043W        W39517   9.786  13.863  13.927 -0.2706 -0.0572 -0.1032
23044W        W39518   4.306  12.827  14.763 -0.0998 -0.1126 -0.0138
23045W        W39519   2.600  14.777   2.822 -0.3501  0.0863  0.2525
23046W        W39520  15.560   3.804   0.178  0.0949  0.1661  0.0353
23047W        W39521  16.348   5.424  13.813  0.1064 -0.1113  0.3127
23048W        W39522  18.318  12.810  11.579 -0.0445  0.4752  0.1168
23049W        W39523   5.389  14.638  14.346 -0.1720 -0.0794 -0.3084
23050W        W39524  11.288   6.435   4.228 -0.2953  0.1883 -0.2451
23051W        W39525  16.523  11.202  15.378  0.1232 -0.2808 -0.2504
23052W        W39526   6.780   1.336  12.134  0.1484 -0.4151 -0.1363
23053W        W39527   9.200  12.405  13.386 -0.1157 -0.1677  0.0139
23054W        W39528   1.427   6.303  12.805 -0.3223  0.0628 -0.1460
23055W        W39529   9.291   2.388  12.138  0.4429 -0.2659  0.0687
23056W        W39530  17.897   7.676  15.453  0.0957  0.2253 -0.1230
23057W        W39531  16.906   5.546  11.889  0.0072  0.2261  0.1022
23058W        W39532  14.505   9.279  16.191  0.0184 -0.1284 -0.3324
23059W        W39533   6.826   2.118   3.395  0.0252  0.3353 -0.2340
23060W        W39534   4.940  17.375  15.918 -0.2457 -0.0759 -0.1860
23061W        W39535  12.546   7.867  15.799 -0.0817 -0.1893 -0.1349
23062W        W39536   1.285  15.425  15.130 -0.0718 -0.3094 -0.3212
23063W        W39537   1.322   1.356   0.757  0.0584 -0.0927 -0.0740
23064W        W39538  12.969  11.348  11.804  0.2385 -0.1847 -0.0555
23065W        W39539   4.326   3.268  13.980  0.2215 -0.0611  0.0857
23066W        W39540  15.890  15.521   0.889  0.2224 -0.3939 -0.0963
23067W        W39541  17.836  14.881   1.749  0.0640  0.2732  0.1885
23068W        W39542  10.319  17.305  16.051  0.0288 -0.1823 -0.0586
23069W        W39543   1.408  16.881   3.515 -0.1105  0.1752 -0.1193
23070W        W39544   3.255   0.908   0.889  0.2803 -0.4249  0.1019
23071W        W39545   1.791  12.822  15.364 -0.2472  0.1912  0.0797
23072W        W39546   3.629   0.839   3.857 -0.3116  0.0188  0.0657
23073W        W39547   1.916   2.395   1.547  0.1536 -0.2535 -0.0351
23074W        W39548   9.341   2.704  15.192 -0.0179  0.0228 -0.3392
23075W        W39549  18.245  14.426  16.245 -0.0092  0.0004 -0.1602
23076W        W39550  15.699   6.998  14.462  0.0653 -0.0360  0.1509
23077W        W39551  16.456  11.332   0.782 -0.1262 -0.0789  0.0366
23078W        W39552  16.304   7.329  16.017  0.1566 -0.0163 -0.1271
23079W        W39553  16.960   3.812  13.180 -0.2812  0.3906  0.0983
23080W        W39554  14.098  16.777  12.384  0.1411  0.0687  0.0803
23081W        W39555  13.754  16.478  12.719  0.0174 -0.3248 -0.1725
23082W        W39556  13.034   0.135  15.372  0.1903 -0.3821  0.2879
23083W        W39557   1.759   7.350   0.987 -0.1455  0.1754 -0.2463
23084W        W39558   3.270   2.152   4.296  0.1370  0.2068 -0.1994
23085W        W39559  15.916  10.927   1.980  0.2715 -0.2518  0.1333
23086W        W39560  16.147   0.696  15.068 -0.3183 -0.1452 -0.1197
23087W        W39561  16.166  10.455   4.719  0.1076  0.1724  0.1120
23088W        W39562  13.428   1.574  11.661 -0.0013  0.2492  0.0263
23089W        W39563   5.035   5.923   2.422 -0.1908  0.0753  0.1078
23090W        W39564  13.690  14.839  13.600  0.0986 -0.0575  0.1023
23091W        W39565  11.224   4.794  15.856 -0.2444 -0.0024  0.0340
23092W        W39566  15.746  15.453   5.586 -0.0554  0.0682  0.1063
23093W        W39567   0.209  18.199   1.992  0.1850 -0.1520  0.1819
23094W        W39568  17.956   3.041  14.382  0.1258 -0.1120 -0.2596
23095W        W39569  14.441   9.784   1.574 -0.0870  0.1245 -0.0047
23096W        W39570  14.467   5.035  13.917  0.1037 -0.0898  0.1163
23097W        W39571  10.344  10.809   0.516  0.1828 -0.0585  0.0340
23098W        W39572  11.099  12.653  15.081  0.1193 -0.1091 -0.0769
23099W        W39573   5.038  13.615  12.565 -0.2615 -0.1089 -0.0157
23100W        W39574   8.344   9.258  15.959  0.1721  0.3508  0.0062
23101W        W39575   8.903   0.863  12.165  0.0611 -0.0137  0.0749
23102W        W39576   1.858   2.735   2.443  0.2108  0.1645  0.1284
23103W        W39577  11.746   2.510   3.965  0.0141 -0.0707 -0.1043
23104W        W39578   8.014  10.188   5.434 -0.2585 -0.2782 -0.3018
23105W        W39579   5.768   4.178   6.170 -0.2077 -0.1726 -0.1061
23106W        W39580  15.923   2.684   1.806 -0.1550 -0.1908  0.0364
23107W        W39581  13.414  12.714  13.734  0.1455  0.0511 -0.0699
23108W        W39582  10.595  11.093  12.301  0.0495 -0.2762  0.0785
23109W        W39583  12.537   5.338  14.127 -0.2230  0.0373 -0.2149
23110W        W39584   5.722  18.269   5.539  0.3264 -0.3169  0.2753
23111W        W39585   3.789  10.836  15.928 -0.0114 -0.1061 -0.4397
23112W        W39586  12.985  13.827  12.401 -0.0813 -0.1890  0.2698
23113W        W39587   2.822   9.479   1.651 -0.2275 -0.0296  0.1285
23114W        W39588   6.521  13.479  15.947  0.0515 -0.2952 -0.0717
23115W        W39589   8.846   4.933  11.751 -0.0686  0.0897  0.1920
23116W        W39590  13.646   8.001  14.109  0.0506  0.0737  0.2901
23117W        W39591  10.456   5.094   9.724 -0.1062 -0.1147 -0.1352
23118W        W39592  15.718   4.500  13.241  0.3598  0.1055 -0.2902
23119W        W39593  13.057   4.073   4.120  0.1047  0.1957  0.1745
23120W        W39594   8.416  16.182   5.675  0.0907 -0.0914  0.1272
23121W        W39595   8.279  13.378  15.198 -0.0425  0.1417  0.1279
23122W        W39596   0.514   0.241   4.333 -0.0563 -0.1509  0.1492
23123W        W39597  16.442   3.672   4.320 -0.2486  0.2240  0.2201
23124W        W39598  17.670  11.698   2.349 -0.2422 -0.0753  0.0134
23125W        W39599   9.345  11.906   5.172 -0.0107 -0.2327  0.1540
23126W        W39600   9.857  13.618   0.648 -0.3092 -0.2113 -0.1926
23127W        W39601  15.729  14.207   3.932  0.1372  0.1782  0.1519
23128W        W39602  16.487   2.862   4.875 -0.1688 -0.1222 -0.1085
23129W        W39603  15.694   3.047  13.469 -0.3058  0.2108 -0.1308
23130W        W39604  11.063  11.802   4.961 -0.0785 -0.0068 -0.1111
23131W        W39605  10.452   1.085   4.783 -0.0647 -0.3161 -0.3521
23132W        W39606   7.313   9.208   2.407  0.2599  0.4329  0.2595
23133W        W39607   1.045   5.374   4.174 -0.0584  0.2021  0.0533
23134W        W39608  10.240   9.414  12.704 -0.0860 -0.0804  0.2462
23135W        W39609  15.807  15.981   1.043  0.0206 -0.1535 -0.3261
23136W        W39610   4.747  12.472   3.785  0.0835 -0.4045 -0.2859
23137W        W39611  18.121   3.481   0.612  0.0521 -0.1011 -0.3046
23138W        W39612   3.690   5.158   2.507 -0.0083  0.0518  0.1947
23139W        W39613   7.572   2.271  15.755  0.1168 -0.0425 -0.2057
23140W        W39614   5.858   9.786   2.246  0.4305  0.2165  0.2744
23141W        W39615  14.803  18.048   2.486  0.0644  0.2034 -0.1637
23142W        W39616   7.178  14.062   2.437 -0.1858 -0.0052  0.0657
23143W        W39617   1.197  15.703   2.512  0.3142 -0.1543  0.2646
23144W        W39618  10.173  16.507  13.822  0.1189 -0.2098 -0.1781
23145W        W39619  15.634   3.372   4.861 -0.1535 -0.0771  0.0534
23146W        W39620   1.099   4.774  10.986  0.1038 -0.1355  0.1841
23147W        W39621   9.545  14.063  12.555  0.0317 -0.0626  0.0630
23148W        W39622   6.351   4.168   1.113  0.2297 -0.0861 -0.1206
23149W        W39623  18.171  17.969   5.543  0.0275 -0.2141  0.0634
23150W        W39624  16.529   1.378   5.087 -0.0088 -0.1828 -0.2383
23151W        W39625   2.277  14.011  16.078  0.0942 -0.0578 -0.0318
23152W        W39626   1.061  18.004   1.539 -0.2169 -0.2871  0.1367
23153W        W39627   4.385   1.653   6.183 -0.1373 -0.0060  0.0204
23154W        W39628   6.543   3.599  11.775  0.1221  0.0548 -0.0189
23155W        W39629   7.412  12.469  15.655 -0.1239 -0.0685 -0.3820
23156W        W39630   5.244   7.477  14.571  0.1534  0.0099 -0.1158
23157W        W39631   0.697   3.897   1.881 -0.1201 -0.0848  0.3754
23158W        W39632  14.930   5.671   0.078  0.0930 -0.1609 -0.2240
23159W        W39633   2.167   4.134   4.616 -0.1848 -0.2020 -0.0398
23160W        W39634  17.437  16.715   3.388 -0.4819  0.2484 -0.1103
23161W        W39635   2.053   9.794   5.162 -0.3333 -0.0459  0.1045
23162W        W39636   3.345   4.135  12.380 -0.1451 -0.1182 -0.0343
23163W        W39637  12.307  10.263  10.927  0.0036 -0.0845 -0.0510
23164W        W39638   5.330   1.268   5.843  0.2286 -0.1269  0.0483
23165W        W39639   3.006   6.615   4.100  0.2592 -0.1406 -0.2526
23166W        W39640   2.628   1.899  15.401 -0.2505 -0.1766  0.0925
23167W        W39641  11.001  10.357   1.560 -0.0020 -0.0791 -0.0989
23168W        W39642   2.021   9.045  12.337  0.0631 -0.1629 -0.2130
23169W        W39643  10.366   3.704   3.979  0.0069  0.2100  0.1746
23170W        W39644  17.092   8.122  10.291  0.1401  0.1969  0.2978
23171W        W39645  10.604  10.964  13.271 -0.3790 -0.3954  0.1922
23172W        W39646   0.094   7.619  14.149  0.0985 -0.1193 -0.1046
23173W        W39647   9.253  16.030   3.301 -0.0407  0.0284  0.0780
23174W        W39648  17.468   9.635  15.506  0.0355 -0.2709 -0.0800
23175W        W39649   7.757   2.633  14.251  0.0744  0.0973  0.2086
23176W        W39650   2.718  10.575  12.911  0.2476  0.1488  0.3544
23177W        W39651   0.673   3.827   0.651 -0.0382 -0.2491 -0.0980
23178W        W39652   4.585   8.873  12.058  0.5632  0.1697  0.2527
23179W        W39653   9.688   2.709   4.267  0.0166  0.0957 -0.0647
23180W        W39654   2.143  11.315   0.451  0.2390  0.1981 -0.1523
23181W        W39655  13.649  17.171  14.026  0.3508  0.0185 -0.1141
23182W        W39656   2.718  15.117   0.784 -0.1914 -0.2769  0.1192
23183W        W39657  16.979   8.054   1.970 -0.1139 -0.0545  0.0178
23184W        W39658  16.319  17.173   4.652 -0.1414  0.0118 -0.1400
23185W        W39659   9.476   8.753  14.478  0.0820 -0.0511  0.2066
23186W        W39660  17.778  11.918  10.340  0.0590  0.0889  0.4882
23187W        W39661   9.176   8.534   0.326 -0.0625 -0.1668 -0.1366
23188W        W39662   0.544  11.859   0.873  0.1787 -0.0672 -0.0867
23189W        W39663  15.011   5.678   4.565 -0.0508 -0.1678 -0.1201
23190W        W39664   9.918  10.774   1.324 -0.0866  0.0900 -0.0900
23191W        W39665  13.974  13.297  14.831 -0.4756 -0.1863 -0.0411
23192W        W39666  16.866   6.123  16.261 -0.2223  0.1457 -0.2404
23193W        W39667  12.586  12.346   3.283 -0.0995 -0.1639 -0.0812
23194W        W39668  16.410  11.831   0.602 -0.1651 -0.1297 -0.3835
23195W        W39669   6.090  16.793  14.982 -0.2145  0.1786  0.2143
23196W        W39670   3.511   3.834  11.581  0.1102 -0.2132  0.1279
23197W        W39671  17.151  17.326   4.849  0.3530  0.3480  0.3032
23198W        W39672   9.710   5.669  13.790  0.0351  0.1506  0.2797
23199W        W39673  10.191   6.014  13.732 -0.1509  0.5044 -0.1335
23200W        W39674   9.462   1.910   3.014 -0.2458 -0.0675  0.0696
23201W        W39675  17.181   2.205   2.953 -0.0770 -0.0140  0.1048
23202W        W39676   2.049   5.382   0.947  0.5139 -0.1640  0.2534
23203W        W39677   3.764   3.029   0.778  0.0865 -0.0702 -0.1569
23204W        W39678   5.315   7.072  12.666 -0.1234  0.1144 -0.0416
23205W        W39679   1.866  10.871  14.373  0.1485 -0.2827 -0.2493
23206W        W39680  12.463  16.142   0.789 -0.1669 -0.0006 -0.0504
23207W        W39681  13.444   9.974   2.098 -0.0729 -0.0873  0.1069
23208W        W39682   2.779  18.027  14.080  0.2122  0.2183  0.0358
23209W        W39683   6.613  17.910  13.492  0.0083 -0.3196 -0.2773
23210W        W39684   9.563  16.155  15.386 -0.0820  0.0010 -0.2151
23211W        W39685   1.009  10.858  11.519  0.0885  0.2886 -0.1703
23212W        W39686  16.791  13.846   0.002  0.1942  0.0657  0.0325
23213W        W39687  14.471   3.039   1.500  0.0790 -0.2055  0.0920
23214W        W39688   6.218   5.568   3.621  0.1106 -0.0968  0.3202
23215W        W39689   9.844  16.610   1.730 -0.2635  0.0417  0.1154
23216W        W39690  13.947   8.229  15.654 -0.1795 -0.0411  0.2663
23217W        W39691  16.669   2.847  12.119 -0.0091  0.1322 -0.0424
23218W        W39692  10.993  12.466  14.644  0.0922 -0.3444 -0.0595
23219W        W39693  10.448  14.354   0.170 -0.3850 -0.1342  0.0610
23220W        W39694  16.250   9.843  14.010  0.1133  0.0719  0.0224
23221W        W39695   6.627   9.381  11.472 -0.0064  0.1930 -0.0044
23222W        W39696   9.700  11.221   1.852  0.0714  0.0353 -0.3987
23223W        W39697  14.867   6.984   4.497 -0.1949 -0.1270  0.1891
23224W        W39698   0.979   4.904   0.187 -0.3379  0.1071  0.1392
23225W        W39699  10.282   7.327  15.365  0.1743  0.3555  0.2666
23226W        W39700   3.010   4.178  15.289  0.3068  0.1894  0.0969
23227W        W39701  12.330   5.315   5.586 -0.0780 -0.0741 -0.0917
23228W        W39702  13.776  12.407   3.437 -0.0580  0.1197 -0.0384
23229W        W39703   8.365  11.773  13.504  0.0226  0.0288 -0.0742
23230W        W39704  13.206  13.774   5.813  0.0307 -0.0952 -0.0951
23231W        W39705   6.402  11.370   3.993 -0.0309  0.0195  0.3097
23232W        W39706  17.045  11.520  12.985  0.0154  0.3221  0.1397
23233W        W39707   4.108  16.197   1.480 -0.0047  0.1103 -0.2571
23234W        W39708   3.891   5.239   3.842 -0.2109  0.1122  0.1112
23235W        W39709   3.896   3.351   3.878  0.2151  0.1725 -0.2569
23236W        W39710  14.734  18.150  11.527 -0.0002 -0.1454 -0.0092
23237W        W39711   7.603   0.287  14.500 -0.0585 -0.0189 -0.1571
23238W        W39712   2.751   9.355  14.923 -0.1727 -0.2243  0.3420
23239W        W39713  15.899  13.266   3.840  0.0301  0.1682  0.0747
23240W        W39714   0.485  11.416   5.268 -0.2651 -0.1509  0.1493
23241W        W39715   4.459  17.418  13.157  0.1462 -0.0650 -0.0076
23242W        W39716   1.500   4.453  12.565 -0.2658 -0.1875 -0.2747
23243W        W39717  12.340  10.096   4.359  0.0878  0.3166 -0.0322
23244W        W39718  13.880   9.787  14.065 -0.2757  0.2071 -0.0840
23245W        W39719   7.151  10.589  14.685 -0.1051  0.1554 -0.1134
23246W        W39720   0.107   9.893  11.423 -0.0539 -0.0599 -0.4899
23247W        W39721  17.818  17.538   3.175 -0.1006  0.4058 -0.1045
23248W        W39722   3.050  14.571   4.375  0.0538 -0.1145 -0.0318
23249W        W39723  13.499  12.419  15.120 -0.0254 -0.0731 -0.0357
23250W        W39724   9.924  12.320  11.004  0.2304  0.1239  0.0814
23251W        W39725  15.406  10.793  13.049  0.1995 -0.1498  0.0361
23252W        W39726   8.999   6.802   1.173 -0.0377  0.1856 -0.1078
23253W        W39727  14.995  18.248  14.762 -0.1928 -0.2946  0.0211
23254W        W39728  14.791   1.153   5.648  0.2515 -0.4903  0.2799
23255W        W39729  10.649   9.756  14.244 -0.3219  0.1460 -0.0120
23256W        W39730   8.470  16.549   1.785  0.1371  0.1458  0.0124
23257W        W39731  11.219  13.524  13.229  0.1168 -0.2780  0.3839
23258W        W39732  10.436   9.815  13.664 -0.1406  0.0303  0.1505
23259W        W39733   3.719  11.628  12.600 -0.2966  0.1163  0.1864
23260W        W39734   2.064   7.882  13.061 -0.1162  0.1335 -0.0692
23261W        W39735   7.999   9.773  11.389  0.1557  0.1560 -0.3026
23262W        W39736  14.537   2.945   2.017 -0.1506 -0.1541  0.0751
23263W        W39737   2.313  17.688   0.295 -0.0403  0.1773  0.0620
23264W        W39738  14.980   2.277  12.748 -0.1030 -0.3260 -0.1539
23265W        W39739  12.151  10.863   3.542 -0.0951 -0.1532 -0.1675
23266W        W39740  12.261   6.412   4.170  0.0843  0.1576 -0.2198
23267W        W39741  12.489  15.963  15.903  0.0529 -0.0765  0.0596
23268W        W39742   5.364   4.596   3.127 -0.0202 -0.0980 -0.0012
23269W        W39743  16.604   3.625  15.508  0.1288 -0.1983 -0.0716
23270W        W39744   5.880  16.308   1.118 -0.0588 -0.0708 -0.1544
23271W        W39745   7.142   3.376  14.611  0.0090  0.1009 -0.0285
23272W        W39746   6.728  10.392  11.841 -0.2737  0.1405  0.2265
23273W        W39747   7.063  16.577   2.158  0.0189 -0.1221  0.1026
23274W        W39748  16.226  13.647  13.121 -0.3232  0.1417 -0.3623
23275W        W39749   1.580   4.888   2.603 -0.1920  0.4708 -0.3219
23276W        W39750   3.346   5.495  13.772  0.0501 -0.4637  0.2799
23277W        W39751   8.437   1.165   1.509  0.0243 -0.2961 -0.3910
23278W        W39752   9.123   3.919   0.766 -0.0478  0.1377 -0.0930
23279W        W39753   9.490   1.457   0.171  0.1192 -0.1174  0.0887
23280W        W39754  17.268  15.982   1.577  0.5787  0.1584  0.0412
23281W        W39755  13.292   1.537  12.510  0.3675 -0.0020  0.0817
23282W        W39756   9.672  12.608  14.820 -0.0963 -0.0121 -0.1565
23283W        W39757  12.706  14.535   5.306  0.1082  0.1564  0.1164
23284W        W39758   5.873   2.724   4.956 -0.0367  0.0989 -0.2898
23285W        W39759  16.603   0.970  14.246 -0.0771  0.1322  0.1011
23286W        W39760   5.463   2.878  11.124 -0.2134  0.3058 -0.2391
23287W        W39761  11.181   0.036   5.323 -0.1599 -0.0582 -0.0506
23288W        W39762   5.441   7.990  14.529 -0.1080  0.1688  0.0722
23289W        W39763   5.707  14.916  14.700 -0.1462  0.1107 -0.2272
23290W        W39764   2.429   2.377  14.630 -0.1251  0.1842 -0.0826
23291W        W39765  15.315   0.621   0.686 -0.0720  0.3128 -0.0832
23292W        W39766   3.822   2.817   3.693 -0.2364  0.2591  0.0888
23293W        W39767   2.633   4.164  11.650 -0.0243  0.1894 -0.2098
23294W        W39768  11.151  10.441  13.798 -0.2773  0.0999  0.0363
23295W        W39769  15.027  17.862   5.370  0.1039 -0.0218 -0.0000
23296W        W39770  12.971   9.917   2.253  0.2403 -0.0245 -0.0896
23297W        W39771   5.404  15.957  11.932 -0.0530  0.0885  0.1157
23298W        W39772  15.641  13.667   4.701 -0.0070 -0.0988  0.0668
23299W        W39773   3.065   0.338  15.567 -0.0650 -0.0779  0.1987
23300W        W39774  15.616   4.071  15.338 -0.5134  0.2377  0.0095
23301W        W39775   2.937  18.366   1.911  0.0171  0.1518  0.1355
23302W        W39776  11.798  14.743   0.228 -0.1015  0.0490 -0.2275
23303W        W39777  16.785   6.597   3.304 -0.0018 -0.0773 -0.0862
23304W        W39778   0.944   2.869   3.062  0.0539  0.1080  0.4254
23305W        W39779   2.383  12.203   2.051  0.0212  0.1676  0.0176
23306W        W39780   0.678  17.456  10.776 -0.3426 -0.2949 -0.3117
23307W        W39781  11.238  16.414   1.822 -0.0484 -0.0025 -0.0658
23308W        W39782  14.266  10.501  15.884 -0.1528 -0.0373  0.1763
23309W        W39783   3.089   5.941  13.783 -0.0442  0.1661  0.1457
23310W        W39784   0.075  17.745   0.005  0.1606  0.0484  0.1553
23311W        W39785  13.149  14.469   2.468 -0.0103  0.0547 -0.1543
23312W        W39786   8.074  12.599  13.289 -0.0067 -0.2280 -0.0103
23313W        W39787  17.477   8.507   4.079 -0.0093 -0.1702 -0.1265
23314W        W39788   4.663  11.594   2.465 -0.0077  0.3511  0.2128
23315W        W39789   0.116  18.305   4.287 -0.2553 -0.1809  0.2019
23316W        W39790   4.210  13.714   4.721 -0.3420  0.0145  0.2409
23317W        W39791   2.876  10.680  14.637  0.0149 -0.0301  0.0034
23318W        W39792  16.654   5.005  14.883 -0.0510  0.0601  0.2030
23319W        W39793   9.327  10.176  15.569 -0.4952  0.3660  0.0793
23320W        W39794   0.660  17.138   3.171 -0.3396 -0.1252  0.0988
23321W        W39795  11.848   7.373  12.221  0.1665  0.1068  0.1050
23322W        W39796  11.341   2.520  12.644 -0.3542 -0.2265  0.1650
23323W        W39797  16.387   7.857  14.483  0.0936 -0.2989 -0.1555
23324W        W39798   7.261   5.587  11.368 -0.0376 -0.0518  0.1167
23325W        W39799  13.479   0.829   4.052  0.0335 -0.0538 -0.1888
23326W        W39800   7.076  10.545   5.049 -0.2586 -0.1467  0.1309
23327W        W39801   6.237   5.719  13.468 -0.0438  0.2827  0.1544
23328W        W39802  15.130  15.538   3.288 -0.1920 -0.0323 -0.1084
23329W        W39803  14.868  10.816   5.405  0.0359 -0.0519 -0.1403
23330W        W39804   6.506  11.740   5.230  0.1715  0.1459 -0.2514
23331W        W39805   0.729   6.312   2.803  0.0172  0.2924  0.0912
23332W        W39806   0.960  16.892  13.043  0.0134 -0.1235  0.0205
23333W        W39807  16.209   1.793  13.040  0.1586 -0.0139 -0.1281
23334W        W39808   7.571  15.131   2.912  0.0084  0.0585 -0.0206
23335W        W39809   5.047  14.098  12.226  0.0948  0.1926  0.2322
23336W        W39810  15.085  14.500  12.086  0.1250  0.3097 -0.1152
23337W        W39811  14.824   4.213  10.867 -0.1062  0.1101 -0.1081
23338W        W39812  17.549   4.900   5.167  0.0308 -0.1153 -0.1588
23339W        W39813  16.213   2.844  14.886 -0.0882 -0.1795 -0.1553
23340W        W39814   0.335   9.260   2.328 -0.0801 -0.1799  0.0850
23341W        W39815   4.463   3.084  13.254  0.0289 -0.3844  0.1479
23342W        W39816  16.776   1.022  14.756  0.5054 -0.2323 -0.0575
23343W        W39817  17.733   4.920   4.003 -0.1679  0.2473  0.3079
23344W        W39818   6.888   9.058   0.650  0.3353 -0.1823 -0.2673
23345W        W39819   1.092  14.773   5.487  0.1221  0.0205 -0.0296
23346W        W39820   3.716  17.292  11.750  0.0531  0.2405 -0.0512
23347W        W39821   0.155  18.010   4.689  0.2101 -0.1934  0.0057
23348W        W39822  11.420  13.463   0.868 -0.1939  0.0137 -0.2216
23349W        W39823  10.168  16.109  11.802  0.1299 -0.4026 -0.0194
23350W        W39824  17.224   1.889   5.902 -0.0624  0.1586 -0.1609
23351W        W39825   6.443   3.526  13.718 -0.1884 -0.1484  0.1501
23352W        W39826  14.306   2.379   4.260 -0.1411  0.0803  0.2209
23353W        W39827   0.177   3.833   0.910 -0.3780 -0.3879  0.0786
23354W        W39828   0.745  13.321  11.671  0.3385  0.2119  0.0770
23355W        W39829  11.157  10.041   4.474 -0.0220  0.0264  0.0666
23356W        W39830  15.543   2.390   1.401 -0.1038 -0.1265  0.0628
23357W        W39831   0.882   9.333   1.683  0.1283 -0.2491 -0.1322
23358W        W39832  13.554   2.625  11.036  0.0614  0.0773  0.0957
23359W        W39833   7.487   5.058  10.774  0.1750  0.3062  0.0864
23360W        W39834  14.084   0.730   0.383 -0.1356 -0.1596  0.0632
23361W        W39835  15.046  12.517  14.326  0.1800  0.1492 -0.0371
23362W        W39836  10.876   9.345   2.598  0.2406 -0.0406 -0.0121
23363W        W39837  16.154  13.567  12.140  0.0832  0.2540  0.1400
23364W        W39838  10.044   4.841  15.341 -0.2229  0.2809  0.4133
23365W        W39839  11.144   1.638   5.952 -0.1118  0.0209  0.0030
23366W        W39840   9.814   8.499  16.077  0.0873 -0.2052  0.2648
23367W        W39841  16.662  11.013  11.808  0.0726 -0.2743  0.0609
23368W        W39842   2.589  16.230   4.056  0.0823 -0.4368 -0.2027
23369W        W39843  12.057   5.505   1.873 -0.1030 -0.1325 -0.0660
23370W        W39844   6.582   4.803   2.136 -0.1447  0.1442 -0.0629
23371W        W39845  16.653   7.256  13.383 -0.1364 -0.0870  0.0303
23372W        W39846   2.724   7.687   4.472 -0.1508 -0.1821 -0.0340
23373W        W39847   4.350   0.001   0.224  0.2815 -0.0065 -0.0493
23374W        W39848  12.424   7.623  16.277  0.0142 -0.2264  0.1418
23375W        W39849  15.076  10.511  13.353  0.0108  0.2564  0.4879
23376W        W39850  13.198  15.312   1.555  0.0442  0.1732 -0.0204
23377W        W39851   6.974   7.094  13.269 -0.0783 -0.2654  0.2985
23378W        W39852   5.151  10.576   1.900 -0.1222  0.1551 -0.0368
23379W        W39853  10.489   4.820   3.196  0.2217 -0.2508 -0.0120
23380W        W39854   8.545   0.489   4.789  0.1283  0.0099  0.2422
23381W        W39855   5.252   3.712   2.270 -0.0828  0.3150 -0.0569
23382W        W39856   7.095  11.655  13.136 -0.1354 -0.0482  0.2063
23383W        W39857  10.929  16.232   4.866  0.1237 -0.1617  0.1610
23384W        W39858  18.178  11.607  11.833  0.0788 -0.0571  0.0701
23385W        W39859   3.341  16.918  12.387 -0.0355  0.4009  0.0009
23386W        W39860   6.798   4.457  15.462 -0.0870 -0.3823 -0.3131
23387W        W39861   8.332   3.589  15.734  0.1073 -0.2194  0.2134
23388W        W39862   1.465  11.288   3.928  0.2241 -0.3249  0.0810
23389W        W39863  13.983   6.143  10.560 -0.3082 -0.2599 -0.1004
23390W        W39864  12.561   0.011   0.322 -0.0581 -0.0175  0.2335
23391W        W39865  12.166  11.714  16.043 -0.2616  0.1920 -0.1770
23392W        W39866  18.044  16.520  15.445  0.3286  0.0434 -0.1650
23393W        W39867   3.730  13.585   2.086  0.1288  0.0293 -0.0737
23394W        W39868  16.282  15.009  13.651  0.0782 -0.0562  0.2023
23395W        W39869   7.284   0.260  13.278  0.5694 -0.0172  0.0726
23396W        W39870   5.965   3.825   3.325 -0.2646 -0.1170 -0.4208
23397W        W39871  17.194   7.484   0.712  0.1643 -0.0343 -0.0456
23398W        W39872  18.356   5.843  14.333  0.2973 -0.0934  0.0068
23399W        W39873  11.125   1.305  15.332  0.0040 -0.0549 -0.1386
23400W        W39874  11.780   2.064  14.445 -0.1684  0.4038  0.1605
23401W        W39875   3.141   0.617  15.013 -0.0102  0.0211 -0.0715
23402W        W39876   4.620   3.112   5.313  0.2149  0.1578  0.2509
23403W        W39877  15.328   7.550  11.689 -0.1136 -0.3834 -0.3287
23404W        W39878  14.051   2.636  14.166 -0.1551 -0.1571  0.0553
23405W        W39879  13.463  14.991   5.942  0.0646 -0.0202  0.4337
23406W        W39880  13.771   7.852  11.230 -0.0399 -0.2103  0.0648
23407W        W39881   8.016  16.968   2.503 -0.1185  0.0880 -0.2221
23408W        W39882  15.660  12.468   1.597 -0.0294  0.2416 -0.2203
23409W        W39883  15.954   5.196  12.713 -0.0834 -0.3486  0.2334
23410W        W39884   0.522  12.071  10.561 -0.1270  0.2245  0.1149
23411W        W39885   5.219  10.713   2.480 -0.1146  0.1140  0.4305
23412W        W39886   4.310   2.295   4.716 -0.0762 -0.0379 -0.3251
23413W        W39887   7.083  14.182  12.492 -0.0035 -0.0488 -0.3079
23414W        W39888  16.195   8.668   1.360  0.2339 -0.0614  0.0440
23415W        W39889   7.296   6.489   3.633 -0.2496  0.0575  0.3805
23416W        W39890  16.270  16.617  13.310 -0.1429 -0.0103  0.2043
23417W        W39891   4.853  17.009   5.118 -0.1130 -0.0555  0.0608
23418W        W39892   0.623   2.998  13.826 -0.6360  0.0516 -0.1330
23419W        W39893   1.573  11.481  12.350 -0.1744 -0.0744 -0.0068
23420W        W39894   1.728  10.475   0.165 -0.1683 -0.0291  0.2250
23421W        W39895  17.860   6.610  12.784 -0.0569  0.0577  0.0606
23422W        W39896   1.723   1.948   1.931  0.0855 -0.2587  0.3935
23423W        W39897  11.979   3.125  14.236  0.0295  0.2755 -0.1963
23424W        W39898  14.791  16.668  14.226  0.2870 -0.2803  0.2693
23425W        W39899   4.928  17.125   4.635 -0.1461 -0.0920  0.2614
23426W        W39900   5.019   8.679   4.627 -0.0109  0.2890  0.3450
23427W        W39901   9.128   9.518   1.277 -0.2120 -0.1037 -0.1539
23428W        W39902  16.809   6.015   5.265  0.1043 -0.1460 -0.0640
23429W        W39903   9.829  11.111   5.872  0.1292  0.0091  0.0886
23430W        W39904   3.418   8.763  13.481 -0.2134  0.4411 -0.3289
23431W        W39905   2.324  14.786   3.298  0.2446  0.0376 -0.0402
23432W        W39906   0.953   2.454   2.129 -0.0009  0.0942  0.2060
23433W        W39907  14.881   9.936   3.241 -0.0866  0.1379  0.1493
23434W        W39908   6.816   7.717  12.439  0.1015 -0.1025 -0.0280
23435W        W39909   7.819  15.476   2.083  0.1172 -0.2139  0.1120
23436W        W39910   9.906  17.789   5.302  0.0539 -0.1207  0.0370
23437W        W39911  15.659  15.233   2.724  0.1058 -0.0208 -0.2206
23438W        W39912   9.146  11.753   4.732  0.0098  0.1043 -0.0523
23439W        W39913  11.699   5.566  12.832 -0.0438 -0.3296  0.2850
23440W        W39914  11.338   7.720   2.264  0.2096  0.0795  0.2950
23441W        W39915  11.299   4.293   2.899 -0.0135  0.0442 -0.1030
23442W        W39916   7.990  12.052   0.757  0.1852  0.1377 -0.1074
23443W        W39917  11.881   5.968   1.822  0.0764  0.1423 -0.0165
23444W        W39918   9.666   2.218   3.770  0.2296 -0.1661 -0.1808
23445W        W39919   7.741  16.838   6.082 -0.2874 -0.1416  0.0114
23446W        W39920  15.493  11.070   1.793  0.0311 -0.0902  0.0631
23447W        W39921  14.184  15.865  16.180  0.4085 -0.2829  0.1906
23448W        W39922  17.407   7.072  11.435 -0.0481 -0.1847 -0.1950
23449W        W39923  17.009  16.495   3.599 -0.1176 -0.2053 -0.0152
23450W        W39924   9.663   9.656   2.735 -0.0488 -0.0655  0.1741
23451W        W39925   8.128   2.374   2.620 -0.2667 -0.1466  0.0137
23452W        W39926  10.458  15.629   3.621 -0.1363  0.0661  0.1538
23453W        W39927  10.623  12.558   3.378  0.2676 -0.1233  0.0591
23454W        W39928  11.815   1.166   5.291  0.1595 -0.0250 -0.0318
23455W        W39929   6.601   1.915   4.176  0.1328 -0.0083 -0.2892
23456W        W39930   5.339   7.847  11.372  0.3367 -0.1757 -0.0570
23457W        W39931  12.472   4.862  12.929  0.0643 -0.5073 -0.1698
23458W        W39932  14.042   6.589   1.394  0.0972  0.1221  0.0278
23459W        W39933   4.396  11.656  12.263 -0.2575  0.1618 -0.0958
23460W        W39934  13.384   5.564  14.961  0.2379  0.1351  0.3253
23461W        W39935   4.384   4.299  12.000 -0.3165 -0.3083 -0.0777
23462W        W39936  13.414  12.504   3.791 -0.2398 -0.0961 -0.0989
23463W        W39937   6.254   1.295  12.832 -0.0544  0.3431  0.0456
23464W        W39938  13.789  10.223   2.613 -0.1029 -0.2332  0.2985
23465W        W39939   5.708  17.326   5.345  0.1794  0.2340 -0.3241
23466W        W39940  12.036   9.510   1.832  0.0491 -0.2040  0.1774
23467W        W39941  17.230  14.339  15.141  0.0031  0.0168  0.2335
23468W        W39942  13.389   5.775  11.358  0.2731 -0.1439 -0.0331
23469W        W39943   0.107  11.052   1.335 -0.1133  0.3041 -0.0838
23470W        W39944  15.125   4.584   2.650  0.1810  0.0079  0.1506
23471W        W39945   4.825   9.679   2.426 -0.1476  0.0144 -0.2488
23472W        W39946   9.245   3.098  14.272 -0.2712 -0.0197 -0.0479
23473W        W39947   6.874  18.138  15.708  0.1199  0.4475 -0.1942
23474W        W39948  11.202   2.011  11.179  0.0256 -0.0281  0.3340
23475W        W39949   3.752   4.711   3.770  0.1106  0.1092  0.1269
23476W        W39950   2.861  11.141  14.360  0.1976  0.0478 -0.1468
23477W        W39951  14.264   3.307  16.054  0.4446  0.0844 -0.0499
23478W        W39952   6.684   3.317   3.785  0.0210  0.0371 -0.0349
23479W        W39953   2.863   2.801  12.869  0.0908 -0.1266 -0.0607
23480W        W39954  12.693  15.222  12.176  0.0732 -0.3675 -0.4249
23481W        W39955   7.771  18.047  14.155  0.0160  0.2128  0.1071
23482W        W39956  12.568   6.777  14.414 -0.1216 -0.0312 -0.3880
23483W        W39957   9.021  10.860  15.091  0.1867  0.1843 -0.0707
23484W        W39958  10.655  17.687   2.598 -0.0324  0.2343  0.0782
23485W        W39959  13.036   5.885   4.848  0.0039  0.0420 -0.1880
23486W        W39960  13.186   4.629  13.787  0.0820 -0.2372 -0.1134
23487W        W39961   4.522  16.038   4.597  0.2833 -0.0057  0.0574
23488W        W39962   1.277   3.154   5.198 -0.1438  0.0263 -0.0436
23489W        W39963   7.966  18.182  12.318 -0.0796  0.0780  0.1655
23490W        W39964   6.559   9.898   5.587 -0.0234 -0.4035 -0.0189
23491W        W39965   9.448  14.575   1.490 -0.3448 -0.0481 -0.2029
23492W        W39966  17.130   2.912   1.949  0.3047  0.1216  0.2650
23493W        W39967   9.944   5.254   0.904  0.2180  0.1990 -0.0970
23494W        W39968   1.753  12.198  11.206 -0.2422  0.2235 -0.1872
23495W        W39969   5.544   0.172  12.241 -0.1199  0.0897 -0.0808
23496W        W39970   8.931  15.608  15.958 -0.0231  0.2950 -0.3661
23497W        W39971  15.724   1.903   5.178  0.3189 -0.0406 -0.0104
23498W        W39972   6.924  12.717   5.450 -0.4662  0.0027 -0.3195
23499W        W39973  11.968  17.509  13.556 -0.4416  0.0773 -0.1744
23500W        W39974  17.134  10.911  13.421 -0.2655  0.1999 -0.0163
23501W        W39975  12.635   2.246  15.994  0.2250  0.2776 -0.1236
23502W        W39976   9.230  18.007  11.495 -0.0658 -0.0225 -0.0160
23503W        W39977   5.690   7.995   3.051  0.3432  0.0935  0.1362
23504W        W39978   8.139  12.659  15.051  0.0266  0.0200  0.3753
23505W        W39979   3.891  16.187   2.795  0.0392  0.1521  0.2474
23506W        W39980  17.896  14.545  15.925  0.0596  0.0501 -0.1640
23507W        W39981   2.530   8.368  13.842 -0.0786 -0.0300  0.0210
23508W        W39982   9.593   4.338  13.660  0.0828  0.4779  0.1174
23509W        W39983   3.822   6.019   3.926  0.1735  0.1566  0.1004
23510W        W39984   3.873  17.545   2.798 -0.0122 -0.1203 -0.0476
23511W        W39985   0.505   0.480   0.323  0.0377 -0.2521  0.1638
23512W        W39986   8.546   8.641   4.410  0.0702  0.1504  0.1264
23513W        W39987  16.931  10.003   1.370 -0.0670 -0.0381 -0.3044
23514W        W39988  14.184   9.580  12.128 -0.0248  0.0303  0.0438
23515W        W39989  13.461   6.589  14.151  0.0693 -0.0578 -0.0893
23516W        W39990  15.488   3.213   3.806 -0.0358 -0.2835  0.0801
23517W        W39991   4.875  10.162  12.503 -0.2822 -0.1000 -0.3771
23518W        W39992  10.965   4.832  16.323  0.1204 -0.0490 -0.1830
23519W        W39993   7.597   8.646   4.793 -0.1394  0.0064 -0.0417
23520W        W39994  14.588  11.098  12.952  0.2170 -0.1972  0.1808
23521W        W39995  18.308   6.556   1.763 -0.2458 -0.2399 -0.0039
23522W        W39996  12.884   3.976   2.446  0.0828 -0.1355  0.2077
23523W        W39997   0.467   6.763  13.544 -0.1484  0.2210  0.0028
23524W        W39998   3.484   3.678   2.123 -0.2440  0.1726 -0.0085
23525W        W39999  14.332  16.105   1.484 -0.0012  0.1317 -0.3081
23526W        W40000   7.882   0.941   5.683 -0.1283 -0.0390  0.1788
23527W        W40001   2.005   7.986   4.772 -0.0748  0.0543  0.0382
23528W        W40002  11.655  16.014   2.705  0.2846  0.2912  0.3032
23529W        W40003  12.143   3.401   5.335  0.1582  0.0685 -0.2212
23530W        W40004   8.480  12.857  14.697 -0.1739  0.1291  0.0251
23531W        W40005   3.996  17.543   0.908 -0.2008 -0.0811  0.0846
23532W        W40006   3.994  17.235  14.018  0.1765 -0.3333 -0.1142
23533W        W40007   3.829   9.192   0.538  0.0788 -0.2654 -0.2185
23534W        W40008  14.587   2.636   3.418  0.0412  0.1791  0.2462
23535W        W40009   9.796  13.743   2.320 -0.3977 -0.0101  0.0371
23536W        W40010  10.574   5.801  11.761  0.1715 -0.0031  0.1746
23537W        W40011  16.034   9.990   0.507 -0.1532  0.4314  0.1331
23538W        W40012   4.109  18.135  13.338  0.2100 -0.2586  0.2768
23539W        W40013  16.006   4.825  12.364 -0.1563 -0.2294  0.0077
23540W        W40014  16.130  16.338  14.034 -0.1102 -0.0384  0.0061
23541W        W40015   9.048  15.105   2.914  0.2013 -0.2575  0.3444
23542W        W40016   1.330   8.576   2.953  0.2576 -0.0140 -0.3401
23543W        W40017   2.871   2.803  14.367  0.0185  0.0029 -0.1251
23544W        W40018  16.104   1.877  15.199 -0.1851  0.2636  0.2048
23545W        W40019   0.799   1.297  13.348  0.0815 -0.0652 -0.0757
23546W        W40020   0.523  10.589   2.471  0.0931 -0.3726  0.1098
23547W        W40021   3.875   1.152  14.770  0.1456  0.3133 -0.2422
23548W        W40022   2.623   6.562  10.414  0.0612  0.0603 -0.1611
23549W        W40023  13.755   8.145  13.477 -0.3581 -0.0657  0.1276
23550W        W40024   2.368  15.619  14.734  0.0190 -0.0577 -0.0457
23551W        W40025   0.827   7.587   0.068  0.2484 -0.1346 -0.1533
23552W        W40026  17.360  14.952  14.410 -0.0652  0.3463  0.0871
23553W        W40027  11.126   0.712   2.668  0.2627  0.1223 -0.0476
23554W        W40028   8.645   3.686  12.683  0.3495 -0.0734 -0.2542
23555W        W40029   5.517   0.320  14.115 -0.2919 -0.0481 -0.3147
23556W        W40030   8.171   2.661   3.749  0.0214  0.1684  0.0611
23557W        W40031  17.106   7.473  11.366 -0.3799  0.3571  0.0492
23558W        W40032   6.385   5.980  10.821 -0.0656 -0.0905  0.2897
23559W        W40033   3.049  11.664   2.090  0.1422 -0.0350 -0.2139
23560W        W40034  18.273   1.501  16.058  0.3075  0.0388 -0.2653
23561W        W40035  13.576   3.341  15.056 -0.0371  0.1866 -0.2353
23562W        W40036   3.994  17.165   0.121  0.0024 -0.0223 -0.0776
23563W        W40037   8.184   0.604   3.997  0.1962  0.2608 -0.0921
23564W        W40038  10.709   1.964  10.871 -0.0042 -0.1554  0.2103
23565W        W40039  16.894   7.285   4.800 -0.3172  0.4358 -0.1860
23566W        W40040   0.072  14.755  15.649 -0.1748  0.3524 -0.0061
23567W        W40041  15.954  12.890  12.875  0.0258  0.0863 -0.0462
23568W        W40042   1.573   9.550   4.040 -0.1310  0.0775  0.0348
23569W        W40043  13.747  16.764   4.144  0.0351 -0.0164  0.3083
23570W        W40044   7.417  15.124   0.779 -0.3658 -0.2189 -0.0458
23571W        W40045   3.916  13.515  12.394 -0.0697  0.1889  0.1973
23572W        W40046   3.681   7.758  12.467  0.0797 -0.0804  0.3541
23573W        W40047  12.914   6.289   3.925  0.1280  0.0633  0.1975
23574W        W40048   4.540   1.455  14.365  0.3709  0.1307  0.2031
23575W        W40049  16.983  16.699  14.138 -0.0146  0.0348 -0.0191
23576W        W40050   7.103   7.257   0.669 -0.2815  0.2978  0.1248
23577W        W40051   9.265  16.595  13.928  0.0267  0.0951 -0.0898
23578W        W40052  12.022  11.499   1.042  0.0874 -0.2140 -0.0853
23579W        W40053   7.688   6.373   0.890  0.2677 -0.0314 -0.1805
23580W        W40054  11.287   8.055   4.012  0.4124  0.4184  0.2891
23581W        W40055   1.934  14.059  13.684 -0.1034 -0.1727  0.2467
23582W        W40056  11.079   4.063  12.559 -0.3282 -0.0099 -0.1733
23583W        W40057   3.253  11.764  12.706  0.2976  0.0174  0.0808
23584W        W40058   0.751  12.678   0.791 -0.1915 -0.2344 -0.3056
23585W        W40059   8.860  16.433  13.140 -0.0361  0.1489  0.0262
23586W        W40060  16.596  14.517   1.271 -0.3634 -0.0157 -0.3490
23587W        W40061   9.549  15.836  14.458  0.0403  0.0391  0.3610
23588W        W40062   3.929  16.192  16.078  0.1340 -0.1490 -0.1458
23589W        W40063  13.636  15.000   0.106 -0.2596  0.2439 -0.2237
23590W        W40064   7.392   8.854   5.451 -0.1640 -0.1667 -0.2313
23591W        W40065  12.962   3.273   0.917  0.1548 -0.2142  0.2208
23592W        W40066  11.333  14.653  16.183 -0.0136 -0.0698  0.0332
23593W        W40067   2.472  13.631  15.621  0.2767 -0.0239  0.1230
23594W        W40068  13.024   0.644  12.316 -0.0275  0.1059 -0.2729
23595W        W40069   6.127   7.851   0.557  0.2044  0.2664 -0.3251
23596W        W40070   9.532   9.092   2.021  0.0964 -0.0348  0.0402
23597W        W40071   3.631  16.350  13.450  0.0203 -0.3576  0.3487
23598W        W40072  12.259   8.817  13.252 -0.0877 -0.1416  0.4435
23599W        W40073  10.596   2.920   3.227 -0.1736  0.2419  0.2242
23600W        W40074   9.293  13.479  15.077  0.2774 -0.0817  0.2145
23601W        W40075   7.970  13.696  14.859 -0.2576 -0.0827  0.2139
23602W        W40076   9.591   6.973   0.723 -0.1512  0.1515 -0.2819
23603W        W40077   4.204  16.447   1.908 -0.0522  0.0400 -0.0578
23604W        W40078   0.412  15.592   3.896  0.0420  0.0231 -0.2464
23605W        W40079   8.154   0.899   0.611 -0.3870 -0.1644 -0.0818
23606W        W40080   0.577  11.987  15.903  0.0946 -0.3150  0.0047
23607W        W40081   8.562   7.276  15.430 -0.4753 -0.1356  0.0585
23608W        W40082  10.721   4.608   1.590  0.1745 -0.0009 -0.2756
23609W        W40083   1.402   7.941  13.611 -0.0619  0.3790  0.0757
23610W        W40084  13.926  15.447  16.265  0.1360  0.0155 -0.0080
23611W        W40085  13.126  11.461  14.798 -0.1923  0.1676 -0.4869
23612W        W40086  14.915   8.226  13.587  0.1912  0.2564 -0.0067
23613W        W40087   5.414  11.843   5.730  0.0535  0.0545  0.0317
23614W        W40088  16.914  14.224   6.221 -0.1503 -0.1123  0.2069
23615W        W40089  14.142  13.216  12.926 -0.3073  0.0960  0.0113
23616W        W40090  16.298   3.757  11.654 -0.0461 -0.1985 -0.0314
23617W        W40091  10.593  13.752   3.840  0.0723  0.1975 -0.2324
23618W        W40092  15.887   3.562  11.906  0.1774 -0.2815  0.0721
23619W        W40093   2.072   4.253  11.714 -0.1117 -0.2336  0.0636
23620W        W40094   8.229   4.169   3.582 -0.2340  0.1341 -0.0569
23621W        W40095  11.760  15.838   4.011 -0.0940 -0.3002  0.0078
23622W        W40096  13.673   9.627   4.117 -0.2164 -0.2014  0.2267
23623W        W40097   0.234  16.872   3.348  0.1105 -0.0214  0.2210
23624W        W40098   2.049   9.616  11.719  0.2034  0.2289 -0.0107
23625W        W40099   5.320  14.015   4.986 -0.0848  0.0402 -0.0275
23626W        W40100   5.609  16.879   3.302  0.2303  0.2019  0.2593
23627W        W40101  15.404  12.057  13.195  0.2624 -0.0489  0.3854
23628W        W40102   7.973   3.869   3.886 -0.0476  0.0446  0.2324
23629W        W40103   9.384  14.062  14.759  0.2068 -0.1273 -0.1881
23630W        W40104  12.258   4.024   3.990 -0.2123 -0.1290  0.1342
23631W        W40105  14.143  11.526   0.976 -0.4757 -0.2978 -0.1015
23632W        W40106  18.083  14.643   2.188  0.0267 -0.2391  0.0081
23633W        W40107   3.610   3.114   1.814 -0.0299  0.1912 -0.1262
23634W        W40108  16.300   4.979   2.317  0.1049 -0.1327  0.3306
23635W        W40109  12.735  13.773   5.587  0.0006  0.3913  0.1052
23636W        W40110  13.543   8.593   0.569 -0.0302 -0.0256 -0.1173
23637W        W40111  12.742  14.510  16.002 -0.4016  0.0022 -0.2487
23638W        W40112   3.692   7.608  11.518 -0.0654 -0.1662 -0.0433
23639W        W40113   0.897   6.211   3.343 -0.2261 -0.2948 -0.0246
23640W        W40114  15.933   2.534  15.159  0.1500 -0.1702  0.1285
23641W        W40115   6.778   1.241   1.965  0.2337 -0.0519 -0.1507
23642W        W40116   2.729   8.519  15.430 -0.0046  0.1216  0.0516
23643W        W40117   6.449   7.672  12.800 -0.0150 -0.1253  0.0157
23644W        W40118  16.520  11.122   1.837  0.0919 -0.0256  0.1905
23645W        W40119   8.774   5.261  15.407  0.1452 -0.1781  0.1566
23646W        W40120  12.979  15.776  15.963 -0.1041 -0.1755  0.0890
23647W        W40121   7.900  15.826  15.499  0.1727 -0.3539  0.3573
23648W        W40122   1.910   4.643   2.378 -0.0274  0.0257 -0.0048
23649W        W40123  15.898   8.759   1.801  0.1559 -0.0285  0.0115
23650W        W40124  12.902   4.352   0.875  0.1125  0.0907 -0.1277
23651W        W40125   3.530   2.948   4.092  0.1345 -0.1350  0.0930
23652W        W40126   3.260   3.187  14.331  0.0107  0.0948  0.2002
23653W        W40127  17.078  12.163  15.717  0.2443 -0.2111  0.1177
23654W        W40128   8.218  16.831   4.664 -0.1382 -0.0631 -0.2282
23655W        W40129   4.083   1.411   2.011  0.1430  0.3480  0.1277
23656W        W40130   7.158   1.234  14.535 -0.1657 -0.1922  0.1620
23657W        W40131  13.708   2.171  11.312 -0.3468  0.0133  0.0820
23658W        W40132   6.965  13.180  13.346  0.1769  0.3962  0.0779
23659W        W40133  13.515   5.373  12.259  0.4056 -0.2402  0.2736
23660W        W40134   8.653   7.767  15.199 -0.0073  0.1524 -0.3127
23661W        W40135  17.799  16.145  15.161  0.3711  0.1670  0.4883
23662W        W40136   4.270   9.297   2.583 -0.0939  0.0803  0.1564
23663W        W40137   4.040  10.678  15.020 -0.1079 -0.1314  0.2074
23664W        W40138   1.532  11.349   2.758 -0.2296 -0.2254 -0.3335
23665W        W40139   7.062   9.229   1.517  0.2018 -0.1053 -0.3082
23666W        W40140  18.181  11.411   0.440  0.1529  0.0269  0.3605
23667W        W40141  15.820  13.001  15.273 -0.1619  0.1485 -0.0666
23668W        W40142   9.696   0.779   3.067  0.0258 -0.0410  0.0729
23669W        W40143  17.787  11.588  11.442  0.3493 -0.0296 -0.0916
23670W        W40144   9.737  17.791   6.427 -0.0341  0.2327  0.2723
23671W        W40145  15.404   4.809   2.273 -0.0202 -0.1086  0.1583
23672W        W40146  13.549  11.734  12.631 -0.0680 -0.0229 -0.2868
23673W        W40147  15.810   6.838   4.912 -0.1078 -0.2870 -0.2718
23674W        W40148  14.696  18.114   1.069 -0.1679 -0.0227 -0.1072
23675W        W40149  12.960   8.771   2.565 -0.1110 -0.4381  0.1270
23676W        W40150   6.538  14.867  12.740  0.1919  0.0282 -0.1165
23677W        W40151   8.634   3.011  12.445 -0.0174  0.0639  0.0952
23678W        W40152   9.387   1.153   4.870  0.1529  0.0284  0.1130
23679W        W40153   2.290   5.198   1.344  0.1126 -0.1882 -0.2311
23680W        W40154   2.502  17.728  13.189  0.0708 -0.2279 -0.1887
23681W        W40155  17.574  15.791   3.432 -0.0665  0.3521  0.0523
23682W        W40156  17.591   9.489  11.303  0.0420  0.2773  0.0677
23683W        W40157  14.853   0.381   3.071 -0.0414  0.1170  0.0277
23684W        W40158  17.670   0.331   3.797 -0.2441  0.0013  0.1021
23685W        W40159  12.808  11.140   0.958  0.2318 -0.1303  0.0678
23686W        W40160   2.107  15.811   3.917  0.1626  0.2853 -0.0142
23687W        W40161   9.419  14.281   1.956 -0.2897  0.0678  0.2886
23688W        W40162   2.110   3.059   5.304 -0.1614  0.1391 -0.1225
23689W        W40163   6.430  14.445  11.992  0.3281 -0.0954 -0.2133
23690W        W40164   9.653  16.902   5.411 -0.1666 -0.1322 -0.4572
23691W        W40165  15.025   2.582  16.145 -0.1376 -0.0996  0.0316
23692W        W40166   3.092  17.170   0.655 -0.3485  0.1707 -0.1215
23693W        W40167   3.582  16.362  15.660  0.1354 -0.1187  0.1870
23694W        W40168  12.316  14.371   4.629  0.2226  0.1242  0.1523
23695W        W40169   1.623  15.602  15.925  0.1461 -0.0892  0.0948
23696W        W40170   7.582  12.789  12.154 -0.1123 -0.0430  0.3876
23697W        W40171   3.135   3.661  12.236 -0.1756 -0.0583  0.1310
23698W        W40172   9.503  17.588  12.846  0.0141 -0.1135  0.3193
23699W        W40173  11.087  13.504  12.285 -0.2506 -0.1469 -0.0342
23700W        W40174   9.841   9.615   0.749  0.3082 -0.1922  0.0732
23701W        W40175  18.196   0.686  11.989 -0.2563 -0.1179 -0.0760
23702W        W40176  14.498   0.513  11.459 -0.0769 -0.0416 -0.2532
23703W        W40177  18.370  14.506  13.084 -0.1681  0.1701 -0.1843
23704W        W40178  13.950  16.893   1.007 -0.0009 -0.1491  0.1157
23705W        W40179   8.379  10.880  15.795 -0.1323  0.1435 -0.1208
23706W        W40180   0.245   4.504  12.551  0.2600  0.1415 -0.1955
23707W        W40181  17.924   2.340  12.552  0.0643  0.1427 -0.0337
23708W        W40182  11.907   6.801  11.361 -0.0909  0.2026  0.1377
23709W        W40183  17.706  17.953   5.383 -0.0709 -0.2287  0.0276
23710W        W40184   0.455   1.666   2.333 -0.0873 -0.1073  0.1130
23711W        W40185   2.088  12.353   3.545 -0.2218  0.0522 -0.3447
23712W        W40186   5.740  17.687   3.901  0.1154 -0.0262 -0.3032
23713W        W40187   9.204   2.971   2.883  0.0227  0.2499  0.1519
23714W        W40188   4.139  17.201   4.420  0.1378  0.2285  0.0946
23715W        W40189   8.697   0.929  11.275  0.3779  0.2898 -0.0196
23716W        W40190  17.060   7.746  11.828 -0.1959 -0.1275  0.3551
23717W        W40191   3.862   6.316   2.515  0.1531 -0.1297  0.0447
23718W        W40192  17.984  11.986   2.054  0.1331 -0.1086  0.1475
23719W        W40193  10.666   0.831   0.878  0.0374  0.2059  0.1295
23720W        W40194   5.887  16.604  16.284 -0.2460 -0.3904 -0.1300
23721W        W40195   3.907  11.113   1.814  0.2992 -0.0775  0.1329
23722W        W40196  18.079  17.679  13.995 -0.4208 -0.2459 -0.0827
23723W        W40197  17.886   9.950   1.868 -0.1050 -0.0767  0.1569
23724W        W40198   5.821  13.797   5.038  0.0209  0.1678 -0.1889
23725W        W40199  17.556   4.486  13.539  0.0060 -0.1328 -0.1910
23726W        W40200  15.200   1.072   0.550 -0.0816 -0.1280  0.1280
23727W        W40201   4.145  15.952  14.259 -0.1527  0.1433  0.0463
23728W        W40202  12.640   3.561  13.965  0.1417  0.0183  0.0147
23729W        W40203   3.346   4.463   3.880  0.1183 -0.0630  0.1378
23730W        W40204  16.949   6.166  15.299  0.1882 -0.0262 -0.3683
23731W        W40205   2.611  10.335  12.020  0.3600  0.0468 -0.0318
23732W        W40206  16.666   3.676  14.860  0.1425 -0.1095 -0.0831
23733W        W40207  10.393  16.590  14.313 -0.0899 -0.1410 -0.0889
23734W        W40208  13.275  17.936  13.502 -0.2731 -0.1540  0.1467
23735W        W40209  14.889   5.416  15.518  0.1802 -0.2137 -0.1319
23736W        W40210   2.350   8.124  11.993 -0.0560 -0.3342  0.0948
23737W        W40211   3.341   9.767   0.830  0.0230  0.3680  0.0039
23738W        W40212   2.581  16.702   4.252 -0.2087 -0.1111 -0.0647
23739W        W40213   5.278   7.165  11.960 -0.0466 -0.1682 -0.1248
23740W        W40214   2.606  17.790   6.107  0.2097 -0.1638 -0.0451
23741W        W40215  12.309  10.477   4.926 -0.2693  0.0535 -0.5865
23742W        W40216   9.449  15.067   5.044 -0.0541 -0.3000  0.0418
23743W        W40217   9.242   4.731   1.508  0.0539 -0.0471 -0.0197
23744W        W40218   2.477   9.627  14.351  0.0632  0.0789  0.2079
23745W        W40219  11.089   9.608   5.755  0.0753 -0.0582  0.3493
23746W        W40220   6.240   8.129   1.356 -0.2268 -0.0875  0.2857
23747W        W40221   9.191   2.417   4.401  0.0202 -0.0057 -0.1262
23748W        W40222   8.855   9.396   1.709  0.0461  0.1671  0.0140
23749W        W40223   8.724   7.225   5.052 -0.3090 -0.1459 -0.1611
23750W        W40224   5.333   9.055  14.689 -0.0020  0.3909  0.1683
23751W        W40225  14.974   6.648   3.603  0.0498 -0.2979  0.0052
23752W        W40226   1.470  14.298   0.014 -0.1223  0.1101 -0.0725
23753W        W40227   4.021   5.252  14.209 -0.1550 -0.3081 -0.1593
23754W        W40228   5.185   2.686  14.568 -0.0717  0.0455  0.5661
23755W        W40229   4.570   2.341  11.745 -0.0622 -0.0690 -0.1555
23756W        W40230   6.156  10.871  12.868 -0.3265 -0.4717  0.0535
23757W        W40231   3.849  14.986  15.394 -0.5483 -0.0364  0.2391
23758W        W40232  11.371  16.962  14.741  0.0682  0.1046 -0.1210
23759W        W40233   8.413   4.234   1.604  0.0769  0.0613  0.0315
23760W        W40234   4.296   9.527  13.282 -0.0337  0.0957  0.0545
23761W        W40235   5.772  12.841   2.910  0.2073  0.1298  0.0427
23762W        W40236  17.671  16.796   1.330  0.1557 -0.1838 -0.1593
23763W        W40237   1.317  17.251  14.459  0.1160  0.0397  0.2903
23764W        W40238  17.444  11.062  11.388 -0.0061 -0.1336 -0.1299
23765W        W40239   3.762  16.455  12.885 -0.1939 -0.0605 -0.3169
23766W        W40240  11.079  16.802  15.099  0.0541  0.1679 -0.1150
23767W        W40241   9.629  14.478  14.978  0.0706  0.0074  0.1388
23768W        W40242   1.494   9.438  14.577  0.1740  0.0694  0.1493
23769W        W40243  10.592   8.987  15.463  0.0063  0.1510 -0.0651
23770W        W40244  14.623   4.469   1.638  0.2361 -0.3127 -0.0639
23771W        W40245  12.679  15.829   0.487 -0.3712  0.0498  0.1658
23772W        W40246   1.309  12.235   4.730 -0.3531  0.2353  0.1163
23773W        W40247   9.720   6.012  12.229  0.2922  0.0605  0.0571
23774W        W40248  13.627  13.520   5.279 -0.2875  0.0783  0.3655
23775W        W40249  14.822   4.414  15.216 -0.1989 -0.2772  0.0330
23776W        W40250  12.750   8.312  11.210  0.2948 -0.1894 -0.0984
23777W        W40251   2.184  12.227   4.811  0.1388  0.1548  0.1121
23778W        W40252   0.626   5.326  13.202  0.0537 -0.0364 -0.3361
23779W        W40253   3.436  14.182   4.493 -0.0939 -0.0693 -0.0671
23780W        W40254   3.753   7.278   4.678 -0.0472  0.2395  0.1467
23781W        W40255   7.352   1.767   3.966  0.2417 -0.2444  0.2041
23782W        W40256  11.119  15.044   0.784  0.3232 -0.4242  0.2260
23783W        W40257   5.230  12.205   1.799 -0.0409  0.1214  0.2265
23784W        W40258   3.963  14.020  12.532  0.3256 -0.0070  0.1104
23785W        W40259   0.224   0.983  15.179 -0.1610  0.1880  0.0701
23786W        W40260   7.492   6.143   3.166 -0.0817  0.1865  0.1870
23787W        W40261   6.199   0.060   4.139  0.1087 -0.4402  0.1140
23788W        W40262   7.896  15.502  15.132 -0.0007  0.1996  0.1554
23789W        W40263  18.054  14.038  13.369  0.5061  0.0864  0.2573
23790W        W40264   1.938  12.077   2.964 -0.0974 -0.3152 -0.3080
23791W        W40265   5.139   5.063  11.839 -0.1765 -0.3935  0.0309
23792W        W40266  13.183   0.005   0.186  0.1264  0.2217 -0.1224
23793W        W40267  14.248   8.117   3.618  0.1268  0.1598  0.4966
23794W        W40268  17.303  15.320  15.994 -0.1990  0.1324 -0.0247
23795W        W40269   1.376   3.989   2.648 -0.1395  0.1384  0.0563
23796W        W40270  13.455  15.282  15.398  0.0109  0.1659 -0.0425
23797W        W40271  13.658  10.190   3.942 -0.0493  0.2076  0.2446
23798W        W40272  18.381   5.823   2.771  0.5308 -0.2419  0.0070
23799W        W40273  10.257   5.401  12.101 -0.0387  0.1641 -0.0857
23800W        W40274  11.690   5.045   0.959 -0.0051  0.0330 -0.1621
23801W        W40275   9.665   6.211   4.786  0.0680 -0.0626  0.1305
23802W        W40276   9.890   5.593   2.976 -0.1024  0.3228  0.2623
23803W        W40277   0.279  11.294   1.731 -0.0614 -0.1935  0.0633
23804W        W40278  15.793  17.777   3.084 -0.1434  0.2586  0.1559
23805W        W40279   7.995   1.739  14.454 -0.2255  0.1593 -0.1301
23806W        W40280  14.918   5.166   4.633  0.1532 -0.0629 -0.0923
23807W        W40281   2.064  16.505  13.700 -0.0026  0.0608  0.1387
23808W        W40282   3.199  17.222  15.575 -0.0001 -0.1131  0.1052
23809W        W40283  15.106  15.974   4.935  0.1302  0.2272  0.3014
23810W        W40284  18.010   8.383  11.717  0.2988  0.1191 -0.2117
23811W        W40285   3.829  15.954  14.982  0.0468 -0.1234  0.1214
23812W        W40286   9.614   0.482   2.659 -0.2161 -0.0575 -0.1227
23813W        W40287  17.285   7.494  13.026  0.0165 -0.2008 -0.2474
23814W        W40288  12.311   2.898  13.318 -0.2585  0.2346 -0.0433
23815W        W40289  17.788  15.768  11.924  0.1755 -0.3729  0.1708
23816W        W40290  18.388   2.310  12.254 -0.0847 -0.3546 -0.2440
23817W        W40291  14.665   1.473   0.784  0.4078  0.1063  0.1001
23818W        W40292  14.417  15.474   0.078 -0.1721 -0.4885  0.1006
23819W        W40293   3.138  11.790  13.618  0.0300 -0.2370  0.0251
23820W        W40294  17.829   4.013  11.431 -0.0189 -0.2119 -0.1506
23821W        W40295   1.386   4.016  14.490 -0.1167 -0.2690  0.0556
23822W        W40296   2.368  10.665   3.329  0.1676  0.2765  0.0290
23823W        W40297   3.846   4.595   2.463 -0.0463 -0.2090  0.1654
23824W        W40298   6.040   7.182   2.392  0.0786  0.0738 -0.1438
23825W        W40299   5.558   4.479  11.316  0.0164 -0.1289 -0.1647
23826W        W40300  12.752  11.783  12.832 -0.1631  0.1368 -0.0493
23827W        W40301  17.064   1.848  11.762 -0.2327 -0.0203  0.1122
23828W        W40302  13.348  14.211  14.428  0.3045 -0.0164 -0.0972
23829W        W40303   3.559   1.006   2.556 -0.3967  0.2058 -0.0462
23830W        W40304   6.855   5.351   2.919  0.3857 -0.1951  0.6042
23831W        W40305  12.827  12.614   4.119  0.1382 -0.0397  0.0093
23832W        W40306   2.911  13.697   4.015 -0.3984 -0.0698  0.0374
23833W        W40307   7.488  12.423   4.659  0.1004 -0.0521  0.2200
23834W        W40308   7.612  17.678  15.516  0.2660  0.3082 -0.1964
23835W        W40309   0.845  11.314   3.986  0.0510  0.0542  0.2503
23836W        W40310  10.908  14.627   1.639 -0.1901 -0.1799 -0.0548
23837W        W40311  12.539   0.091   1.968  0.0088  0.0334  0.0586
23838W        W40312  14.847   5.843  12.461 -0.1134 -0.0965 -0.0515
23839W        W40313  17.481   3.979  13.159 -0.0142 -0.0599  0.2626
23840W        W40314   6.373  16.012  11.716  0.1256  0.2166  0.0915
23841W        W40315  18.301   0.598  13.360  0.0937 -0.0214 -0.1688
23842W        W40316   4.053   0.222  15.642 -0.0698 -0.2049 -0.0831
23843W        W40317   6.970   1.512   4.185  0.0581 -0.2181 -0.1132
23844W        W40318   4.805  11.368  15.305 -0.0129  0.0928  0.0753
23845W        W40319  14.925   6.301  13.659  0.0686  0.1209  0.0579
23846W        W40320   7.516   2.042  15.315 -0.0691 -0.1110 -0.0126
23847W        W40321  12.967  12.876  10.917  0.2814  0.0740  0.0090
23848W        W40322   8.515   6.034  16.178 -0.2600 -0.0552 -0.0863
23849W        W40323  16.067   4.561  11.518 -0.1122  0.2295  0.0757
23850W        W40324  13.426   1.309   3.776  0.3545 -0.1586  0.2716
23851W        W40325   7.223   1.959   3.075 -0.1459  0.1018 -0.1485
23852W        W40326   5.203  11.155  13.626 -0.1029  0.0112 -0.1589
23853W        W40327   9.954  18.302   0.710  0.1841  0.3076  0.5790
23854W        W40328   1.832   7.539   2.871 -0.1275 -0.0214 -0.0202
23855W        W40329  15.425   3.650   5.301  0.3536  0.2195 -0.1798
23856W        W40330   7.990  17.194  14.724  0.0606 -0.3412 -0.0899
23857W        W40331   3.274  15.117  11.796 -0.0507  0.1631  0.0317
23858W        W40332   1.614   9.083   2.532  0.0476  0.1598 -0.2058
23859W        W40333   2.807  12.487  11.312  0.1222  0.0443  0.1552
23860W        W40334  12.607   8.887   0.529  0.0979 -0.0280  0.3290
23861W        W40335   7.296   0.701   3.916 -0.0407  0.0864  0.1732
23862W        W40336   7.211   0.182  15.255  0.1715  0.1751  0.2540
23863W        W40337   3.453   2.925   0.428  0.0849  0.0089  0.2503
23864W        W40338   0.487   5.565   1.029 -0.2806  0.1025 -0.2675
23865W        W40339   6.957   0.187   1.268 -0.4408  0.2841 -0.2211
23866W        W40340   4.709   2.760   0.846 -0.0965  0.1461  0.0081
23867W        W40341  17.503   9.204   1.401  0.1759 -0.0164  0.1281
23868W        W40342  16.541  14.618   5.131 -0.3182 -0.0308  0.1154
23869W        W40343  13.116   2.267   3.778  0.0251 -0.1074  0.2109
23870W        W40344   7.563  15.602  11.909 -0.0068  0.0211  0.1232
23871W        W40345   7.045   5.507   1.702  0.0072  0.0675 -0.0214
23872W        W40346   7.396  13.127   2.096 -0.0592  0.1938  0.0388
23873W        W40347  18.197  17.186   3.200 -0.1265 -0.1210 -0.0994
23874W        W40348   8.345   6.007  14.815 -0.1384  0.1651 -0.0691
23875W        W40349   0.354  17.748   0.424  0.2726 -0.0183 -0.1981
23876W        W40350  12.227   2.256  15.533  0.1312 -0.1170 -0.0451
23877W        W40351  11.179   9.353   2.204  0.0689 -0.2526 -0.0811
23878W        W40352   9.450  12.490  12.977  0.0305  0.2563  0.2188
23879W        W40353   9.673   2.373  15.463 -0.4740 -0.4760 -0.2032
23880W        W40354   4.876   1.215   0.301  0.0438 -0.1289  0.1305
23881W        W40355  16.814  15.388   1.272 -0.0986  0.0448  0.3254
23882W        W40356  17.235  17.653  10.912  0.0893 -0.0683  0.0035
23883W        W40357  17.840  16.671   5.170  0.1152  0.2436  0.1852
23884W        W40358   7.651  13.361  14.510  0.0319 -0.0690  0.0735
23885W        W40359  11.536   7.309   1.707 -0.1748 -0.2810 -0.0021
23886W        W40360  13.484  11.172  11.683 -0.1527 -0.0427 -0.1049
23887W        W40361   5.594  16.425  12.748 -0.1470  0.0708 -0.1628
23888W        W40362  14.969  16.172  15.052 -0.0040  0.0594  0.1668
23889W        W40363  11.627  11.402   0.404 -0.3895 -0.1301  0.0462
23890W        W40364  17.732   9.298   9.725 -0.1343  0.0077  0.1143
23891W        W40365   9.938   0.932   0.256  0.0610 -0.1007  0.3988
23892W        W40366  15.668   5.505   1.209 -0.3317 -0.0948  0.2180
23893W        W40367   7.525  16.413   3.556  0.0175  0.0791  0.1454
23894W        W40368   9.512   9.877   1.401  0.1821  0.2129  0.0193
23895W        W40369  10.223   3.683  11.153 -0.0362  0.0035  0.2864
23896W        W40370  12.600  12.069  14.172  0.3352  0.1259 -0.1340
23897W        W40371  16.736  17.982   0.159 -0.0488 -0.2279  0.1862
23898W        W40372   9.172  17.024   5.534  0.1810  0.2025  0.1740
23899W        W40373   6.916   1.315   5.738 -0.1352 -0.2577 -0.0290
23900W        W40374   5.422  12.985   3.194  0.1400 -0.0541  0.0917
23901W        W40375   0.433   0.370  15.713 -0.1198  0.0975 -0.1366
23902W        W40376   9.237   8.607  11.509  0.0329  0.0793  0.3945
23903W        W40377   9.031  10.198  13.322  0.1669  0.2010  0.2042
23904W        W40378  14.270   3.118   5.484  0.2088  0.1428  0.1197
23905W        W40379  15.077   3.303  12.961 -0.0729 -0.0483  0.2204
23906W        W40380  18.271   7.470   1.827  0.1289 -0.1579  0.3093
23907W        W40381   1.010   6.177  13.035 -0.3086 -0.2709 -0.2004
23908W        W40382   4.393   8.154  13.901  0.5774 -0.0766  0.0046
23909W        W40383  12.195  12.267  15.529 -0.1420 -0.1176 -0.0917
23910W        W40384  17.936  17.780  15.358 -0.0206  0.1254  0.0893
23911W        W40385   6.953   9.224   2.734  0.0195 -0.0643 -0.2362
23912W        W40386  10.963  17.990   5.363  0.0705  0.1113  0.0937
23913W        W40387   0.619  16.235  15.177 -0.0195 -0.2912  0.0037
23914W        W40388   5.621  10.384   3.826 -0.2620  0.1043  0.2084
23915W        W40389  11.718  13.595  14.643  0.3603  0.1230  0.0315
23916W        W40390   1.890  16.582  14.675 -0.0882  0.0513 -0.1853
23917W        W40391  15.918  13.161   2.218  0.1716 -0.1709 -0.1139
23918W        W40392   2.673   4.428   1.848  0.0415  0.1982  0.1225
23919W        W40393  13.202  11.617   0.740 -0.1424 -0.0261  0.3178
23920W        W40394  11.329  17.455  11.842  0.0760 -0.0129  0.0512
23921W        W40395  14.489   8.720   4.798 -0.4077 -0.0897 -0.0598
23922W        W40396  13.481  12.144   5.229  0.0938  0.0618  0.0452
23923W        W40397   6.708   1.664   3.623 -0.1284 -0.0843 -0.1329
23924W        W40398  16.576   8.498   1.026  0.0987  0.3137  0.2766
23925W        W40399  11.852   7.669  15.304 -0.0730 -0.1149  0.1754
23926W        W40400   1.739   9.085   3.960 -0.1897  0.1807 -0.1994
23927W        W40401  10.245   5.035   0.517  0.1419 -0.0665 -0.2726
23928W        W40402  15.312   9.392  15.412 -0.0696  0.0634 -0.2482
23929W        W40403  13.903   3.319   0.654  0.0214 -0.0806 -0.1947
23930W        W40404   6.613   4.909  11.439  0.0810  0.1489  0.0794
23931W        W40405  12.672  16.131   0.060 -0.2248  0.2749  0.1635
23932W        W40406  14.432   4.720  11.553 -0.0278 -0.1112 -0.0125
23933W        W40407  15.747   4.924  16.200 -0.0974 -0.0426  0.1816
23934W        W40408  14.724   2.935  15.841  0.3064 -0.0826 -0.1185
23935W        W40409  16.356  13.363  12.743 -0.5359  0.1595  0.0804
23936W        W40410  12.607   0.927   5.646 -0.2291  0.4228 -0.0879
23937W        W40411  11.352   9.348  11.753  0.2702  0.1175 -0.0154
23938W        W40412  17.838  17.301   1.968 -0.0451  0.2335 -0.0605
23939W        W40413   5.264  13.925  13.643  0.1965  0.1343 -0.2105
23940W        W40414   5.823  17.859   4.533 -0.3655  0.0531  0.0123
23941W        W40415  15.234  16.977   3.794  0.0005  0.1385 -0.0427
23942W        W40416  17.733   4.549  13.002  0.1322  0.1826  0.0857
23943W        W40417  11.076   3.750   0.930 -0.3651  0.1369 -0.0262
23944W        W40418  12.533   4.330  15.265 -0.0986 -0.1520  0.1503
23945W        W40419  12.936   7.139   4.349  0.1613 -0.1227 -0.1191
23946W        W40420   0.772  15.695  12.680  0.0729 -0.0280 -0.0360
23947W        W40421  17.027   1.408  14.488 -0.4548  0.2455 -0.1815
23948W        W40422   9.960   4.032  13.819 -0.0330  0.1517 -0.1192
23949W        W40423  13.833   6.607   9.771 -0.1187  0.1610  0.1301
23950W        W40424  14.373  13.410   3.412 -0.1004 -0.3038  0.0666
23951W        W40425  18.011   0.462   5.267  0.0652  0.0172  0.2424
23952W        W40426   2.791   6.242  12.740  0.0879 -0.0100 -0.1070
23953W        W40427  15.467  11.671  13.570 -0.2536 -0.6451  0.1280
23954W        W40428   0.970  12.940   3.925  0.0234  0.1354  0.1459
23955W        W40429   2.647  11.321   0.220 -0.2324  0.0687  0.2201
23956W        W40430  13.707   6.287  10.157 -0.1198  0.1192 -0.1499
23957W        W40431  10.962  13.847   1.963  0.1943 -0.1689  0.1339
23958W        W40432   3.324   9.048   0.545 -0.0041 -0.1387 -0.0738
23959W        W40433  18.182  14.766  11.911  0.0735 -0.2950 -0.0944
23960W        W40434   7.510  13.540  16.303  0.0493  0.0559 -0.0919
23961W        W40435  17.420   7.396  15.627  0.0596 -0.0349 -0.2052
23962W        W40436   5.969   3.558  16.117 -0.4325  0.1271  0.0301
23963W        W40437   2.724  17.470   3.557  0.1094 -0.2555  0.0229
23964W        W40438   2.198  16.698   2.804  0.1534 -0.0796  0.1304
23965W        W40439   7.683  14.696   0.533  0.3053 -0.2056  0.1500
23966W        W40440  16.801   3.282   2.684 -0.2002 -0.0640  0.1737
23967W        W40441   8.158   7.679   4.508 -0.0662 -0.3661  0.1207
23968W        W40442  11.596   9.519   4.946 -0.2868  0.0524  0.1353
23969W        W40443  12.278  14.917  13.275  0.0941  0.2762 -0.1513
23970W        W40444  13.439   8.664   0.025 -0.1830  0.1050  0.1041
23971W        W40445   1.024   6.038   1.997  0.1144 -0.2329  0.2535
23972W        W40446   0.358  15.343   2.673  0.0799 -0.2032 -0.3003
23973W        W40447  14.905  17.649  13.737  0.2202 -0.0792 -0.0976
23974W        W40448   3.598   5.944  12.564 -0.0335 -0.0546 -0.2399
23975W        W40449  17.109  13.326  12.125  0.2519  0.2354 -0.0673
23976W        W40450   8.264   4.518  13.089  0.3064  0.0509 -0.4212
23977W        W40451  15.095  16.793   2.977 -0.1466 -0.1110  0.0222
23978W        W40452   9.049  11.133   1.014  0.1382 -0.0597  0.0293
23979W        W40453   5.323   8.143   4.807  0.2224 -0.2213 -0.0464
23980W        W40454  14.304   3.781  11.458  0.0290  0.2204 -0.0829
23981W        W40455   9.515  15.743   0.857 -0.0567 -0.1401 -0.0945
23982W        W40456   6.832   0.699   0.095  0.0627  0.1706 -0.3201
23983W        W40457   6.787   3.900  13.758  0.3072 -0.1726  0.1973
23984W        W40458  17.233   3.238   0.787 -0.2650  0.0855  0.0311
23985W        W40459   3.782   3.401  15.231  0.0595  0.0258 -0.1124
23986W        W40460  10.596  16.344   1.947 -0.1762 -0.1243  0.1344
23987W        W40461  17.323  12.782  13.786  0.0128 -0.1090  0.1222
23988W        W40462   5.262  15.764  16.154 -0.0460  0.1862  0.1838
23989W        W40463  17.972   0.214   0.318  0.3123  0.1867 -0.2604
23990W        W40464  14.306   3.112  14.524 -0.2353 -0.2116  0.1333
23991W        W40465  10.740  11.251   1.256  0.0745 -0.1021 -0.1315
23992W        W40466   7.847  18.236   0.553  0.2519 -0.1269  0.0996
23993W        W40467  14.648  14.730  14.352  0.0471 -0.0432  0.2406
23994W        W40468   8.803   2.836  15.134  0.0985  0.3773  0.0366
23995W        W40469   4.518   5.650   4.249 -0.1737  0.2512 -0.1142
23996W        W40470   6.942  13.455  11.074 -0.2542 -0.0570  0.0100
23997W        W40471   0.478   3.213  14.831 -0.0260  0.1655 -0.0645
23998W        W40472   0.101   2.933  12.358 -0.2624 -0.1394  0.0924
23999W        W40473   0.433   8.638  13.272  0.2827  0.2167 -0.2645
24000W        W40474  18.135  13.656   4.901 -0.0618 -0.0906  0.1622
24001W        W40475   6.764   6.403  13.893  0.2824  0.0528 -0.2236
24002W        W40476  16.651  15.152  13.183  0.0570 -0.1649 -0.1189
24003W        W40477   8.125  11.944  14.783  0.2016 -0.1930 -0.0748
24004W        W40478   2.674   0.250  13.288 -0.0051 -0.3065 -0.1947
24005W        W40479  13.481   5.783   0.728  0.0551  0.1054  0.0167
24006W        W40480   4.249   8.194   1.124  0.0865  0.2503  0.2366
24007W        W40481  17.481  12.487   1.912  0.0975  0.1250  0.0550
24008W        W40482   6.414  18.338   1.286  0.2813 -0.2603  0.0661
24009W        W40483   5.661   2.957   3.081 -0.3008 -0.0757 -0.1230
24010W        W40484  17.934  16.175   3.985 -0.0671 -0.2270 -0.0999
24011W        W40485  10.114  11.489   3.288 -0.1256 -0.1766  0.0243
24012W        W40486  11.133   0.042  13.826  0.2727 -0.0522 -0.2373
24013W        W40487   1.499  11.595   1.198  0.0693 -0.1239  0.3291
24014W        W40488   3.379  18.062  16.053 -0.0988  0.0477  0.1065
24015W        W40489  18.136   9.320   4.767  0.1271 -0.2413  0.0603
24016W        W40490   3.236   5.143  12.916  0.0839 -0.0912 -0.1787
24017W        W40491   1.830  10.179   5.285  0.1223 -0.0742 -0.4477
24018W        W40492  14.472  15.364  14.831  0.0802  0.1563  0.0250
24019W        W40493  15.477   9.618   0.141  0.1086  0.2082  0.1531
24020W        W40494   3.877   4.406   4.983 -0.0569  0.1811 -0.1572
24021W        W40495  17.924  15.151   4.014 -0.2725  0.1343 -0.2331
24022W        W40496   5.028  12.853   2.366  0.0714  0.3576  0.4501
24023W        W40497   0.162   4.685   2.137 -0.2255 -0.1764 -0.2772
24024W        W40498   5.471   2.472   5.145 -0.2199 -0.2030 -0.0535
24025W        W40499  11.025  10.648  15.209 -0.0579  0.3195  0.1576
24026W        W40500  14.102   6.515   0.913  0.1139  0.2196  0.2329
24027W        W40501   0.675   0.428   3.692 -0.2040  0.4790 -0.0163
24028W        W40502  10.439  13.010   1.725  0.2500  0.0386 -0.0213
24029W        W40503  11.169  11.831  13.547 -0.1541  0.1514 -0.3070
24030W        W40504   9.353  11.870  16.007 -0.0895  0.1568  0.5725
24031W        W40505  17.555   1.394  11.972  0.0358  0.0265 -0.0690
24032W        W40506  17.497   3.899  13.733  0.1701  0.1608 -0.1787
24033W        W40507   1.972  11.632  12.181  0.0986 -0.1180  0.2115
24034W        W40508  15.085   9.290   2.814 -0.0579  0.2809 -0.0935
24035W        W40509   6.052   4.074  14.388 -0.1813 -0.1759  0.1217
24036W        W40510   0.030   7.746  15.368 -0.5330 -0.0855  0.0511
24037W        W40511   8.732  11.805   1.437  0.0729  0.1189 -0.0210
24038W        W40512  10.173  13.180   4.299 -0.1746  0.3175 -0.0364
24039W        W40513  15.815   9.566   1.189  0.3080 -0.1884 -0.2676
24040W        W40514   6.125   6.587  12.815  0.2365  0.3554 -0.1082
24041W        W40515  12.893   5.875  11.518  0.3600 -0.1002  0.1756
24042W        W40516   1.220   0.857   1.812 -0.0749 -0.0837 -0.0684
24043W        W40517  13.458  15.162  11.884 -0.0810 -0.0057  0.3175
24044W        W40518   6.885  11.857  15.388 -0.1958 -0.4117  0.0272
24045W        W40519   4.012   3.955  11.696  0.0315  0.0280  0.0950
24046W        W40520   1.747  11.961   0.886  0.1356 -0.0087  0.0445
24047W        W40521   8.226   9.427  13.612 -0.2550  0.2535 -0.1830
24048W        W40522   0.643  11.076   4.410 -0.0917  0.0224  0.2944
24049W        W40523  12.529   8.945  12.094 -0.1936  0.3809 -0.0085
24050W        W40524   8.423   8.266  15.721  0.1531  0.1336  0.1961
24051W        W40525  12.066  13.762  13.331 -0.1189  0.1942 -0.1322
24052W        W40526   8.948   6.394   1.951  0.1333 -0.1696  0.3919
24053W        W40527   3.727  11.743  13.615 -0.1764  0.2102  0.2074
24054W        W40528   2.773   1.837  12.161  0.2651  0.2396  0.1827
24055W        W40529  14.755   4.805   0.727 -0.1375 -0.1994 -0.2905
24056W        W40530   2.403  14.888   5.644  0.3867 -0.5899  0.3758
24057W        W40531   2.006   1.626  12.003 -0.1833 -0.2940  0.1033
24058W        W40532   8.292  11.728   0.609 -0.4202  0.0083 -0.2162
24059W        W40533   3.749   9.538  16.098 -0.2677 -0.0301  0.4960
24060W        W40534  14.720   5.930   3.334  0.2719 -0.0106 -0.3374
24061W        W40535  12.886  12.601  13.554 -0.1793 -0.0360 -0.1162
24062W        W40536  11.323  18.126  13.531  0.1083 -0.1221 -0.0365
24063W        W40537   1.718   8.358   3.306 -0.0402  0.3400  0.0535
24064W        W40538   0.420  16.057  13.246  0.1444  0.1397  0.1002
24065W        W40539   0.137   8.937   4.832 -0.0106 -0.3016 -0.3104
24066W        W40540   1.877  16.452   3.231  0.1329 -0.3343  0.1930
24067W        W40541  11.841  16.619  16.221  0.1349  0.0806  0.2867
24068W        W40542  11.210  12.118  15.540  0.1704  0.1085  0.0684
24069W        W40543   8.115  13.374  13.495  0.1346 -0.1997 -0.3382
24070W        W40544  13.903   9.025  16.198 -0.1237 -0.0934  0.0060
24071W        W40545  15.100  17.242  14.921 -0.0448 -0.0059  0.1471
24072W        W40546   6.092  16.146  15.052  0.3242 -0.1089 -0.4060
24073W        W40547   7.379   8.948  13.888 -0.2365  0.1226 -0.1577
24074W        W40548  17.623   9.372   2.963  0.0314 -0.1332 -0.2245
24075W        W40549  15.075   9.986   0.998  0.5347  0.1726 -0.2307
24076W        W40550   2.391   7.904  11.390 -0.0741  0.2354 -0.2344
24077W        W40551   6.431  13.557  15.177  0.1316 -0.0963 -0.2047
24078W        W40552  13.805  10.647   3.972  0.0233  0.0196  0.0046
24079W        W40553  11.414  12.930   0.627 -0.1190  0.1877 -0.1663
24080W        W40554  12.136   1.139   3.633  0.0704 -0.0527  0.2022
24081W        W40555  16.202   9.371   0.710  0.3066 -0.0773  0.2512
24082W        W40556  17.692  16.675  11.339  0.2692  0.2652 -0.1669
24083W        W40557   6.805  17.537  13.142  0.0169 -0.0906 -0.0191
24084W        W40558  15.899  16.555  16.051  0.4406 -0.2193 -0.0582
24085W        W40559   0.079  18.246  16.192 -0.2672  0.1375 -0.3419
24086W        W40560  10.106   5.452  15.631  0.2572 -0.2888 -0.4124
24087W        W40561  10.886   3.900   5.242  0.0849  0.1388 -0.4175
24088W        W40562  12.310  15.418   2.652 -0.0054 -0.1907  0.2906
24089W        W40563  11.869  15.224   0.080 -0.3158 -0.2131  0.2927
24090W        W40564   7.788   6.896  16.143  0.1091 -0.5795  0.2046
24091W        W40565   5.004  12.569  13.712 -0.3141  0.0025 -0.1986
24092W        W40566   7.254  10.005   4.165  0.2656  0.3236  0.0666
24093W        W40567   8.996   3.236  12.727  0.1732  0.0715  0.4985
24094W        W40568   9.780  15.766  14.863 -0.0941  0.1605  0.0583
24095W        W40569  16.234   8.600  16.021 -0.0024 -0.0083  0.2302
24096W        W40570  17.996  11.918   0.355 -0.1408 -0.0200  0.3836
24097W        W40571   5.647  12.017  13.410  0.0529 -0.1179  0.1264
24098W        W40572   5.193  15.564   1.319 -0.1268  0.0389 -0.0186
24099W        W40573   0.059   6.689   0.004  0.0887  0.2545 -0.0812
24100W        W40574   5.267  17.591   4.071 -0.0526 -0.1213 -0.0123
24101W        W40575   2.592  14.845   2.016 -0.0726  0.0854  0.0003
24102W        W40576   6.067   8.187   0.133  0.0722  0.0525 -0.1998
24103W        W40577   3.321   4.994  11.366  0.0673 -0.0131  0.2881
24104W        W40578  11.427  11.421  14.930  0.1877 -0.0999  0.2533
24105W        W40579   6.358   5.969   4.428  0.2164 -0.1023  0.2896
24106W        W40580  14.971  18.293   4.852  0.3776  0.3074  0.1114
24107W        W40581  12.609   2.392   4.001  0.2382  0.1181  0.1508
24108W        W40582   5.185  10.449   0.935 -0.2849  0.1137 -0.1509
24109W        W40583   4.932  17.447   2.739  0.2184  0.0269 -0.0275
24110W        W40584   2.843   0.124   4.873 -0.3426  0.5183  0.1500
24111W        W40585  14.162  10.294   4.050  0.0812 -0.1179 -0.0439
24112W        W40586   3.447  16.787   3.402 -0.2981 -0.0186  0.0518
24113W        W40587   4.659   7.476   0.448 -0.0410  0.0375  0.0354
24114W        W40588   8.586  12.330   2.006  0.1163  0.1909 -0.1480
24115W        W40589  10.069  13.458  13.737  0.4360  0.0462 -0.1191
24116W        W40590   7.824  17.150  15.279 -0.3044  0.2338  0.0967
24117W        W40591  13.553   4.452  12.799 -0.1174 -0.2813 -0.1513
24118W        W40592  14.391  13.111  15.938 -0.1259 -0.2281  0.2598
24119W        W40593   6.078   6.050   3.620  0.0912  0.0057  0.0621
24120W        W40594  10.064   4.693  16.131 -0.0481  0.2309  0.0621
24121W        W40595   0.325   7.591   0.767 -0.1487 -0.0582  0.0575
24122W        W40596   1.918  11.593   3.173  0.0068  0.1550 -0.1704
24123W        W40597  10.867   2.980   2.255  0.0268 -0.2228  0.0988
24124W        W40598  12.901  14.002  15.925  0.4090 -0.3046 -0.0948
24125W        W40599   5.579  13.488   1.792 -0.2506 -0.1248  0.0332
24126W        W40600   2.232  17.953  15.133  0.0702  0.0031  0.3769
24127W        W40601   1.828   8.073  12.272 -0.0948 -0.1470 -0.0180
24128W        W40602   2.618   8.208   2.468  0.3277 -0.1299  0.1841
24129W        W40603   1.026  11.224   1.541  0.4999 -0.3921  0.3067
24130W        W40604   7.662   9.753   4.478  0.3393  0.0933 -0.7500
24131W        W40605  17.508  10.062   5.805  0.1166 -0.0840  0.1901
24132W        W40606   4.111  10.732   0.998  0.4823  0.1116  0.1441
24133W        W40607  17.910   1.247  13.848  0.1574 -0.2782 -0.1738
24134W        W40608  12.190  15.284   4.895  0.0888 -0.1655  0.2016
24135W        W40609  17.031  13.177   3.235  0.1812 -0.0197 -0.2440
24136W        W40610  16.583  10.721   4.551  0.1965 -0.0922 -0.0995
24137W        W40611   7.191  12.217   0.058  0.1655 -0.2431 -0.0091
24138W        W40612  16.314  15.887   1.098 -0.0944  0.0755  0.0558
24139W        W40613  18.166   4.406  15.884  0.1192 -0.1658  0.2432
24140W        W40614  11.419  10.425  11.277 -0.1043  0.5451 -0.0465
24141W        W40615   2.625  16.822  15.006  0.0901 -0.1898 -0.2827
24142W        W40616  13.969   3.623  14.364 -0.2422  0.0938 -0.3162
24143W        W40617   4.944  12.571  13.197 -0.1499 -0.0617  0.1647
24144W        W40618  10.699  14.782  16.083  0.0045 -0.1081 -0.0345
24145W        W40619   1.721   1.027   1.758 -0.2059  0.1195 -0.2175
24146W        W40620  16.706  18.079  14.500  0.1545  0.0329  0.5991
24147W        W40621   9.998  17.754  12.811  0.0308 -0.0699  0.0056
24148W        W40622  17.630   2.167  15.812  0.0686  0.2375  0.2530
24149W        W40623   2.301   3.620  13.863 -0.0805 -0.1157 -0.0341
24150W        W40624   2.682  17.031   3.410 -0.2282 -0.1640 -0.0954
24151W        W40625   9.462  12.928   4.878  0.2157  0.0291 -0.1510
24152W        W40626   6.209  14.455   2.530  0.0901  0.0208 -0.1761
24153W        W40627   8.221   5.153  11.631 -0.0387 -0.0071  0.3128
24154W        W40628   3.138   6.424   1.128 -0.4411 -0.0233  0.1931
24155W        W40629  17.907  10.893   1.628 -0.0097 -0.0259 -0.3187
24156W        W40630   2.964   2.191   5.818  0.2540  0.0806  0.0151
24157W        W40631   8.676   4.196   5.016  0.1100  0.0106 -0.1446
24158W        W40632   6.768  13.428   0.821 -0.1968  0.0719  0.2107
24159W        W40633  14.432   8.808  15.437  0.2095  0.0407 -0.0108
24160W        W40634   7.934  14.509   3.497 -0.0276 -0.1333  0.0951
24161W        W40635  15.657  10.637  12.056  0.1248 -0.0291  0.1291
24162W        W40636  10.654   1.893   5.131 -0.0062 -0.1355 -0.2336
24163W        W40637  15.346  11.437  14.699 -0.0944 -0.1169  0.2304
24164W        W40638  12.818  12.195  12.185  0.2509 -0.0552  0.0870
24165W        W40639  17.637  10.149  13.246  0.1608  0.2778 -0.1104
24166W        W40640   4.895   8.253  11.380 -0.0569 -0.0690  0.2425
24167W        W40641  14.935  10.292  14.359 -0.2179 -0.1185  0.0488
24168W        W40642   0.836  15.152   3.906 -0.1105  0.1235 -0.0828
24169W        W40643   8.859   8.597  12.513  0.1387 -0.0032 -0.2013
24170W        W40644  12.306   8.415  12.961  0.2609 -0.1348 -0.2554
24171W        W40645   5.822   2.094   2.574 -0.2612 -0.0035  0.0131
24172W        W40646   2.589   6.235  14.976  0.1284  0.3646  0.3634
24173W        W40647   3.004   6.605  11.532  0.2212  0.4514 -0.3060
24174W        W40648   3.704   7.561   0.537  0.0737 -0.0870  0.0104
24175W        W40649  12.763   8.447   4.820  0.3776  0.0317  0.0576
24176W        W40650   8.937   4.899   3.732  0.2435 -0.1141  0.2798
24177W        W40651   0.775  11.189  15.087 -0.0285  0.1421  0.1841
24178W        W40652   5.289  17.537  14.776 -0.3251 -0.0693  0.0655
24179W        W40653   9.751   0.579  15.068  0.0705  0.1474 -0.1485
24180W        W40654  10.273   5.824   3.349  0.2773 -0.3869 -0.0291
24181W        W40655   3.341   1.325   5.396 -0.1306  0.0404  0.1385
24182W        W40656   9.753  15.569  15.315  0.2112 -0.0211  0.1028
24183W        W40657  13.336  11.545   2.403  0.0340  0.1993 -0.0922
24184W        W40658  11.833  15.930  14.762 -0.2744 -0.2755  0.3318
24185W        W40659  12.074  11.612  11.352 -0.0310  0.1736 -0.3133
24186W        W40660   6.357   6.765   0.921 -0.0787  0.3376 -0.0673
24187W        W40661  18.231  11.516   4.186  0.1102 -0.1803  0.0397
24188W        W40662   0.657  13.784   1.544  0.1245 -0.3487 -0.1500
24189W        W40663   5.465   9.495   4.274 -0.1791 -0.0165 -0.0394
24190W        W40664   6.533  12.211   0.513  0.1455 -0.0623 -0.3593
24191W        W40665  10.665  13.835  11.440 -0.0209  0.0628 -0.1472
24192W        W40666   7.784   0.212   2.605  0.3755 -0.1914 -0.0531
24193W        W40667  13.360   3.500  13.010 -0.0184  0.1698 -0.0941
24194W        W40668   4.895  14.161   5.645 -0.1869 -0.4465  0.2454
24195W        W40669  15.013  10.889   4.906 -0.2538 -0.2690  0.1429
24196W        W40670   6.193  15.523   2.884 -0.3480  0.0751 -0.2446
24197W        W40671  11.939  16.031  14.007  0.2553  0.0929  0.2267
24198W        W40672  14.603  13.299  13.152  0.1342 -0.3385  0.0493
24199W        W40673  15.607   3.361  16.157 -0.1499 -0.2508 -0.0512
24200W        W40674   0.000   0.804   0.979  0.5328 -0.0210 -0.0898
24201W        W40675   9.554  12.060  15.206  0.0919 -0.1303  0.1413
24202W        W40676  10.731  13.408  14.782  0.2710 -0.1007 -0.0422
24203W        W40677  16.234  16.403  12.565  0.3048  0.3178  0.4132
24204W        W40678  18.013  17.161  14.076 -0.1191  0.1926  0.1050
24205W        W40679   1.157  11.442  14.416 -0.1098 -0.0018  0.1182
24206W        W40680   4.505  18.390  13.498  0.1514 -0.1475 -0.1054
24207W        W40681   2.320   3.538   1.415  0.0250 -0.1158 -0.1252
24208W        W40682  13.906   9.188   1.690 -0.1825  0.3704 -0.0411
24209W        W40683  17.648  14.364  11.178 -0.3991 -0.0237 -0.1097
24210W        W40684   6.381  13.076   0.855  0.3666 -0.0197 -0.4414
24211W        W40685  14.818  16.902   3.421 -0.1540  0.0727  0.2611
24212W        W40686   4.445   0.460  12.004  0.4969  0.2757 -0.1426
24213W        W40687   1.659   9.940   6.176  0.2354  0.0291 -0.0793
24214W        W40688  15.417  17.504   0.073 -0.2626 -0.2035 -0.1337
24215W        W40689   4.067   5.404   3.375 -0.3691 -0.1068 -0.1154
24216W        W40690   4.635   8.400   2.939  0.2677  0.2299 -0.3072
24217W        W40691  17.863  16.406  14.040 -0.0442 -0.1790  0.0832
24218W        W40692  10.253  11.040   4.581  0.2898 -0.1553  0.2609
24219W        W40693   8.142   8.642   0.803  0.0943  0.1467  0.2510
24220W        W40694  10.200  10.227  13.440 -0.1613  0.2376  0.1053
24221W        W40695   9.306   4.503  14.102 -0.4616  0.1273  0.0795
24222W        W40696   2.850  13.173  11.326 -0.0599  0.1389  0.2925
24223W        W40697   6.104  11.884   0.451 -0.0759 -0.0988 -0.0044
24224W        W40698  14.242  13.601  15.157 -0.0501 -0.1884 -0.4122
24225W        W40699   7.113   9.831   1.066  0.0740 -0.0443 -0.1548
24226W        W40700   9.751   7.336   1.337 -0.2540  0.0066  0.0229
24227W        W40701   4.899   6.472  13.644  0.1279  0.1207 -0.0255
24228W        W40702   7.937   9.220  11.220  0.1145 -0.3595 -0.0514
24229W        W40703   9.249   9.937  11.703  0.0190  0.2775  0.2002
24230W        W40704   1.966  14.087   3.975  0.0073 -0.2493  0.2481
24231W        W40705  14.709   5.331   3.183  0.0761 -0.0595  0.1201
24232W        W40706  18.147   6.718   2.217 -0.0299  0.0170 -0.0480
24233W        W40707  16.851   4.572  12.449  0.1114  0.1730 -0.1349
24234W        W40708   8.314   9.843  12.769  0.1135  0.3622 -0.1437
24235W        W40709   8.814  12.112   4.702  0.3442 -0.2464 -0.0913
24236W        W40710  13.229  15.778   4.601  0.3240 -0.1564  0.1447
24237W        W40711   1.336  11.916   5.352  0.1416  0.2084  0.2868
24238W        W40712   7.062  17.689  15.412 -0.3607  0.0248 -0.1120
24239W        W40713  13.988   2.510  15.970 -0.0613  0.1180 -0.0643
24240W        W40714  12.874   3.455  12.905  0.1995  0.2677  0.1197
24241W        W40715  13.587  17.605   1.640 -0.2673 -0.1471  0.0036
24242W        W40716   8.660   0.191   0.402 -0.1300 -0.1066 -0.1625
24243W        W40717  11.755  15.704  12.256 -0.0672  0.0495 -0.1245
24244W        W40718  15.798   6.394   2.332  0.0492 -0.1211 -0.0423
24245W        W40719   6.577   6.863  14.079 -0.0079  0.1651  0.0319
24246W        W40720   7.373  17.768  14.111  0.2930 -0.0998  0.0200
24247W        W40721  14.964   6.572   4.137 -0.0389  0.1747 -0.0329
24248W        W40722   7.639   1.539   1.593  0.1776 -0.1388  0.1280
24249W        W40723   8.111  17.845   2.486 -0.1344 -0.0054 -0.2123
24250W        W40724   8.386   6.563  13.647 -0.1117  0.1151  0.2536
24251W        W40725  14.965   8.629  13.293 -0.4579 -0.1020 -0.0503
24252W        W40726  11.671  12.240   2.253 -0.4322  0.1047  0.0277
24253W        W40727  12.553  10.932  15.676  0.0696 -0.3055  0.2661
24254W        W40728  12.289  11.904   1.067  0.0166  0.1779  0.1421
24255W        W40729  15.158  15.572  15.294  0.0526 -0.2016 -0.0138
24256W        W40730   7.376   4.658   4.437  0.2333  0.1269  0.3178
24257W        W40731  11.447  10.094  10.731 -0.1126 -0.2555 -0.0783
24258W        W40732  12.005   7.509   2.575  0.0058  0.2154 -0.0406
24259W        W40733   1.362   6.520  13.259  0.1249  0.1846  0.1799
24260W        W40734   9.561   7.589  13.571 -0.1174 -0.1143 -0.0311
24261W        W40735   7.315   0.196  16.184  0.1215  0.1328 -0.1220
24262W        W40736  13.608  13.926   6.015  0.1362 -0.1925 -0.2236
24263W        W40737   1.660   2.739  14.764 -0.1369 -0.1082 -0.2594
24264W        W40738  12.851  15.988   3.227 -0.0653 -0.0247 -0.3626
24265W        W40739   4.156   2.658  14.591 -0.3599 -0.0505  0.4238
24266W        W40740  16.386   3.842   0.211 -0.1467 -0.2208  0.0533
24267W        W40741   9.387   9.382   4.845  0.1566  0.3245 -0.1091
24268W        W40742   6.667  14.583   6.235 -0.1994  0.0477 -0.0031
24269W        W40743   9.475   8.528   2.869  0.1653  0.0583  0.2402
24270W        W40744   7.444  16.235  14.594  0.1452 -0.6816 -0.1725
24271W        W40745  11.790  10.702  11.635 -0.2168 -0.0095  0.0985
24272W        W40746   2.509   7.539   2.182 -0.0199  0.1004 -0.1643
24273W        W40747  12.573   5.831  12.239 -0.0624 -0.0545 -0.0332
24274W        W40748  12.903   0.716  14.282 -0.1391  0.1526 -0.1799
24275W        W40749   4.324   4.293   5.200 -0.1213 -0.0663  0.3685
24276W        W40750  13.880   7.766  11.738 -0.1178 -0.0940  0.1079
24277W        W40751  15.517   1.547  15.046 -0.3290  0.2339 -0.0144
24278W        W40752   0.525   1.919  14.459 -0.2743 -0.0149  0.1036
24279W        W40753   5.122  10.724  13.892  0.1701  0.0433 -0.1036
24280W        W40754   7.926   3.423   0.193  0.1456  0.0897 -0.2602
24281W        W40755   8.519   6.941   1.423  0.1327 -0.2550 -0.1671
24282W        W40756  10.393  12.780  15.480  0.0587 -0.2301  0.2607
24283W        W40757   1.379   8.013   0.752  0.0435 -0.1265 -0.0044
24284W        W40758   4.769  12.838   4.330  0.1975  0.0569 -0.1439
24285W        W40759   2.691   4.942   1.712 -0.1407  0.0240 -0.1624
24286W        W40760  12.074  17.018   2.177 -0.0055  0.2828  0.0085
24287W        W40761   2.559  14.986  12.212  0.1164 -0.3737  0.0180
24288W        W40762  16.517   9.682  13.045  0.1277 -0.1222 -0.0248
24289W        W40763  17.357  12.743  12.100 -0.2664 -0.3153  0.1241
24290W        W40764  18.198   8.906   5.274  0.0403  0.0600 -0.0399
24291W        W40765  11.698   4.424  12.020 -0.1481 -0.1234  0.1024
24292W        W40766   5.557  13.237  12.623 -0.1854  0.1285  0.0214
24293W        W40767   2.881   8.625   4.868 -0.5576  0.4071 -0.0448
24294W        W40768   2.445   6.637   0.706  0.0359 -0.1777  0.1339
24295W        W40769   1.893   5.148   2.147 -0.1716  0.1743 -0.1398
24296W        W40770  13.654  16.765   3.267  0.0329  0.0735 -0.2467
24297W        W40771   0.433   4.496   4.631 -0.2574 -0.0197 -0.2484
24298W        W40772  15.334   3.483  11.166  0.1524  0.0974 -0.0308
24299W        W40773  16.502   1.610   0.819  0.0318 -0.0414 -0.2404
24300W        W40774  10.302   1.974   4.694 -0.0000  0.2638  0.0788
24301W        W40775  11.765  12.998   3.264 -0.0823  0.1445  0.4058
24302W        W40776   1.224  10.401   5.242 -0.1026 -0.0808  0.0976
24303W        W40777   3.771   6.860  12.827  0.1626 -0.0132  0.1122
24304W        W40778  13.017  11.298   3.613 -0.0122  0.2215  0.4544
24305W        W40779  10.279   5.587   3.766  0.2136 -0.0139  0.2560
24306W        W40780  18.018  16.574   4.645 -0.1391 -0.2438 -0.0687
24307W        W40781   3.736   5.055   4.586  0.4422  0.1182 -0.0783
24308W        W40782   5.499   4.157  14.197 -0.2050  0.3203  0.0691
24309W        W40783  11.697   1.895   1.216  0.0094  0.1198  0.0119
24310W        W40784   1.191  10.932   5.156  0.0465  0.0464  0.1165
24311W        W40785  18.052  13.159  14.309  0.0121 -0.0917 -0.3018
24312W        W40786  15.115   1.103   1.014 -0.0167  0.0945 -0.2221
24313W        W40787   2.960   1.743   4.481  0.1866  0.0274 -0.1985
24314W        W40788   9.956   9.410   1.729  0.0288  0.4119 -0.0715
24315W        W40789   1.389   0.173   0.136 -0.0460  0.0492  0.0187
24316W        W40790  14.436  11.347  13.689 -0.1408  0.1529 -0.0638
24317W        W40791  14.587  12.146  14.215  0.7227  0.3467  0.1378
24318W        W40792  12.466   6.655   2.726 -0.0906 -0.1127 -0.0613
24319W        W40793  15.275   0.242  14.596 -0.0394 -0.1857 -0.1034
24320W        W40794  12.745   0.495  15.577  0.0153 -0.1001 -0.1981
24321W        W40795   5.204  11.924  15.452 -0.3477  0.0203  0.1198
24322W        W40796  12.818   0.841   4.564 -0.1919 -0.3671  0.1632
24323W        W40797   0.664   3.819   1.180  0.1414  0.0832 -0.0087
24324W        W40798   0.407  14.780   2.716 -0.0718 -0.2543  0.0511
24325W        W40799  18.061   3.628   3.198 -0.1050 -0.0339 -0.3792
24326W        W40800   1.340  15.629  14.669 -0.1169  0.2326 -0.1874
24327W        W40801  14.195   2.257   0.026 -0.0462  0.1586 -0.3191
24328W        W40802  11.642   7.343  11.247 -0.0868  0.2164 -0.2256
24329W        W40803  10.058   2.408  14.469 -0.2418 -0.2151 -0.1314
24330W        W40804  13.463  15.795   5.530  0.4062  0.0819 -0.0663
24331W        W40805  15.078   1.381  11.753 -0.0029 -0.0539  0.1367
24332W        W40806   0.866   7.676  12.364 -0.0273 -0.1435  0.3218
24333W        W40807   1.035   9.844  11.609  0.2739 -0.0183 -0.4457
24334W        W40808   9.365   7.736  11.451  0.1850  0.2547 -0.0211
24335W        W40809   4.228   9.316   1.756  0.4461  0.0614 -0.6194
24336W        W40810  18.321  10.479   5.464  0.2764  0.3625 -0.0690
24337W        W40811  13.425   3.193   4.814  0.1708  0.1976  0.2232
24338W        W40812  10.520  12.649   2.863  0.0002  0.1656 -0.0196
24339W        W40813   0.340  13.480   0.717 -0.3424 -0.2491  0.1563
24340W        W40814  12.260  10.681   4.487 -0.0645  0.2851 -0.1203
24341W        W40815  14.166  16.859   1.961 -0.0566  0.1556  0.3193
24342W        W40816   4.463  15.230  13.487 -0.3137  0.0078 -0.0571
24343W        W40817  13.932  12.105   0.831  0.0484  0.1849 -0.0191
24344W        W40818  17.654   1.091  15.063  0.1795 -0.1067  0.3989
24345W        W40819  13.405  10.089  12.374 -0.4244  0.1639  0.2275
24346W        W40820  15.624  15.684  12.748  0.0678 -0.1256  0.3792
24347W        W40821   9.880  14.747  12.977 -0.0115 -0.0188 -0.0070
24348W        W40822  11.599   3.640  11.292  0.2012 -0.0624 -0.3612
24349W        W40823   2.905   2.883   0.825  0.0675  0.2715  0.0646
24350W        W40824  11.621   7.005   4.275 -0.3525 -0.0254  0.0160
24351W        W40825  16.016   2.906  14.422 -0.0857  0.1832 -0.0786
24352W        W40826  12.515  17.741  14.386 -0.0355  0.2930  0.1533
24353W        W40827   3.104   1.551  12.360  0.1719  0.0628  0.1862
24354W        W40828  10.553   6.540  15.861 -0.0897  0.1223 -0.2438
24355W        W40829  12.530  13.199  11.076  0.0326  0.0846  0.2975
24356W        W40830  15.037   3.685   1.714 -0.3356  0.0047 -0.1366
24357W        W40831  15.337  17.172   2.659 -0.4093 -0.0473 -0.0219
24358W        W40832  14.063  15.708   1.741  0.0118  0.2900  0.3458
24359W        W40833  16.644  18.315  15.105 -0.3510  0.3612 -0.1559
24360W        W40834   7.024   1.523  14.156  0.1703  0.5406 -0.1856
24361W        W40835  11.956  13.029  13.960  0.3023  0.4029 -0.1421
24362W        W40836   3.214  13.793  12.120 -0.0330  0.1128  0.0851
24363W        W40837  11.180   7.848   1.434 -0.0235 -0.0638 -0.1140
24364W        W40838   8.563  16.786   0.884  0.1451  0.0273  0.3238
24365W        W40839   1.768   3.683   4.709 -0.0786 -0.2920 -0.1255
24366W        W40840  10.956   0.978  10.356 -0.1111 -0.0134 -0.2650
24367W        W40841   2.383  13.373  14.295 -0.0035 -0.2237 -0.2582
24368W        W40842  16.484   8.029  11.018 -0.2927 -0.1521  0.1933
24369W        W40843  17.227   4.020  12.671  0.1394 -0.0495 -0.3097
24370W        W40844  13.697   2.412   5.922 -0.0805  0.0850  0.1579
24371W        W40845  14.130  15.032   2.483  0.3518  0.0504 -0.0192
24372W        W40846   4.655  17.454   5.231 -0.2751 -0.3193  0.4274
24373W        W40847  14.255  15.469   3.994 -0.2659 -0.1379 -0.1255
24374W        W40848   4.130   1.231  13.387  0.0690  0.0198  0.2427
24375W        W40849   7.110  17.470   2.671  0.0809  0.0268  0.1752
24376W        W40850  14.676   5.856   4.847 -0.0672 -0.1891  0.1357
24377W        W40851   7.406   0.712   5.256  0.1958 -0.3071 -0.2058
24378W        W40852   6.191   0.238  13.132 -0.3444  0.2248  0.1191
24379W        W40853   7.003  11.145  13.211  0.3109 -0.0616 -0.0163
24380W        W40854   0.367   8.581   1.678 -0.0197  0.0450 -0.1541
24381W        W40855   8.980   9.094  14.717  0.0186 -0.4295 -0.0252
24382W        W40856   2.436   8.653   1.251 -0.1912 -0.1537  0.2090
24383W        W40857  16.648  15.406  14.149 -0.2211 -0.1754 -0.0347
24384W        W40858  11.120  13.164  15.385 -0.1019  0.3668  0.0534
24385W        W40859  16.737   5.906   4.378 -0.1005 -0.1433 -0.1439
24386W        W40860   6.936   8.754   3.234 -0.0117  0.0944 -0.0573
24387W        W40861   3.480   9.914  11.240  0.2008 -0.0383  0.0795
24388W        W40862   5.377   8.560  14.572  0.2009  0.0787  0.0694
24389W        W40863  10.649  11.798  12.780 -0.2782  0.1894  0.0437
24390W        W40864   7.766  14.065  15.152  0.2452  0.0385 -0.1779
24391W        W40865   0.918   3.211  14.382  0.2914  0.3459  0.0463
24392W        W40866  13.956   3.698   4.343  0.0020  0.1756 -0.0851
24393W        W40867  15.272   6.123   3.429 -0.3462 -0.1025  0.0961
24394W        W40868   6.664  11.724   1.319 -0.0852 -0.0450 -0.2137
24395W        W40869   6.368   8.151  16.040 -0.0184  0.1439  0.0818
24396W        W40870  16.407   1.732   3.964  0.0832  0.3656 -0.0146
24397W        W40871  15.071  17.762   4.412 -0.0629 -0.1465  0.2639
24398W        W40872  15.352  16.986   3.339  0.1052 -0.2409  0.2594
24399W        W40873   4.770  15.763   2.554  0.1897  0.2484  0.1830
24400W        W40874   8.584  10.885  14.328 -0.1764 -0.1793 -0.3773
24401W        W40875   8.175   5.089   1.909 -0.1601  0.2019  0.2432
24402W        W40876   6.615   9.846  14.558  0.3876 -0.0030 -0.0369
24403W        W40877   4.303  16.631  14.682  0.0371 -0.0073  0.1815
24404W        W40878   9.466  18.289  14.561  0.0351 -0.3189  0.2472
24405W        W40879   2.374   7.748   6.128  0.0988 -0.0529 -0.2172
24406W        W40880   7.203  15.970   0.725  0.2550  0.1559  0.1506
24407W        W40881  15.023   0.229   2.538  0.0866  0.1875 -0.0144
24408W        W40882   9.377  13.943   1.593 -0.2726  0.1785  0.0315
24409W        W40883  11.676   4.382   4.346  0.0285  0.0456  0.0693
24410W        W40884  13.678   6.422  11.438 -0.1673 -0.1791  0.0190
24411W        W40885  16.721  15.715  15.431  0.2295  0.0183  0.1308
24412W        W40886  13.290  11.983   1.981  0.0093  0.1047  0.2634
24413W        W40887  17.613  16.217   5.418  0.1415  0.0924 -0.1905
24414W        W40888  17.335  15.846   4.232  0.2008 -0.0082  0.0533
24415W        W40889   5.623  10.574   4.285 -0.0870 -0.1603  0.2075
24416W        W40890   2.811  10.360   3.008  0.0742 -0.0280  0.0523
24417W        W40891  12.783   0.842  12.847  0.0557 -0.1192  0.1113
24418W        W40892  17.018   9.502  12.863  0.0290  0.2940 -0.0994
24419W        W40893  12.565  13.475   3.075 -0.1488 -0.0079 -0.0678
24420W        W40894   9.480  10.665  14.495  0.0020 -0.1312 -0.1073
24421W        W40895   4.217  18.341   5.138 -0.1227  0.1269 -0.0542
24422W        W40896  17.963  12.431   3.200 -0.0547 -0.4105 -0.1047
24423W        W40897  16.492  16.870  12.396 -0.0463 -0.0891 -0.1853
24424W        W40898   0.984  14.908   3.462  0.0529  0.2569  0.0742
24425W        W40899  10.609   9.408   0.499 -0.0026 -0.0219  0.1025
24426W        W40900  13.807  10.472   0.185  0.0485 -0.1887 -0.1013
24427W        W40901  13.911  14.664   0.641  0.3021 -0.1009  0.1273
24428W        W40902   6.222  12.105  15.146 -0.0447  0.2500 -0.1361
24429W        W40903   0.769  18.335  13.554 -0.2211  0.3820 -0.4219
24430W        W40904  15.724  17.944   3.623  0.0283 -0.1278  0.1804
24431W        W40905   7.885   4.744  12.833 -0.0227 -0.0849  0.1210
24432W        W40906   9.982  15.899   1.069 -0.0975  0.2120  0.4125
24433W        W40907  13.137   7.802   3.670 -0.2718 -0.3472  0.1156
24434W        W40908  13.382   3.827   1.622  0.0872 -0.4334  0.0933
24435W        W40909   6.812   4.801   3.679  0.2317  0.1202 -0.0451
24436W        W40910  10.325   3.340   4.320  0.1580 -0.3647 -0.0106
24437W        W40911  16.018  14.379  14.035  0.2581 -0.1042 -0.0475
24438W        W40912  10.693   4.887  10.985 -0.0108 -0.1766  0.2601
24439W        W40913  15.916  12.190  16.223 -0.1057  0.1825 -0.1767
24440W        W40914  15.857  17.462  14.491 -0.1991  0.0022 -0.1793
24441W        W40915  10.319  16.279   2.881  0.0263 -0.1314 -0.1030
24442W        W40916   2.918  11.977   5.406 -0.1523 -0.2395  0.0858
24443W        W40917  18.208  18.104   1.177  0.0298  0.2962  0.2091
24444W        W40918   1.694   9.485  10.862  0.0400  0.3239 -0.1708
24445W        W40919  14.198  17.415   4.492  0.2448 -0.1631  0.1077
24446W        W40920  15.923   9.396   2.750  0.0606  0.1594 -0.0504
24447W        W40921   3.602  17.591   0.586  0.1497  0.0345  0.2607
24448W        W40922  14.401   6.160  12.451  0.0408  0.1677  0.0234
24449W        W40923  14.195   4.508  11.994  0.0831  0.0910 -0.1806
24450W        W40924   9.055   7.603  13.804  0.0408  0.0996  0.1361
24451W        W40925   2.399  14.768  14.794  0.2038  0.2697  0.2027
24452W        W40926  15.814  15.975   5.186  0.0299  0.2803 -0.3116
24453W        W40927   7.000  10.952  12.129  0.1058  0.2140 -0.1874
24454W        W40928  14.420   9.907  12.463 -0.0618 -0.1574  0.0007
24455W        W40929   1.789  11.909  15.606 -0.0480  0.1559 -0.1602
24456W        W40930  15.608   4.965   0.417 -0.0439 -0.0037 -0.0792
24457W        W40931   2.108  17.735  11.881 -0.2059  0.0434  0.2326
24458W        W40932  11.559  11.621   4.745  0.0389  0.0679  0.1765
24459W        W40933   2.266  10.826   4.250  0.2439 -0.3410  0.2146
24460W        W40934   8.194   4.450  15.715 -0.1601  0.0042 -0.0517
24461W        W40935  16.337   0.821   1.000  0.0782 -0.0801 -0.0875
24462W        W40936  12.857   9.044   2.062 -0.0595  0.0145  0.2443
24463W        W40937   4.686   4.118  14.932  0.1816  0.1440  0.0325
24464W        W40938  11.327   3.638   4.398 -0.0227  0.0541 -0.2900
24465W        W40939   6.566  16.957   1.179  0.1235 -0.1959  0.0076
24466W        W40940   4.747  15.782  13.578  0.0321  0.1486 -0.1905
24467W        W40941  14.122   0.308   1.451 -0.2298 -0.3386 -0.2294
24468W        W40942  17.878   0.998   3.708  0.2497 -0.1404 -0.1941
24469W        W40943  10.980   3.179   1.020  0.2276  0.1196 -0.4088
24470W        W40944   1.754   2.357  15.032 -0.1187 -0.0206  0.0349
24471W        W40945   9.822  15.795   6.150  0.0918  0.3528  0.0414
24472W        W40946   9.971   1.317   1.667  0.2734 -0.0185 -0.1408
24473W        W40947  11.355   2.009   3.382  0.1969 -0.3207 -0.0019
24474W        W40948   4.445   2.863  14.974 -0.0746  0.2039  0.0416
24475W        W40949  10.479  16.959  13.764  0.0404  0.0056  0.3851
24476W        W40950  14.520   6.338   4.035 -0.2186  0.0758 -0.2575
24477W        W40951   0.775   2.112   3.652  0.0830  0.2582  0.1074
24478W        W40952   5.846   8.023   2.206  0.0429 -0.0053 -0.0684
24479W        W40953  15.989   3.766  16.246  0.0272 -0.2072 -0.2260
24480W        W40954   0.999   7.512   0.501 -0.1723 -0.2139  0.0494
24481W        W40955   7.895   8.375  11.595 -0.0939 -0.0224 -0.3401
24482W        W40956  10.750   2.679  11.517  0.0480  0.1621  0.3474
24483W        W40957  10.851   5.674   0.137 -0.2586  0.0695 -0.0108
24484W        W40958   5.932   9.852   3.603  0.1281 -0.1852  0.1601
24485W        W40959   9.612   7.997   1.762 -0.0859  0.2719  0.0874
24486W        W40960   5.736  18.128  15.061 -0.0203 -0.0975 -0.2223
24487W        W40961   9.015  12.779   1.255  0.1383 -0.0659  0.1225
24488W        W40962   9.502   2.800  11.307 -0.2446  0.1500 -0.3128
24489W        W40963  13.983   3.710  11.117  0.0365 -0.1836 -0.0760
24490W        W40964  10.005  11.490  11.571  0.2625 -0.2981 -0.3315
24491W        W40965  14.760  12.153   5.292  0.0849 -0.0522  0.0132
24492W        W40966  15.326   7.283   1.256 -0.0456 -0.1013  0.0930
24493W        W40967  16.086  14.681   0.981  0.3457 -0.2685  0.0777
24494W        W40968   8.887   7.362   0.813 -0.0774 -0.0780 -0.0427
24495W        W40969   5.665  15.569   6.331  0.0792  0.1634  0.0635
24496W        W40970   0.114  12.520  15.743 -0.1101 -0.0117  0.0795
24497W        W40971  11.116  10.037   5.513  0.1656  0.0746 -0.0509
24498W        W40972   7.292  17.740   4.612  0.1342 -0.2646  0.2660
24499W        W40973   8.708   2.077   0.242 -0.0035 -0.1619  0.1001
24500W        W40974   5.218   2.859   0.046  0.1107 -0.3386  0.0886
24501W        W40975  17.353   2.548  16.065  0.1710  0.0905  0.0170
24502W        W40976  15.408   1.436   1.274 -0.0383  0.2201 -0.1628
24503W        W40977  12.843  16.945   4.904  0.3829  0.0706  0.0663
24504W        W40978  16.966  17.869  14.880 -0.3426  0.2130  0.1554
24505W        W40979   9.126   1.117  14.363 -0.0371 -0.2229  0.2959
24506W        W40980  18.378  10.508   4.194  0.0071  0.0832 -0.3084
24507W        W40981   0.433   2.386  14.393 -0.1323  0.0388  0.0279
24508W        W40982  13.026   9.065   3.499 -0.1028 -0.2243  0.0100
24509W        W40983  17.191   8.100   3.999  0.0027  0.1725 -0.1128
24510W        W40984  17.766  17.992  12.506  0.0765  0.1826  0.1710
24511W        W40985  14.725   1.279  13.566 -0.0977 -0.0666  0.1243
24512W        W40986   8.016   9.949   0.006  0.0323 -0.0292  0.1314
24513W        W40987  10.870  13.358   6.159 -0.1482 -0.1930  0.1725
24514W        W40988   2.059   0.654   3.527  0.0494  0.0659  0.0941
24515W        W40989   2.880  10.087  15.242 -0.1594 -0.0651  0.1393
24516W        W40990  17.711   0.597   2.842  0.2568  0.3034 -0.3150
24517W        W40991   5.839  16.272   4.126  0.0970 -0.0052 -0.1466
24518W        W40992   4.901   1.940   3.796  0.0146  0.1885 -0.1754
24519W        W40993  15.212   4.672   3.723 -0.0507 -0.1776  0.0358
24520W        W40994  10.719   7.421   3.445 -0.0707  0.1631  0.0866
24521W        W40995   3.674   2.977  13.816  0.2022  0.3985 -0.2851
24522W        W40996  10.931   6.387   4.985  0.0740 -0.1562  0.1378
24523W        W40997   2.751   7.689  14.211 -0.1874  0.1989  0.2737
24524W        W40998   0.199   5.634   5.354  0.4405  0.0742 -0.0722
24525W        W40999   9.072   1.090   0.430  0.0900 -0.4066  0.0500
24526W        W41000  17.061  16.935  12.028  0.3684 -0.0226  0.1957
24527W        W41001  17.549  16.207   0.423 -0.1453  0.1939  0.0128
24528W        W41002  12.636   5.358   0.656  0.1673 -0.1851  0.2860
24529W        W41003   2.309   2.624   4.557  0.4108 -0.0262  0.0862
24530W        W41004   7.521  13.024   1.124  0.3059 -0.2994 -0.2188
24531W        W41005  17.328   9.273   3.354  0.0783  0.1406 -0.3122
24532W        W41006   9.917  14.377  12.486  0.1872 -0.3373  0.1467
24533W        W41007  15.101  12.740  11.684 -0.2148 -0.0503  0.0092
24534W        W41008   0.417  14.877   1.111  0.0218 -0.1856 -0.0319
24535W        W41009   9.777  12.157  14.655 -0.0824 -0.0026 -0.2701
24536W        W41010   2.263   3.567   4.549 -0.0649  0.0490  0.2113
24537W        W41011   0.019   0.396   2.088 -0.2139 -0.0482 -0.0143
24538W        W41012  10.502   1.432  16.037  0.1177 -0.2598 -0.0406
24539W        W41013   0.188  12.006   1.163 -0.0109 -0.0051 -0.0954
24540W        W41014   8.286   5.071   3.856 -0.1601  0.0308  0.2178
24541W        W41015   9.313  18.378  13.124 -0.2049  0.0009  0.0257
24542W        W41016   3.548   8.482  11.436 -0.1739  0.0569 -0.2784
24543W        W41017   9.774   5.897   4.101  0.1640  0.0715 -0.2968
24544W        W41018  17.154  17.842   5.764  0.2694  0.2627 -0.2578
24545W        W41019   0.303  17.540  12.672 -0.0064 -0.0316 -0.0520
24546W        W41020   1.460  10.789   2.713  0.3609 -0.2044 -0.0647
24547W        W41021   1.806   4.246  15.742  0.0354  0.2373  0.0229
24548W        W41022  15.183   2.153  12.169  0.0566  0.1985 -0.1216
24549W        W41023   8.787   0.179   3.210  0.2025  0.0928  0.0643
24550W        W41024  15.800  17.060  14.195  0.0332 -0.1153 -0.1696
24551W        W41025   1.590   6.607   0.457 -0.0524 -0.1121  0.0521
24552W        W41026  17.999  12.993   2.934 -0.0995  0.3190  0.0892
24553W        W41027  10.811   9.230  14.346  0.0843 -0.0959 -0.0123
24554W        W41028   4.636   2.686  15.444 -0.0463 -0.1285  0.0276
24555W        W41029   5.844  15.424   1.863  0.2452 -0.1196 -0.0936
24556W        W41030   2.385   8.250   5.368 -0.1063 -0.1022 -0.0616
24557W        W41031  17.165   0.739  15.048 -0.2075  0.0142  0.3549
24558W        W41032   2.660  12.757   2.948 -0.0981 -0.0991  0.1351
24559W        W41033   6.887   7.887  12.937 -0.1394  0.0583 -0.3244
24560W        W41034   3.528   1.904  16.102  0.1690  0.0187  0.1824
24561W        W41035  13.328   2.994   5.276 -0.0089 -0.1566  0.1910
24562W        W41036   9.611   0.305  12.825 -0.0859  0.1328  0.2334
24563W        W41037   0.446  15.237  16.169 -0.0364 -0.4130 -0.0736
24564W        W41038   2.200   0.961   1.059 -0.1740  0.1352 -0.1428
24565W        W41039   1.727  15.324  12.420  0.4071 -0.1260 -0.2252
24566W        W41040  17.249   5.344  15.082 -0.1138 -0.1055 -0.2143
24567W        W41041   4.312   1.403   1.544 -0.0132 -0.0337  0.0396
24568W        W41042   1.496   8.998  14.365  0.2710 -0.0582 -0.0266
24569W        W41043  16.749   9.628  14.134  0.1803 -0.1240 -0.0797
24570W        W41044   5.264   7.108   4.568  0.1681  0.0952  0.0868
24571W        W41045   3.066  14.640  15.371  0.0635  0.0137 -0.6385
24572W        W41046   8.164  16.064   3.908 -0.0356  0.1044 -0.1516
24573W        W41047  11.531  15.890   5.426  0.1868  0.2092  0.3646
24574W        W41048   8.569  10.457  13.277  0.0639  0.1366 -0.0652
24575W        W41049   1.913  18.060   1.886 -0.0211 -0.0415  0.5014
24576W        W41050   2.464  13.495  11.690 -0.6303 -0.1149  0.0395
24577W        W41051   8.778   3.119  14.608 -0.0551 -0.1200 -0.0987
24578W        W41052   3.757  14.293   2.112  0.0297  0.1412  0.1078
24579W        W41053  10.556  10.369   3.593  0.0446 -0.1925  0.4645
24580W        W41054   5.612   7.573  13.482  0.0514  0.0679 -0.0966
24581W        W41055   1.793   2.605  11.843  0.1258  0.2464 -0.3134
24582W        W41056   2.600   0.858   1.487  0.1486  0.2206  0.3532
24583W        W41057   9.502   3.602  14.579  0.1374 -0.0496  0.1124
24584W        W41058   8.786   5.733  11.405  0.4389 -0.1447 -0.4495
24585W        W41059   6.313   8.681  12.661 -0.0351  0.1783  0.1074
24586W        W41060  11.299   0.157   3.533 -0.0410 -0.0019 -0.1753
24587W        W41061  17.560   7.480   1.798 -0.1595 -0.0029 -0.0221
24588W        W41062  11.271   6.654  10.824  0.2036 -0.0386 -0.3338
24589W        W41063   2.183  12.246  16.200 -0.1254 -0.0673 -0.2819
24590W        W41064   6.006  15.587   0.981 -0.0645 -0.0655 -0.0805
24591W        W41065   1.166   8.425   4.382  0.1362 -0.1848  0.1923
24592W        W41066   5.121  15.457   2.375 -0.2410 -0.5206  0.1770
24593W        W41067   0.562   7.402   1.230 -0.1000 -0.0905 -0.1134
24594W        W41068  10.729   2.525   2.174  0.5888  0.3343 -0.0460
24595W        W41069   4.479  15.780  12.310 -0.0697 -0.4938  0.2211
24596W        W41070  14.624  10.630  14.555 -0.1157  0.0382  0.0803
24597W        W41071   6.925   4.883  12.748  0.3065  0.0084  0.2105
24598W        W41072  14.620   7.226  11.532  0.0951 -0.1518  0.0875
24599W        W41073   6.070   1.222  14.893  0.1928  0.0556 -0.0477
24600W        W41074  17.155   8.559  12.711  0.0476  0.4134  0.0881
24601W        W41075  13.053  11.382  12.948  0.4647 -0.1300 -0.1369
24602W        W41076   0.831  15.791   4.671 -0.0314 -0.1429  0.0036
24603W        W41077  15.003   1.438   4.891 -0.1035  0.0730  0.0111
24604W        W41078  14.971   2.140   0.468 -0.0222  0.2196  0.0048
24605W        W41079  11.381   0.651  12.576 -0.2537  0.0115  0.1547
24606W        W41080   1.565   1.067  16.226 -0.1074  0.1503  0.2949
24607W        W41081   8.986   2.532   4.822  0.0967 -0.5099 -0.0029
24608W        W41082   7.788  15.944   2.743  0.0203  0.0346 -0.0273
24609W        W41083  12.403  12.079  12.104 -0.0840 -0.4895  0.1693
24610W        W41084   3.953   6.760  15.337 -0.1626 -0.0169 -0.2455
24611W        W41085  17.764   8.834   4.734 -0.1160  0.1680  0.0155
24612W        W41086   4.226   5.646  14.670 -0.1937 -0.2049  0.3305
24613W        W41087   3.617  18.258  14.949  0.1180 -0.2229 -0.3500
24614W        W41088  15.391  12.051  12.329 -0.2993  0.3630 -0.1258
24615W        W41089   5.848   8.475   4.701  0.1407  0.0890 -0.4462
24616W        W41090   3.487   8.483   4.085  0.1116 -0.2476  0.2790
24617W        W41091   2.829   8.069  15.738 -0.0872  0.0745  0.1599
24618W        W41092  15.078  15.128   0.953  0.1371 -0.1042  0.2913
24619W        W41093   6.668  14.785   4.291 -0.1745 -0.0571  0.0791
24620W        W41094   8.052   4.367   1.258 -0.0872  0.2331  0.1742
24621W        W41095  16.979   6.529  14.969  0.2940 -0.3211 -0.0602
24622W        W41096  10.492  18.351   5.644  0.0014  0.1788  0.3052
24623W        W41097  14.396   1.648   3.272  0.3471 -0.0979  0.2799
24624W        W41098  12.267  14.313  12.463 -0.1817  0.0700  0.0546
24625W        W41099   3.663  14.156  15.002  0.1680  0.0985 -0.4998
24626W        W41100   1.815  11.419   4.605  0.0177 -0.2322  0.0644
24627W        W41101   0.020   3.304   4.637  0.1646 -0.1375  0.1749
24628W        W41102  13.041   9.325   1.581 -0.0810 -0.0745 -0.1103
24629W        W41103   5.877  12.519  11.903  0.3463  0.1224 -0.1274
24630W        W41104   7.001   6.341   3.281  0.1721  0.1963 -0.2248
24631W        W41105   4.743  14.538  13.065  0.0577 -0.3460  0.0731
24632W        W41106   9.300  16.430   0.314  0.2821 -0.1644 -0.1717
24633W        W41107  17.806   3.181   3.015 -0.0639 -0.0828  0.1072
24634W        W41108  12.197  17.354   2.996  0.0435 -0.0154 -0.0391
24635W        W41109   6.402  13.651  12.506 -0.0081 -0.2196  0.0218
24636W        W41110  12.891   5.908  15.698  0.0515 -0.0885  0.1251
24637W        W41111  12.007   2.955   0.089  0.2076  0.2107  0.2870
24638W        W41112   0.639  18.152   2.330 -0.2121 -0.5644  0.0552
24639W        W41113  12.417  16.448  15.314 -0.0268  0.0496  0.0035
24640W        W41114   4.437  10.084  13.847 -0.1687 -0.1240  0.0585
24641W        W41115   0.358  14.966  13.164  0.2281  0.0167  0.1455
24642W        W41116   3.751  18.327  15.918 -0.0899 -0.4324  0.0467
24643W        W41117   3.931  13.142  11.975  0.0361 -0.0367 -0.0060
24644W        W41118   5.820  14.556   6.471 -0.0413  0.2061 -0.0234
24645W        W41119   0.810  16.193  12.918  0.0448  0.4076 -0.0220
24646W        W41120  16.004   0.279  13.830 -0.0235 -0.3058  0.2027
24647W        W41121   2.690  15.750   3.824  0.2763  0.3136  0.2590
24648W        W41122  12.887  10.590   1.508 -0.0453  0.3964  0.0263
24649W        W41123  12.357   4.214   4.853 -0.0649 -0.0445 -0.0070
24650W        W41124   8.852   8.335  16.011 -0.2215  0.0411  0.0706
24651W        W41125  17.073  14.931   1.179 -0.2524  0.2867  0.1038
24652W        W41126   5.043   9.001   0.697  0.0548 -0.0602  0.2208
24653W        W41127  16.224  13.772   1.718 -0.2701 -0.1895  0.1463
24654W        W41128   4.600  14.858   5.246  0.0183  0.1488 -0.0580
24655W        W41129  13.050   1.119  14.956 -0.0099  0.6220  0.0209
24656W        W41130   4.921   3.842   4.848  0.2785 -0.4735 -0.3905
24657W        W41131  15.401  12.160  16.217  0.0305  0.2266 -0.1053
24658W        W41132   4.939  15.123  13.693  0.0850  0.0230 -0.1062
24659W        W41133   1.917   4.647   0.466  0.1484  0.0833  0.0581
24660W        W41134  14.668  14.544  15.789  0.0478  0.2263 -0.0879
24661W        W41135   0.856   3.539  12.120 -0.0436 -0.3179  0.1263
24662W        W41136   6.156  10.293   3.988  0.0736 -0.2492  0.2282
24663W        W41137   9.738   4.442   1.730  0.0607  0.2397 -0.1351
24664W        W41138  12.095   7.807   2.168  0.1909  0.1921  0.2541
24665W        W41139  10.589  16.027  10.443 -0.1451  0.3331  0.1173
24666W        W41140   3.827   4.753  15.982  0.3997  0.1194 -0.0060
24667W        W41141  14.788  10.699   3.592 -0.0819 -0.0473  0.0377
24668W        W41142   1.614   9.292  12.127 -0.0681  0.1654 -0.0381
24669W        W41143  14.621   1.314  16.194  0.1710  0.1440  0.0715
24670W        W41144  13.681   0.828   5.670 -0.0014  0.1761  0.3444
24671W        W41145   9.589   8.978  13.965  0.0722  0.3025  0.1669
24672W        W41146   9.992   8.889  15.284  0.3022 -0.3938  0.1073
24673W        W41147  13.299  13.476   1.278  0.0243 -0.0865  0.1188
24674W        W41148  16.385   8.547   4.921  0.2420  0.2617  0.3840
24675W        W41149  11.546   8.452  11.103 -0.0935 -0.3252  0.1874
24676W        W41150   6.806   4.791  14.727  0.3155 -0.1319  0.0077
24677W        W41151   6.336   2.767   0.924 -0.0336 -0.1834  0.0697
24678W        W41152  11.319   2.848  13.377 -0.3155  0.1305 -0.3931
24679W        W41153   7.980  11.629  15.138 -0.1800 -0.1433  0.2842
24680W        W41154   3.097  16.484   2.774 -0.0363  0.1355  0.2175
24681W        W41155   0.553   6.711   0.969 -0.1016  0.2515  0.1200
24682W        W41156   2.823  17.787  12.252 -0.2273 -0.0123  0.1317
24683W        W41157   6.986  10.323   2.357 -0.0895 -0.1963  0.0587
24684W        W41158   4.252  11.909   5.174  0.0706  0.1194  0.2405
24685W        W41159  15.838  15.006   2.208 -0.0452 -0.0338  0.0488
24686W        W41160  12.760   6.648   0.863 -0.1149 -0.0110  0.1195
24687W        W41161  11.497   2.433   2.571  0.0528 -0.0075  0.0547
24688W        W41162  12.628  12.887   3.379 -0.1467  0.1192  0.0433
24689W        W41163   0.655   8.487  15.417 -0.0044 -0.1524 -0.1061
24690W        W41164   6.634   5.930   1.415  0.1242 -0.0618  0.0844
24691W        W41165   8.786   1.584  14.350 -0.4253 -0.1460 -0.0806
24692W        W41166   3.384  18.285   4.557  0.2370  0.1386 -0.1520
24693W        W41167   0.617   6.025  12.410 -0.1430  0.4027  0.0625
24694W        W41168   1.827   3.551   1.225  0.4406  0.2275  0.0619
24695W        W41169   2.889  15.854  11.556 -0.1233  0.1213  0.1650
24696W        W41170   2.102   1.062   3.794 -0.0792  0.0703  0.2334
24697W        W41171  17.827  13.470   5.321 -0.2352 -0.2846  0.2329
24698W        W41172   5.047   8.707   4.094 -0.1269 -0.0831 -0.1334
24699W        W41173   1.661  13.457   0.542  0.3034  0.1011  0.0393
24700W        W41174   5.704   2.211  13.263  0.0254  0.4123  0.0356
24701W        W41175  10.467   6.675   4.838 -0.1880 -0.0965 -0.0845
24702W        W41176  17.257  16.690   0.980 -0.1813  0.1079 -0.2688
24703W        W41177  18.085   1.331  15.345 -0.1080  0.0735  0.0911
24704W        W41178  12.517   8.014  12.239  0.0179  0.2918 -0.2890
24705W        W41179   6.452  15.662   1.199  0.1053 -0.3006  0.0019
24706W        W41180  15.547   1.035  14.210  0.3800 -0.1885  0.4328
24707W        W41181   2.580  14.418  12.961 -0.0069  0.0439  0.1310
24708W        W41182  12.464   5.142  13.563 -0.1025  0.0222  0.0961
24709W        W41183   2.546   0.483   4.574  0.0228 -0.0239 -0.1735
24710W        W41184  12.580   5.094   1.190  0.0735  0.2781 -0.1903
24711W        W41185  10.798   3.571   4.301 -0.1592  0.0420 -0.0720
24712W        W41186   3.224   9.275  15.137 -0.0896 -0.1553 -0.0947
24713W        W41187   9.581   0.321   5.116 -0.0903 -0.1643  0.0891
24714W        W41188  14.087  16.402  14.744 -0.1162  0.2301 -0.3142
24715W        W41189   5.386  14.789  16.292 -0.0597 -0.2118 -0.1018
24716W        W41190   8.098   1.113   2.383  0.0254  0.1920 -0.2885
24717W        W41191   8.752   2.947   3.650 -0.0232  0.0006 -0.3105
24718W        W41192   4.427  10.145  12.007 -0.1745 -0.2669  0.0847
24719W        W41193  18.289   2.942  14.808  0.0907 -0.2808  0.1620
24720W        W41194  18.281   8.015   4.284  0.1691  0.0095  0.0206
24721W        W41195  10.691   0.560   3.015 -0.0595 -0.0348  0.0565
24722W        W41196   8.352   9.778   3.219  0.1550 -0.2735  0.0314
24723W        W41197  16.592   2.087   0.707 -0.4043  0.2123 -0.2472
24724W        W41198   2.435  17.759   0.860 -0.1588  0.1463 -0.1734
24725W        W41199   8.276   2.472  14.138 -0.2120  0.0316  0.0648
24726W        W41200   2.169  15.318   5.878 -0.0921  0.2742 -0.1799
24727W        W41201  13.452   1.339  15.137 -0.0909  0.0230  0.0445
24728W        W41202   5.186   8.967   5.302 -0.0329  0.1501  0.1219
24729W        W41203   2.111   1.044   5.283  0.3474 -0.1648 -0.0197
24730W        W41204  15.341   1.144   1.808  0.1625  0.4102  0.2420
24731W        W41205   8.324   6.495   3.406 -0.0296 -0.0044 -0.1153
24732W        W41206  15.126   1.663  11.306 -0.0505  0.2394 -0.0202
24733W        W41207  12.769  13.059   4.302 -0.0655 -0.0576  0.3440
24734W        W41208   8.216   0.103  14.989 -0.0556  0.1695 -0.2142
24735W        W41209   4.381   4.032   3.579  0.2484 -0.0976  0.0484
24736W        W41210   8.457   1.682  16.328 -0.0748  0.1599  0.5732
24737W        W41211  18.020   5.030  14.152 -0.0100 -0.0291  0.1055
24738W        W41212  13.003   8.931  12.053 -0.0007  0.1274  0.1131
24739W        W41213   5.171   4.080  12.510 -0.0900 -0.0515  0.0705
24740W        W41214   8.801  15.611  15.030 -0.0304 -0.1260  0.2061
24741W        W41215  17.103   0.928   0.581 -0.0943  0.2854 -0.2275
24742W        W41216   8.481   3.574   0.993  0.1685 -0.1923  0.3487
24743W        W41217  17.615   9.986  11.116 -0.0666  0.2792  0.0107
24744W        W41218  12.634   6.102   1.521 -0.2298  0.3379  0.0127
24745W        W41219   3.658  16.883  16.164  0.1109  0.2497  0.5984
24746W        W41220   9.934  12.345  11.505  0.4079  0.0054  0.0238
24747W        W41221   1.287  10.648  11.945  0.2098  0.0371  0.1618
24748W        W41222   4.048  14.561   3.412 -0.1102  0.1642 -0.2841
24749W        W41223   7.655  14.911   2.433 -0.0184  0.0021  0.0562
24750W        W41224   3.015   3.149   2.645  0.0142  0.2837 -0.1231
24751W        W41225  13.782   2.465   4.225  0.0446 -0.2288  0.0987
24752W        W41226  11.491   1.936   2.511 -0.2435  0.1376  0.1994
24753W        W41227   0.283  10.076  12.980 -0.4362  0.0283  0.1483
24754W        W41228  17.295  11.629   1.570  0.0788 -0.2685  0.0542
24755W        W41229  12.357  13.263   6.256 -0.2179  0.1952  0.2615
24756W        W41230  13.739  10.430  16.028  0.2404 -0.1772  0.0249
24757W        W41231   6.202   5.632   1.385  0.3824  0.0649 -0.2418
24758W        W41232  16.869  17.091   1.045 -0.2910  0.1832 -0.0651
24759W        W41233   2.882  10.756   3.523 -0.0530  0.0482  0.2754
24760W        W41234   6.380  11.199  12.015  0.1093  0.0737  0.2996
24761W        W41235  10.939   8.378  13.125 -0.0454  0.1492  0.0620
24762W        W41236   2.595  14.043  15.312 -0.1890 -0.3946 -0.1938
24763W        W41237  16.104   8.359  12.499 -0.0954 -0.1799  0.0939
24764W        W41238   1.693  14.346   0.485 -0.0273  0.0885  0.1671
24765W        W41239   7.339  11.005  15.654  0.1350 -0.3006 -0.0207
24766W        W41240   4.971   0.264  14.483 -0.1642 -0.0787  0.0683
24767W        W41241  11.040   6.090  12.828 -0.0031 -0.2793  0.2415
24768W        W41242   1.484   7.454   1.511 -0.0543 -0.0151  0.1622
24769W        W41243  12.248  17.496   4.761  0.0850 -0.1144  0.1259
24770W        W41244  13.593  16.469   1.067  0.1009 -0.2961 -0.0288
24771W        W41245   5.630  15.876   1.721  0.2677 -0.1527 -0.0330
24772W        W41246   8.554   4.537   1.188  0.0490  0.0363 -0.2218
24773W        W41247  11.851   0.837   4.966  0.0829  0.2415  0.2331
24774W        W41248  14.120  18.023  14.451  0.0035  0.3484 -0.2675
24775W        W41249   4.376  14.437   2.127 -0.0806  0.0786  0.1739
24776W        W41250   8.102   4.464   3.193  0.2533 -0.1069  0.0200
24777W        W41251   2.167  13.495  12.261  0.0666  0.2640  0.1999
24778W        W41252  11.997   5.476  14.758 -0.0406 -0.1489 -0.2446
24779W        W41253  14.182  15.748   4.748  0.0985 -0.2585  0.2615
24780W        W41254  14.085  10.094  11.991 -0.0874  0.0569 -0.0035
24781W        W41255  14.630   3.038  12.871 -0.0016  0.1809  0.4257
24782W        W41256   1.121   5.799  13.488 -0.2639  0.1046  0.5313
24783W        W41257  16.766   5.680  14.529  0.2215 -0.1541  0.0913
24784W        W41258   3.993   8.153  12.764 -0.2206  0.0070 -0.0100
24785W        W41259   1.178  10.049   2.768 -0.2567 -0.1167 -0.1549
24786W        W41260  16.764  12.907   1.287  0.2317 -0.1516  0.2009
24787W        W41261  15.655   7.468  14.744 -0.4460 -0.1472  0.1576
24788W        W41262   1.304  17.558   1.407  0.2750 -0.0166  0.1409
24789W        W41263   5.002   0.628  13.596 -0.1101 -0.0784 -0.1046
24790W        W41264  14.850   2.134  13.723  0.1566 -0.0229 -0.0421
24791W        W41265  10.438  10.917  14.465 -0.1225 -0.0590 -0.3969
24792W        W41266   1.127   7.943  12.048  0.0619 -0.2050  0.0524
24793W        W41267   7.054  17.586   4.165 -0.1034 -0.0570  0.0298
24794W        W41268   6.183   7.027   3.842  0.0499 -0.1031  0.2153
24795W        W41269  14.697  13.365   5.169  0.0426  0.2953 -0.1014
24796W        W41270  17.140   7.488  16.061  0.0215  0.1647 -0.1626
24797W        W41271  14.800  12.813   2.258 -0.1448 -0.2496  0.0541
24798W        W41272   2.260  14.888   1.570 -0.0755  0.0234  0.0263
24799W        W41273  10.693  17.522   4.209  0.1738  0.0911 -0.0629
24800W        W41274   2.856  12.483   5.480  0.0638  0.0569 -0.0018
24801W        W41275  13.574  16.988   4.913 -0.2543 -0.3764 -0.2508
24802W        W41276   2.403   4.792   3.486  0.3048 -0.1738  0.1269
24803W        W41277   6.466  12.818   2.852 -0.2205  0.1103 -0.3430
24804W        W41278   1.396  18.353   1.492 -0.1337 -0.1014 -0.1136
24805W        W41279   6.436  10.298  13.358  0.0509 -0.0527  0.2642
24806W        W41280   5.325  11.165  13.125 -0.2276  0.0732  0.3589
24807W        W41281   4.951  17.678   0.415 -0.1370  0.1164 -0.0242
24808W        W41282   8.490   8.036   2.888 -0.2065 -0.1731 -0.2025
24809W        W41283   5.677   0.669   2.691  0.0363 -0.2934 -0.1322
24810W        W41284   7.323  16.164   4.733  0.2429  0.0065  0.0540
24811W        W41285   4.777  18.046  14.020  0.1594  0.0391 -0.1148
24812W        W41286   4.201   0.991  15.097 -0.1708  0.0075  0.1433
24813W        W41287  17.532   2.614  11.508 -0.0644  0.1556 -0.0318
24814W        W41288  17.596  18.158  12.971  0.2182 -0.2118  0.2283
24815W        W41289  13.345  16.853  14.449 -0.1215  0.1079  0.1329
24816W        W41290   4.860  13.478  11.456  0.0625  0.2689  0.0696
24817W        W41291  14.020  14.042  12.356  0.1913 -0.0918 -0.2323
24818W        W41292   7.353  16.128   2.622 -0.1058  0.2353 -0.0686
24819W        W41293  11.823   7.376  10.785 -0.2478 -0.1770  0.1078
24820W        W41294  15.600   9.825  15.580 -0.0422  0.0131  0.0346
24821W        W41295   1.896  10.023   0.327 -0.1334 -0.0895 -0.0386
24822W        W41296  17.442   8.635  15.631 -0.1028 -0.1402 -0.1355
24823W        W41297  16.468  12.237  15.957 -0.0830  0.1266 -0.0531
24824W        W41298   6.671   9.560   2.909  0.3162  0.0646  0.2059
24825W        W41299  12.715  13.002   3.817 -0.1470 -0.3075 -0.2435
24826W        W41300   3.703  12.892   1.532  0.1238 -0.2428  0.0530
24827W        W41301  16.865   2.978   4.544  0.2007 -0.1622 -0.2789
24828W        W41302   0.752  14.152   3.085  0.0820  0.3089  0.0147
24829W        W41303  10.651   6.436  14.254 -0.1888  0.2061  0.0716
24830W        W41304  10.645  16.482   0.502 -0.0249  0.1691 -0.0472
24831W        W41305  15.018   9.481  14.871  0.1053 -0.2168 -0.0240
24832W        W41306   7.255   8.910  14.535  0.2773  0.0335 -0.1287
24833W        W41307  14.782  17.511   6.741  0.1040  0.1348  0.2234
24834W        W41308  10.791   1.960   3.270 -0.4274  0.2187  0.0601
24835W        W41309   8.797   5.472  13.201  0.2057 -0.0952  0.0250
24836W        W41310   3.574  16.464   3.059 -0.2091  0.3449 -0.2025
24837W        W41311  11.597  10.454   1.655 -0.1297  0.0338  0.2629
24838W        W41312   3.265  16.690  15.817  0.0014  0.0879  0.0408
24839W        W41313  16.622   3.825   2.921 -0.1642  0.2057  0.0204
24840W        W41314   6.744   5.462   1.233 -0.0242 -0.1065 -0.1905
24841W        W41315  16.411  12.859   2.895 -0.0288  0.2225  0.2089
24842W        W41316  18.034  17.688   0.489 -0.2064  0.1062 -0.2574
24843W        W41317   4.648   9.527  14.667 -0.1465 -0.3436  0.1275
24844W        W41318  12.916  12.402   3.687 -0.2204 -0.0263  0.0624
24845W        W41319   1.800  15.928  14.186 -0.0593 -0.0582 -0.2367
24846W        W41320   3.487   5.748   1.247  0.3304  0.1222  0.0774
24847W        W41321   1.198   1.987  13.063  0.2035 -0.0495  0.1247
24848W        W41322   6.183   9.618  12.010  0.2508  0.2052  0.1480
24849W        W41323  14.646   9.851  11.136 -0.1089  0.0465  0.0490
24850W        W41324   5.815   9.525   1.738  0.3244  0.3323  0.2036
24851W        W41325   2.121  17.241   5.155 -0.0493  0.0160  0.2629
24852W        W41326   5.549  16.768  15.165  0.1915 -0.1849  0.2537
24853W        W41327  14.041  17.565   4.975  0.1213 -0.0678 -0.0868
24854W        W41328  12.405   9.945   4.873  0.0268  0.0591 -0.1376
24855W        W41329   7.372   4.494   2.648 -0.1102  0.1257 -0.3240
24856W        W41330   9.845  12.420   4.601  0.3502  0.3591  0.2860
24857W        W41331   1.299   9.521   6.284 -0.1001  0.1606 -0.3385
24858W        W41332   7.378   3.674  12.311  0.3114 -0.0963  0.0613
24859W        W41333  15.471  16.266  15.133 -0.3106  0.1432 -0.0260
24860W        W41334   3.194  14.801   0.664 -0.3266  0.5789  0.0946
24861W        W41335   7.686   4.917   0.671  0.0002 -0.1234 -0.0935
24862W        W41336   7.233  15.598  12.294  0.3149 -0.1710 -0.2560
24863W        W41337   3.465  18.226  15.467  0.0443 -0.3479 -0.0998
24864W        W41338  10.930  12.871   1.744 -0.1345  0.2050 -0.2428
24865W        W41339   8.920   1.880  15.579 -0.0644  0.0904 -0.1532
24866W        W41340   8.446  18.103   4.445 -0.1795 -0.1114  0.0731
24867W        W41341   4.256  11.859  13.494  0.0144 -0.2404  0.2356
24868W        W41342   7.286   1.691   5.593 -0.1250  0.3273  0.0366
24869W        W41343   6.879   8.594   4.361 -0.2681  0.1699  0.0635
24870W        W41344   3.855  11.785   0.352 -0.0084 -0.2211 -0.0405
24871W        W41345   1.906  10.616   4.566  0.1565  0.1523 -0.1859
24872W        W41346  17.872   7.646  16.291  0.1710  0.0102 -0.0980
24873W        W41347   9.263   8.796  10.991  0.1107  0.1972 -0.0605
24874W        W41348   9.251  12.800  14.656  0.4287 -0.0991  0.0506
24875W        W41349   3.729  12.934  15.784 -0.1078  0.0406 -0.1539
24876W        W41350   1.787  12.655  14.481  0.3844  0.1077  0.0641
24877W        W41351   2.455  16.844   1.183  0.1528 -0.1046  0.5221
24878W        W41352   6.832   2.926   1.604  0.2348 -0.0001  0.0455
24879W        W41353   3.252   8.176   0.746 -0.1885  0.0598 -0.0399
24880W        W41354  18.138   4.551  12.665  0.1520  0.2394  0.0868
24881W        W41355  12.276  14.838   5.435 -0.1174 -0.2113  0.2647
24882W        W41356   5.500   6.393   5.047 -0.1985 -0.0455  0.0908
24883W        W41357   7.758  14.966   3.381 -0.2594  0.1368 -0.1076
24884W        W41358   5.003  10.123   1.621 -0.1876 -0.0199  0.0151
24885W        W41359   6.036   5.387  14.335 -0.2077 -0.0217 -0.2848
24886W        W41360  12.011   8.107  11.736  0.1112  0.1569 -0.0838
24887W        W41361   2.979   8.405   2.184  0.0490 -0.0013 -0.3292
24888W        W41362   2.523   6.659   4.192  0.0022  0.0102  0.1906
24889W        W41363  12.773  17.376   5.191 -0.1646  0.3100  0.2609
24890W        W41364  16.164  11.054   4.648  0.1087  0.1477  0.0783
24891W        W41365  10.546   2.431  13.613 -0.3278 -0.0460 -0.0182
24892W        W41366   1.979   5.023   1.638 -0.1029  0.2015  0.1455
24893W        W41367  11.414  10.279  15.257  0.0582 -0.1621 -0.2956
24894W        W41368   3.957  10.362  15.798 -0.0979 -0.0760 -0.0226
24895W        W41369  13.533   8.451  15.287 -0.0520 -0.1217  0.2360
24896W        W41370  16.314  11.907  11.470  0.1686  0.1728 -0.2393
24897W        W41371  12.317  13.683   1.254  0.0029  0.0285 -0.4108
24898W        W41372   1.080   4.825   5.062  0.0253  0.0164  0.1461
24899W        W41373   0.453   6.883  13.092 -0.1069 -0.0660 -0.0383
24900W        W41374   2.990  14.093   3.169  0.1454 -0.0374 -0.4223
24901W        W41375   9.596  14.758  13.758  0.0443 -0.1347  0.0831
24902W        W41376  18.064  11.012  12.698  0.0055  0.1638  0.0818
24903W        W41377   7.740   7.253   1.963 -0.0178  0.3333 -0.1992
24904W        W41378   0.037  12.857  13.950 -0.2119  0.1669  0.0849
24905W        W41379   2.215  12.026   1.034  0.1894 -0.0508 -0.1736
24906W        W41380   7.588  14.063   3.680  0.4057 -0.0903 -0.0528
24907W        W41381  17.312   3.820   6.027 -0.0929  0.0111  0.0002
24908W        W41382   8.256  13.553  12.577 -0.0094  0.4303  0.0293
24909W        W41383  10.840  14.744  11.630  0.1305  0.2017 -0.0736
24910W        W41384   3.936  12.796  13.051 -0.3583  0.0868  0.2247
24911W        W41385   0.446   6.664  14.157 -0.2747  0.2524 -0.0683
24912W        W41386  15.638   7.582  13.056 -0.3480 -0.1504  0.0276
24913W        W41387   0.724   7.880  15.837 -0.1215 -0.1093 -0.0124
24914W        W41388   8.439  17.525   0.423  0.1404 -0.2700 -0.3515
24915W        W41389   1.648   0.005  12.380  0.1322 -0.0421  0.1048
24916W        W41390   5.683  17.209  14.905  0.1555 -0.2025 -0.1653
24917W        W41391  14.573  16.289   4.014  0.1563 -0.1473 -0.1989
24918W        W41392  15.320   6.281   2.224 -0.1932  0.1346 -0.2946
24919W        W41393  14.052  12.408  15.694  0.0079 -0.3143 -0.3263
24920W        W41394  11.611  16.376  13.277 -0.2072  0.4074  0.1459
24921W        W41395  14.296   1.622   3.774  0.1349  0.1973  0.1977
24922W        W41396  11.172  13.893   3.272  0.0636  0.2189  0.0139
24923W        W41397   9.241  15.939   1.599 -0.2993  0.1238  0.1722
24924W        W41398   6.692   0.469  13.105 -0.2715 -0.0317  0.3287
24925W        W41399   9.211  13.805  15.546  0.0047 -0.0076  0.2797
24926W        W41400   9.113   3.001   1.707  0.0770 -0.0333  0.4175
24927W        W41401  11.846  15.751   1.801  0.3285  0.0049 -0.0164
24928W        W41402  11.892  12.616  15.294 -0.0180 -0.3258 -0.1191
24929W        W41403   3.010   0.072  13.973  0.0420 -0.4469 -0.0941
24930W        W41404   3.557  11.400  13.032 -0.1098  0.2291 -0.2813
24931W        W41405   6.616   5.435  12.180  0.2761  0.0641  0.0778
24932W        W41406   0.546  14.510  14.346 -0.1188  0.3827  0.3733
24933W        W41407  14.954  16.171   2.381  0.1218 -0.0444  0.1204
24934W        W41408   6.003   0.115   2.439 -0.0301  0.2521  0.3868
24935W        W41409   9.135   1.143  11.400  0.0634 -0.0245 -0.2215
24936W        W41410   5.454  11.662   5.231  0.1316  0.4085  0.2259
24937W        W41411   9.244   0.330   1.926 -0.2445 -0.3571 -0.2469
24938W        W41412  16.988  17.416   3.519  0.2529 -0.1277 -0.0717
24939W        W41413   9.371   4.507  15.064  0.2075 -0.1780  0.4761
24940W        W41414  14.697  16.280   5.809 -0.1931 -0.2313  0.1662
24941W        W41415   0.306   4.749  12.012  0.0927  0.1769  0.3817
24942W        W41416   1.803  16.049   3.515  0.3938 -0.0921  0.1303
24943W        W41417   6.580  16.733   2.286 -0.4474 -0.2803  0.0358
24944W        W41418   3.766  10.010  13.228  0.2719 -0.0268 -0.2022
24945W        W41419   9.071  16.966  12.199 -0.2177 -0.2319  0.1002
24946W        W41420   1.820   2.380  15.974  0.0575  0.0029  0.1807
24947W        W41421   5.405  16.331   3.802 -0.1146 -0.0776  0.1155
24948W        W41422   7.204   9.902   4.635 -0.0362  0.0063 -0.2673
24949W        W41423   3.672  12.491  14.036  0.0669  0.1657  0.1550
24950W        W41424  16.067   2.599   1.006  0.2221 -0.1049 -0.0130
24951W        W41425   8.643   6.876   3.003  0.0782  0.0491 -0.2876
24952W        W41426   0.948   5.523   1.299 -0.1782 -0.1332  0.0229
24953W        W41427   7.350   8.481   3.247 -0.0327  0.1371  0.0035
24954W        W41428  13.215  14.440  16.210 -0.3185 -0.0099  0.3677
24955W        W41429  14.396  14.177  13.656 -0.2772  0.1238 -0.0270
24956W        W41430   2.882   5.514   2.960 -0.0544  0.0794 -0.0360
24957W        W41431   2.159   4.011  14.922 -0.0360 -0.0004  0.0921
24958W        W41432  14.629  17.210   5.873 -0.0707 -0.0521 -0.2289
24959W        W41433   6.989  17.671   1.737 -0.3330  0.2025 -0.3006
24960W        W41434   9.252   5.185   2.813  0.1300  0.1314 -0.0088
24961W        W41435   6.215   6.692  15.924 -0.0150  0.1881 -0.2062
24962W        W41436   5.017  18.306   2.857 -0.1176 -0.3360 -0.0532
24963W        W41437   6.669  17.738  14.152  0.2255  0.1494  0.2287
24964W        W41438  13.015   2.049   2.364  0.1318  0.0365 -0.1959
24965W        W41439  14.214   1.325  14.507 -0.0700  0.1926  0.0568
24966W        W41440   7.715  12.831  12.895 -0.0739 -0.0384 -0.1743
24967W        W41441  17.585  11.056  14.156 -0.2453 -0.3659 -0.1686
24968W        W41442  11.795   9.684  11.913  0.0287  0.0765  0.2861
24969W        W41443   5.676  13.731   4.129 -0.2193  0.0460 -0.1403
24970W        W41444   3.474   3.225  15.590 -0.1571  0.0504  0.1774
24971W        W41445   3.128   6.793  14.016  0.3514  0.2460  0.1694
24972W        W41446   2.130  12.740   2.167 -0.2802 -0.1778 -0.2791
24973W        W41447  12.887   2.285   0.670  0.1217 -0.1365  0.1398
24974W        W41448   3.120   5.528  15.487 -0.3162 -0.6125 -0.0474
24975W        W41449   2.561   0.278   2.094 -0.0916  0.2759 -0.6704
24976W        W41450  11.148  17.430  12.360 -0.1869  0.0183 -0.1061
24977W        W41451  15.307  17.509  12.531  0.0036 -0.3231  0.1292
24978W        W41452   5.607  18.004   0.759 -0.0599 -0.0842 -0.1253
24979W        W41453  15.684   4.173  16.195 -0.0346 -0.0936  0.2483
24980W        W41454  12.902   9.381   0.588  0.0764 -0.0145  0.2091
24981W        W41455  13.242   0.504  15.611  0.1204  0.0997  0.0299
24982W        W41456   4.410   1.396   5.483 -0.1779 -0.0617  0.1462
24983W        W41457  13.479   6.399   3.894  0.0276 -0.2705  0.0799
24984W        W41458   6.457  11.785   4.325 -0.0404  0.0286 -0.0880
24985W        W41459   3.146  13.548  14.844  0.2244 -0.0355  0.1656
24986W        W41460   1.539  15.155  13.660 -0.1306  0.1692  0.0520
24987W        W41461   9.739   7.909   0.440 -0.0322  0.1432 -0.0854
24988W        W41462   2.313   6.576  11.890  0.2729 -0.1228  0.0967
24989W        W41463   1.485  13.440   0.057  0.1720  0.1164  0.2211
24990W        W41464   9.181  10.650   3.205  0.2819  0.0547 -0.1564
24991W        W41465   9.559  13.974  15.812 -0.2905 -0.1080  0.1201
24992W        W41466  17.648  11.311  14.542  0.0485 -0.0410 -0.0448
24993W        W41467  15.031  17.393  15.596  0.0062  0.2136 -0.0809
24994W        W41468   3.597   0.155  11.497  0.0776 -0.0299  0.1047
24995W        W41469  17.807  12.914  12.504 -0.2118 -0.4267 -0.0991
24996W        W41470  12.616   3.964   3.635  0.2758  0.1669  0.1774
24997W        W41471  15.003   0.665  11.431  0.0739 -0.0294 -0.2102
24998W        W41472  16.765  15.003   2.079 -0.0155 -0.1901 -0.1722
24999W        W41473  18.150  17.059   2.313 -0.2271 -0.2449  0.2666
25000W        W41474  12.984  17.908  14.475  0.2679  0.1796 -0.1400
25001W        W41475   8.071  13.447   6.512  0.3087  0.1738  0.2152
25002W        W41476  12.936   5.426   4.459  0.0296  0.0369  0.0643
25003W        W41477  15.396   5.962  10.200  0.2876  0.3228  0.3134
25004W        W41478  11.363   6.597  16.269 -0.1610  0.0196 -0.1582
25005W        W41479   7.259   9.890  15.320 -0.3022 -0.0888 -0.1296
25006W        W41480  13.734  16.000   1.992 -0.1483  0.0277 -0.1101
25007W        W41481  13.841   5.582  13.212 -0.5218 -0.1209 -0.0668
25008W        W41482   3.654  17.352  15.883  0.0704 -0.6502  0.0768
25009W        W41483  15.227   1.888   4.949  0.1311  0.2015  0.0526
25010W        W41484  10.541   8.073  13.952 -0.0590  0.1314 -0.0889
25011W        W41485  10.269  15.084   1.220 -0.1993 -0.0958 -0.0939
25012W        W41486  16.333  11.557   4.879 -0.2076  0.0707  0.1396
25013W        W41487   7.335   9.029  12.865  0.2145 -0.2003  0.3582
25014W        W41488  16.496   4.536  14.852 -0.2681 -0.0818 -0.2783
25015W        W41489  13.160  17.930  15.187  0.0642  0.0396 -0.1569
25016W        W41490   0.757  16.204   4.219  0.0023 -0.0156  0.0109
25017W        W41491   7.881   1.516   6.370  0.1462 -0.1014  0.3124
25018W        W41492  18.099  17.001  14.705 -0.1743 -0.0307 -0.1595
25019W        W41493   5.707  15.143   0.999  0.1857  0.2761  0.2445
25020W        W41494   3.458   4.491  13.454 -0.0794  0.0052  0.0641
25021W        W41495  11.314   8.428   9.516  0.0134 -0.1354  0.3263
25022W        W41496   5.611   3.254  12.018 -0.0481 -0.1912  0.0596
25023W        W41497   6.502  14.523  14.265  0.1128  0.0088 -0.0447
25024W        W41498  13.620   2.844  14.434 -0.1200  0.0076  0.0751
25025W        W41499   4.507   0.454   0.135  0.2802 -0.0585  0.0169
25026W        W41500   0.921   2.724  12.970 -0.0017 -0.2514  0.2070
25027W        W41501   1.395  17.905   2.868  0.0176 -0.0249  0.2274
25028W        W41502   5.684  13.274   1.302 -0.1361  0.0124  0.0956
25029W        W41503  13.627   8.716   5.804  0.2864 -0.0728  0.3213
25030W        W41504  14.765   3.207   4.724 -0.1434  0.0701 -0.1658
25031W        W41505   4.272  10.185   3.792 -0.1031  0.0615  0.0222
25032W        W41506   4.295   4.109  15.637  0.1068 -0.0394 -0.2251
25033W        W41507   6.621   4.063  11.925 -0.0718  0.2570  0.2210
25034W        W41508   4.424   9.651   3.224  0.0495  0.1880  0.1706
25035W        W41509   1.255  13.942   5.676  0.1519 -0.3040 -0.1171
25036W        W41510  11.637   7.266  14.500 -0.1305 -0.0517  0.1120
25037W        W41511   0.995   3.682   2.480  0.3606  0.0957 -0.2389
25038W        W41512  18.209   9.499  13.926 -0.0157 -0.1087 -0.2015
25039W        W41513  10.702  12.681  10.635 -0.1032  0.0465 -0.0093
25040W        W41514   4.934  17.236  14.415  0.0247 -0.1476  0.1234
25041W        W41515  10.560  10.558  14.068  0.1690  0.0349  0.3337
25042W        W41516  12.387   8.964  10.797  0.0811 -0.2063 -0.0097
25043W        W41517   1.909   4.660  13.123 -0.3180  0.0509 -0.1845
25044W        W41518  12.536   1.369   3.099  0.0935 -0.0526  0.3421
25045W        W41519  17.607  18.393   4.149  0.1253 -0.0539 -0.1603
25046W        W41520  13.633  10.088  11.049 -0.0792 -0.1316 -0.3371
25047W        W41521   6.852  17.078   4.663  0.1764  0.1076  0.1562
25048W        W41522  14.639   2.326  11.895  0.1784  0.0363 -0.0166
25049W        W41523  18.007  14.879  15.545  0.0833 -0.0547  0.0695
25050W        W41524   9.473  12.570  11.092  0.0092 -0.5038 -0.0300
25051W        W41525   2.104  16.811   1.527  0.2482 -0.2168 -0.0613
25052W        W41526   1.854   0.549   0.932  0.0348  0.2813 -0.1925
25053W        W41527   8.956   5.928   0.787 -0.1178 -0.0396 -0.0799
25054W        W41528  17.836  13.436  12.536  0.1176  0.0266  0.4200
25055W        W41529   3.830   4.967  15.548  0.3929  0.0038  0.1909
25056W        W41530  15.164  10.913  12.011 -0.0293 -0.0605  0.2046
25057W        W41531  16.389  15.828  14.317  0.0067 -0.1849 -0.3994
25058W        W41532  16.124   6.188  15.537 -0.0404 -0.3014  0.1750
25059W        W41533  10.972   4.041  15.265 -0.1671 -0.0501 -0.3525
25060W        W41534   7.078   7.825   3.701  0.0888  0.1849 -0.3426
25061W        W41535   3.322   8.102   1.252  0.0577 -0.1978  0.2128
25062W        W41536  16.648   9.461  13.509 -0.1770  0.1374 -0.0927
25063W        W41537   2.818   5.364   4.600 -0.1976 -0.2085  0.0820
25064W        W41538  12.407   3.260   4.406  0.2801  0.4501  0.0843
25065W        W41539   0.300  17.020   2.789  0.0742 -0.0798  0.1109
25066W        W41540   9.429  10.556   0.467 -0.0852 -0.2463 -0.1701
25067W        W41541   2.416  14.397   3.767  0.0894  0.0947 -0.1732
25068W        W41542   2.712  14.771  14.364  0.2589  0.4254  0.1491
25069W        W41543  11.045  10.222   0.678 -0.0030  0.0567  0.1468
25070W        W41544   0.477   8.411   0.395  0.1422  0.1168 -0.0143
25071W        W41545   5.022   2.798  12.357 -0.2051 -0.0825 -0.0619
25072W        W41546  10.497  11.511  14.229 -0.3604  0.0446  0.1408
25073W        W41547  16.058   9.281   1.861 -0.1744 -0.2536  0.0411
25074W        W41548   6.466   3.828  16.130  0.0710  0.4546  0.1714
25075W        W41549   2.320   1.009   0.367 -0.0191  0.1039  0.1317
25076W        W41550  17.211  15.466  13.298  0.3426 -0.0460  0.0316
25077W        W41551  17.013   0.759  15.687  0.0233 -0.2869 -0.2402
25078W        W41552  10.255  16.221   2.401 -0.0419 -0.3653  0.0643
25079W        W41553  16.712   2.784  11.070 -0.1567  0.0810  0.0106
25080W        W41554  15.372  17.026   4.844 -0.2757 -0.0001 -0.1955
25081W        W41555  11.356  15.974  15.088 -0.1874  0.1798  0.4306
25082W        W41556   3.339   0.003   4.006  0.0223  0.1361  0.0241
25083W        W41557   9.217   4.078  15.394  0.0548 -0.2107  0.1658
25084W        W41558  12.228   7.392  10.508  0.1312  0.0525  0.0740
25085W        W41559  17.297   9.035   4.909  0.1417 -0.2258  0.2110
25086W        W41560   4.380  17.937   1.040  0.0865  0.2504 -0.0310
25087W        W41561   0.923  13.326   2.454  0.0027 -0.0289  0.4380
25088W        W41562   8.897  10.189  15.830 -0.1171  0.3026 -0.0054
25089W        W41563  15.462  16.233  13.599 -0.0637  0.2343  0.0705
25090W        W41564   4.087   1.028   5.235 -0.0787 -0.2265 -0.0042
25091W        W41565   5.614  17.050  13.935 -0.0793 -0.0133 -0.1928
25092W        W41566   5.084   0.788   5.604  0.1365 -0.0807  0.1857
25093W        W41567  12.563  10.919   1.330  0.1595  0.0821  0.1128
25094W        W41568   1.912  18.342   3.484  0.0046  0.0509 -0.1609
25095W        W41569   1.409   8.924  15.786  0.0465  0.0476  0.0712
25096W        W41570  16.525   7.828   3.302  0.1036 -0.1647  0.3082
25097W        W41571  13.484  16.739  11.877  0.1878 -0.0058  0.3020
25098W        W41572  17.061   5.223   2.597  0.2352  0.3808 -0.2980
25099W        W41573   9.760   6.491   0.626 -0.0437 -0.1408  0.0712
25100W        W41574   6.304  11.617  16.201  0.1450  0.1387 -0.0076
25101W        W41575   6.558   5.960  15.634  0.3492 -0.0404 -0.2254
25102W        W41576   3.142  15.134  13.053  0.0353  0.1181 -0.1292
25103W        W41577  17.095   8.860  12.000 -0.3084  0.4697  0.2569
25104W        W41578  11.413  11.468  11.254  0.1796  0.0785  0.2353
25105W        W41579   7.968  14.124   1.691 -0.0268 -0.1692  0.1703
25106W        W41580   4.835  14.426   5.044 -0.0125 -0.0008  0.0498
25107W        W41581  14.542   9.340   2.075  0.0718  0.2121 -0.1226
25108W        W41582  17.348  13.692  12.413  0.0716  0.1300 -0.3225
25109W        W41583   3.624   3.072   5.150 -0.3029 -0.1919  0.1487
25110W        W41584   6.843  10.910   5.294 -0.2145 -0.0020 -0.0341
25111W        W41585   9.333  14.845   1.962  0.1725  0.3186 -0.1302
25112W        W41586  10.179   2.711  11.564  0.0258  0.1299 -0.1373
25113W        W41587   1.046   8.169   3.064 -0.0032  0.2705 -0.2627
25114W        W41588  12.813   7.292   5.647 -0.5163  0.1275  0.2398
25115W        W41589   0.722   2.091   2.550  0.0052 -0.1456  0.4326
25116W        W41590   0.907   6.684   3.094  0.2143  0.3077  0.0132
25117W        W41591   3.672   1.804   5.104 -0.1419 -0.0430  0.1192
25118W        W41592   3.220  11.050  14.679 -0.3232  0.0312  0.0189
25119W        W41593  10.850   4.286   0.254  0.0684  0.0139  0.0103
25120W        W41594  12.668   6.075  14.214  0.1786 -0.0678  0.1508
25121W        W41595   0.265   3.452  13.184  0.1989 -0.0597 -0.2313
25122W        W41596   1.152  13.175  14.125  0.2362  0.0284  0.1201
25123W        W41597   8.967  15.909  12.049  0.2302 -0.1737 -0.0165
25124W        W41598   7.118   6.142  11.761  0.1986 -0.1381 -0.1522
25125W        W41599  18.022   3.499   3.849 -0.0040 -0.0797  0.1228
25126W        W41600   3.714   8.329   3.361  0.1421  0.3759  0.4080
25127W        W41601   2.440  11.111   2.592  0.3091 -0.3785 -0.0677
25128W        W41602  17.651   3.385   1.753 -0.2664 -0.1461 -0.2413
25129W        W41603   9.903  12.197  12.227 -0.0368 -0.0765 -0.2143
25130W        W41604   4.002  14.982  14.577 -0.2034 -0.0370 -0.2856
25131W        W41605   2.601   6.805   2.848  0.1438  0.1406  0.3299
25132W        W41606   3.571  14.806   4.111 -0.1696 -0.2448  0.1005
25133W        W41607   3.137   9.203  12.281 -0.3071 -0.3257 -0.0055
25134W        W41608   6.399  16.613   2.737  0.0169 -0.0597 -0.0098
25135W        W41609  10.040  15.641  12.603  0.1778  0.2610  0.1003
25136W        W41610   1.614   9.695  10.044  0.3828 -0.1526 -0.2453
25137W        W41611  10.667  11.715   1.352  0.0877 -0.1128  0.2912
25138W        W41612   8.427   2.148   2.059  0.1642 -0.0193  0.0563
25139W        W41613  17.682   2.720  13.493 -0.0214 -0.1531 -0.0831
25140W        W41614  12.046  12.958   1.995 -0.1036  0.0908 -0.3433
25141W        W41615   5.257   0.083   3.590  0.0049  0.0561 -0.0811
25142W        W41616   7.500  15.232   4.429 -0.1345  0.1426 -0.0892
25143W        W41617  10.640  15.569  15.396  0.0624  0.0678  0.0442
25144W        W41618  14.696  15.732  14.997  0.0134  0.2028 -0.0696
25145W        W41619  14.045  14.389  13.355  0.0317  0.2807  0.1200
25146W        W41620  14.209   1.883   2.806  0.1616  0.3953  0.1081
25147W        W41621   5.926   7.127  14.264 -0.2946  0.1945  0.0904
25148W        W41622  10.238   3.843   3.032 -0.0996  0.1352  0.0860
25149W        W41623  12.554   1.535   1.208 -0.1367 -0.2273 -0.0259
25150W        W41624  13.578   1.418  12.924  0.3356  0.0275  0.0124
25151W        W41625  15.816   8.485  11.729  0.2108  0.0037 -0.1250
25152W        W41626  11.770   0.629  15.610 -0.0410 -0.4131 -0.0273
25153W        W41627   1.442   4.506   4.302  0.5829 -0.0723  0.3546
25154W        W41628  10.057   4.430   2.153 -0.1469 -0.5068  0.3274
25155W        W41629   9.635  14.840   4.654 -0.0116  0.1720  0.0144
25156W        W41630  10.022   2.538   5.419  0.1820 -0.1121  0.0082
25157W        W41631  16.438  12.224   4.432 -0.1440  0.1190 -0.1069
25158W        W41632   9.888   7.555   2.721  0.0088  0.0988 -0.1726
25159W        W41633  18.026   4.705   5.350 -0.1987 -0.0309 -0.1593
25160W        W41634   1.543   8.619  11.565 -0.1740 -0.2699  0.3203
25161W        W41635   1.245  16.934  14.030 -0.3414 -0.1805 -0.0353
25162W        W41636   2.969   9.943  11.903  0.4688 -0.0144 -0.2739
25163W        W41637  16.247  16.813   3.390 -0.1257  0.0276  0.4443
25164W        W41638  16.007  14.330   2.941 -0.0241 -0.1295  0.0993
25165W        W41639   7.202   9.145   3.704 -0.1121 -0.2518  0.2386
25166W        W41640   1.539   7.588  13.986 -0.1426 -0.3158  0.1650
25167W        W41641   2.439   4.806   2.404 -0.1288  0.1010 -0.3848
25168W        W41642   8.332   9.280  12.397 -0.0247  0.0669  0.0673
25169W        W41643  18.176  10.777  11.862 -0.0514 -0.2018  0.0485
25170W        W41644   8.089   5.993   2.634 -0.0829  0.0881 -0.0740
25171W        W41645  14.388  11.245   4.208 -0.0842  0.1069  0.0296
25172W        W41646  15.261  12.339  14.758 -0.0370 -0.1642 -0.0802
25173W        W41647  18.113  13.111   2.457 -0.1860 -0.0179 -0.1043
25174W        W41648   9.832   1.879   1.752  0.0922 -0.0299  0.0037
25175W        W41649  15.558  16.784   2.035 -0.2780  0.2354  0.2166
25176W        W41650   4.648  15.784   1.216 -0.1113  0.0383 -0.2115
25177W        W41651  13.246  17.042   2.542  0.1424  0.1452  0.0544
25178W        W41652   7.857  12.255  15.671  0.2511 -0.3204 -0.1389
25179W        W41653  11.947   2.164  12.994  0.1500  0.0779 -0.0854
25180W        W41654   4.985   3.477   5.211  0.2992 -0.3504 -0.0189
25181W        W41655   4.757   5.660   2.087  0.1645  0.0992 -0.1328
25182W        W41656   3.258  13.502  10.744 -0.0383 -0.0156  0.2448
25183W        W41657  12.635   2.337   4.521  0.0126 -0.0655  0.0752
25184W        W41658  18.109  15.394   5.420  0.2420  0.2100 -0.0893
25185W        W41659   8.920  12.175   1.157 -0.0013  0.1364  0.0642
25186W        W41660  14.613   0.248   4.849 -0.2119 -0.3552  0.0916
25187W        W41661  12.559  14.675   1.050 -0.1944  0.3330 -0.2026
25188W        W41662   5.104   7.653   0.993  0.0734 -0.0120  0.0553
25189W        W41663   9.046   9.441  15.114  0.0001 -0.0006  0.0200
25190W        W41664   0.353  16.885  14.448  0.2300  0.2376 -0.0362
25191W        W41665   6.421  10.843   2.808 -0.1310  0.4350 -0.1213
25192W        W41666   2.130   8.726  11.441  0.2557  0.0548 -0.0986
25193W        W41667   8.434  12.741   5.782 -0.2713 -0.3202  0.3645
25194W        W41668   7.488  10.010  15.790  0.0048  0.0632 -0.0238
25195W        W41669  14.170   2.826  12.858  0.3145 -0.1361  0.2111
25196W        W41670   9.072  17.851  12.836 -0.0470  0.1991  0.1999
25197W        W41671  16.784   4.281   5.945 -0.0883 -0.3315 -0.2667
25198W        W41672  14.818  15.630   0.958  0.2525 -0.1375  0.4984
25199W        W41673  17.102  16.214  14.499  0.1712  0.1441  0.1671
25200W        W41674  10.071   4.030   1.875  0.0932  0.1339 -0.1462
25201W        W41675  17.530  12.460   5.743  0.1308  0.0707 -0.2230
25202W        W41676   5.470   1.018  13.391  0.2822  0.0654 -0.2052
25203W        W41677   7.556  13.314   5.862 -0.1434  0.3098  0.0754
25204W        W41678  15.382   4.665   0.030 -0.0776 -0.0858  0.2271
25205W        W41679   8.623  17.194   1.285  0.1816 -0.0286 -0.1675
25206W        W41680   0.270   5.807  13.899 -0.2266  0.3441  0.0727
25207W        W41681  13.394   6.309   9.761 -0.2057 -0.1047 -0.0223
25208W        W41682  15.521  10.041  12.231  0.2100  0.2774 -0.0874
25209W        W41683   2.563   4.430  16.144  0.1611  0.0288 -0.0131
25210W        W41684   7.718  13.814   2.482  0.4155 -0.1238 -0.2426
25211W        W41685  17.010   5.595   2.891  0.1820  0.1578 -0.0335
25212W        W41686   0.299  14.439   3.507 -0.0931 -0.0728 -0.1158
25213W        W41687   1.984  13.788  13.088  0.1470  0.0897 -0.0949
25214W        W41688  13.557  16.003  12.812 -0.1666 -0.1013  0.0028
25215W        W41689   3.601  11.413   2.497 -0.0128 -0.0438 -0.2667
25216W        W41690   0.004   8.361  12.725  0.0788  0.2364 -0.0735
25217W        W41691  16.497  18.302  13.106  0.0651  0.1474  0.0263
25218W        W41692  12.562   3.217  15.101  0.3187  0.0579 -0.1271
25219W        W41693   8.341  11.899   2.125  0.2897  0.1499 -0.1393
25220W        W41694   8.689   5.303   0.857 -0.4254 -0.0843  0.2163
25221W        W41695   0.822   2.453   0.187 -0.1502  0.2541 -0.1838
25222W        W41696  13.059   9.370   1.081  0.0490  0.2357 -0.2700
25223W        W41697   2.988   7.792  15.358 -0.1931  0.0511 -0.2776
25224W        W41698   4.202   8.266   1.594 -0.5741  0.2645  0.1499
25225W        W41699   7.870   2.737   5.354 -0.0883 -0.1110 -0.0266
25226W        W41700   5.172   3.027   1.521  0.3668 -0.0977  0.1137
25227W        W41701  14.047   0.950  12.215 -0.2134 -0.2858 -0.1940
25228W        W41702   8.305  15.695   4.200  0.2839  0.0129  0.0096
25229W        W41703  13.321  10.488  10.256  0.0126 -0.1682 -0.0156
25230W        W41704  15.710   2.208   1.807  0.0149  0.0842 -0.0142
25231W        W41705   7.394  13.379   0.837  0.0640  0.0281 -0.1013
25232W        W41706   2.987   0.590   4.841  0.1564 -0.2268  0.0562
25233W        W41707  10.186   1.641   1.392 -0.3253  0.1343 -0.0467
25234W        W41708   9.813  11.508  12.782  0.0432 -0.1328 -0.4900
25235W        W41709   4.303  16.652   0.561 -0.1054  0.0521  0.0740
25236W        W41710   6.217  14.933  14.591  0.1394  0.1714 -0.0111
25237W        W41711  16.980   2.447  12.251 -0.1895 -0.0964  0.2829
25238W        W41712  15.861   8.662  12.759  0.1019  0.0898 -0.2894
25239W        W41713  18.337   9.890  13.420 -0.0828 -0.0672  0.0392
25240W        W41714   9.609  17.017   4.116 -0.0048  0.1389 -0.0388
25241W        W41715  16.345   5.388  15.300 -0.2614 -0.2300  0.3073
25242W        W41716  11.987   6.820  14.691  0.1096 -0.1857  0.0943
25243W        W41717   3.498  10.004  11.920 -0.0793 -0.1109  0.0172
25244W        W41718  11.479  10.295   1.010 -0.0339  0.0836 -0.1215
25245W        W41719  11.507   7.635  12.948 -0.0077  0.1004 -0.1110
25246W        W41720  17.464  12.384   4.802  0.4250 -0.1808  0.0380
25247W        W41721  16.305   8.638   3.088 -0.0917 -0.1139  0.2121
25248W        W41722   8.364  14.820  16.204 -0.0758 -0.4673 -0.1251
25249W        W41723  18.051   6.225   0.866 -0.2368  0.0675 -0.1693
25250W        W41724  10.789   9.216   5.380 -0.1115  0.3361  0.2286
25251W        W41725   2.004   3.851   4.230 -0.1356  0.1377 -0.3391
25252W        W41726   7.788   2.081  16.216 -0.1639  0.0431  0.1259
25253W        W41727  11.994  11.767   3.088 -0.1849  0.3162 -0.1705
25254W        W41728   8.111  11.617  11.191  0.3738  0.3498  0.0448
25255W        W41729   9.381  12.668  13.741  0.1276 -0.1070 -0.0326
25256W        W41730   3.228   2.475  13.131 -0.0830 -0.0234  0.1127
25257W        W41731  13.102  17.483  14.695  0.0643 -0.2131 -0.2719
25258W        W41732   6.533  11.702   0.568 -0.0668  0.0996 -0.0396
25259W        W41733   0.093  16.831   0.818 -0.3969 -0.2018 -0.0571
25260W        W41734  12.546  10.364   2.791  0.0061  0.1204 -0.0160
25261W        W41735  16.958  11.756   0.212 -0.0669 -0.2190  0.0341
25262W        W41736  14.649   4.082   4.412 -0.1459 -0.0872  0.0431
25263W        W41737   6.567   2.602  13.180 -0.1037  0.0438 -0.2297
25264W        W41738   0.706   3.881   4.176  0.1434  0.0615 -0.1095
25265W        W41739   9.843   7.857   1.294  0.0248 -0.1451 -0.3749
25266W        W41740   9.026  16.666  12.626 -0.2407 -0.1401  0.0400
25267W        W41741  17.652  14.921   3.204 -0.1963  0.1128 -0.0282
25268W        W41742   3.875   9.441  14.068 -0.5412  0.0000  0.0159
25269W        W41743   8.944   5.556   5.004 -0.1927 -0.0511 -0.0609
25270W        W41744   3.148  15.841   3.589 -0.0838 -0.0783  0.0920
25271W        W41745  11.884   6.939   1.652 -0.0764  0.0861 -0.0919
25272W        W41746   9.871  10.304  14.334  0.0414 -0.2273 -0.0050
25273W        W41747  16.316   8.115   1.531 -0.3465  0.3880 -0.0400
25274W        W41748   6.879  13.073   3.381  0.0066 -0.2818 -0.1379
25275W        W41749  13.651  13.022   5.526 -0.0309 -0.1743 -0.3374
25276W        W41750  17.149   0.390  11.842  0.0033  0.1007  0.1978
25277W        W41751   8.411  10.281  15.575  0.0844  0.0796  0.0721
25278W        W41752   5.935   1.630  11.804 -0.0594 -0.1738 -0.0579
25279W        W41753  13.676  10.248  14.064 -0.1074  0.1573 -0.1527
25280W        W41754   2.321   2.751   0.118  0.0035 -0.0211 -0.0692
25281W        W41755  10.399  13.424  11.592  0.0362  0.0773 -0.1219
25282W        W41756  16.332   5.587   3.502 -0.3319  0.1202 -0.0192
25283W        W41757   8.748  17.100  15.487 -0.1779  0.2440 -0.0622
25284W        W41758   8.082   2.031  12.283 -0.0065  0.0644 -0.1527
25285W        W41759  15.768  16.951   2.566 -0.3113  0.2790  0.3194
25286W        W41760  11.713  17.999   1.904 -0.0202  0.1285  0.3903
25287W        W41761   2.958   5.051  14.488  0.0077  0.0326  0.2142
25288W        W41762   4.071  11.406   2.260  0.0018 -0.1983  0.1835
25289W        W41763  17.339  17.902  13.540 -0.0250  0.5433 -0.1857
25290W        W41764  16.802   4.113  15.386 -0.3463 -0.2794  0.0523
25291W        W41765  10.801   5.170   0.282 -0.0161  0.0972 -0.1305
25292W        W41766  11.138   5.354   4.944 -0.3841 -0.1323  0.3179
25293W        W41767  17.642   7.077   1.487 -0.1128  0.0227 -0.0774
25294W        W41768   6.732  11.701   5.627 -0.3680 -0.0774  0.3181
25295W        W41769   3.442  16.705   0.739  0.1780  0.3247  0.0065
25296W        W41770   4.656  13.796   3.923  0.1380  0.3105  0.0082
25297W        W41771  15.622  16.393  12.642  0.2697  0.1687 -0.0934
25298W        W41772   9.880   4.780   1.324 -0.0147 -0.2250 -0.1440
25299W        W41773   7.534  10.308  14.495  0.1656 -0.0279 -0.1655
25300W        W41774  16.096  14.233  12.944  0.0892 -0.2117 -0.1904
25301W        W41775   2.901  14.121  13.413  0.0384  0.2794 -0.0744
25302W        W41776  13.595  18.343   0.540  0.0999  0.1481  0.0709
25303W        W41777   8.011  10.056  11.789 -0.1901 -0.0957  0.1218
25304W        W41778  15.737   9.938   2.284 -0.2409 -0.0544 -0.3637
25305W        W41779  11.159  15.552  16.168 -0.1792  0.1272 -0.0169
25306W        W41780  10.562   5.448  13.171 -0.0656  0.2046 -0.0231
25307W        W41781  11.579   5.231  14.542 -0.0267  0.1337 -0.1728
25308W        W41782   4.020   8.502   4.423 -0.1574 -0.1890  0.1029
25309W        W41783  16.794  10.300  10.781  0.6277 -0.2334 -0.2298
25310W        W41784   0.913   0.571   0.913 -0.3735 -0.1361 -0.1200
25311W        W41785   8.493  16.680  12.292  0.0045 -0.1209  0.2277
25312W        W41786   9.362  18.255  12.099 -0.0658 -0.1258  0.4504
25313W        W41787   4.101   0.722   3.757 -0.1811 -0.1361 -0.1697
25314W        W41788   5.496  17.899   1.274 -0.0243 -0.3465  0.1130
25315W        W41789  13.972  10.632  15.510  0.0752  0.4642 -0.1049
25316W        W41790   9.573   5.534  11.574  0.0373  0.3744  0.0008
25317W        W41791   5.606   2.186  14.844  0.0815 -0.3026  0.0305
25318W        W41792  12.434   6.512   5.011  0.0754 -0.1112 -0.3157
25319W        W41793  16.191   9.697  13.438  0.0215  0.1006 -0.0258
25320W        W41794   6.317  14.283  15.599 -0.1330 -0.1008 -0.3164
25321W        W41795   1.542  12.362   4.310 -0.0438  0.1024  0.0941
25322W        W41796   2.214  14.472   1.921 -0.1595 -0.3209  0.0367
25323W        W41797  11.078   5.655  13.206  0.1522  0.4273 -0.1822
25324W        W41798  13.460   5.885  11.889  0.0587 -0.1549  0.0192
25325W        W41799  10.666   3.039  16.059 -0.0588  0.1769 -0.1606
25326W        W41800   9.020  15.388   3.916 -0.1494 -0.0400  0.0326
25327W        W41801   6.210   9.982  15.443  0.0171  0.1500 -0.0273
25328W        W41802   5.940   2.790  11.895  0.0006 -0.1371 -0.1459
25329W        W41803   2.117  12.460  13.225 -0.2490 -0.2866  0.1959
25330W        W41804  15.088  11.214  13.946 -0.1186  0.0319 -0.0355
25331W        W41805   9.807   6.932  15.777 -0.0697  0.0039 -0.2155
25332W        W41806  12.616  17.515   1.563 -0.2256 -0.0493  0.2076
25333W        W41807   3.036   5.725   1.474 -0.1098  0.0173  0.0906
25334W        W41808   3.262   7.715  10.727  0.2413 -0.0340 -0.1663
25335W        W41809  16.621  16.569   4.900 -0.1401 -0.1690  0.1980
25336W        W41810   3.673   1.794   0.206 -0.0202 -0.1087  0.1404
25337W        W41811   4.510  17.559   2.514  0.1512 -0.0914 -0.3800
25338W        W41812  13.199   9.787  10.936 -0.0976  0.1278 -0.1982
25339W        W41813   3.487   0.713  12.290  0.3137 -0.0163  0.0523
25340W        W41814  12.963   3.971   3.248  0.1905  0.1777  0.0613
25341W        W41815  16.087   8.865  13.706  0.1588  0.1190 -0.1698
25342W        W41816   7.357  15.578   1.074 -0.1615  0.0470 -0.1507
25343W        W41817  14.767  14.109   0.417  0.0909 -0.1352  0.2985
25344W        W41818   5.897   2.165  14.332 -0.1569  0.1878  0.1774
25345W        W41819   8.943   5.389  12.188  0.0926  0.0213  0.0630
25346W        W41820  16.068  12.597   0.197 -0.0823 -0.1426  0.1164
25347W        W41821   4.554   6.905  13.712  0.2172  0.0140 -0.0838
25348W        W41822   1.567   7.326  15.493  0.0117 -0.3212 -0.0952
25349W        W41823   2.470   6.617  14.108  0.0172  0.0171 -0.1577
25350W        W41824   3.998  17.745  14.944  0.0814  0.0130  0.0957
25351W        W41825  14.324   4.353  12.994 -0.3023  0.0173  0.0736
25352W        W41826  15.525  14.116  14.142 -0.0012 -0.1245 -0.2795
25353W        W41827   6.611   8.645  15.922 -0.0984  0.1034  0.1114
25354W        W41828  11.551   4.691  14.617 -0.0948 -0.3454 -0.2397
25355W        W41829  17.287   9.669   1.552 -0.1010  0.2251 -0.3191
25356W        W41830   4.688   1.897   3.325  0.1478 -0.0762  0.1177
25357W        W41831  14.865  16.205   1.245  0.4322 -0.1321 -0.0662
25358W        W41832   4.949  14.968  12.054 -0.1382 -0.4809  0.1993
25359W        W41833   8.613   7.731   2.076 -0.0040 -0.1802  0.3275
25360W        W41834  16.348   0.228  16.159 -0.0552 -0.0359  0.1108
25361W        W41835   3.380  17.711  15.646  0.2446  0.2037 -0.0457
25362W        W41836  10.368   8.514  13.977 -0.0074  0.1545  0.1231
25363W        W41837   7.838   3.010  16.160 -0.3813  0.2008  0.0103
25364W        W41838  15.346   6.589  13.651 -0.1801  0.2778 -0.1832
25365W        W41839   1.634   4.568  14.770 -0.0229  0.0166  0.1484
25366W        W41840  12.932   1.269   1.418 -0.1657  0.2033 -0.1410
25367W        W41841  11.252   0.321  12.194  0.0230  0.0617  0.2531
25368W        W41842  17.166  14.339   1.140 -0.1532 -0.0957  0.1027
25369W        W41843  13.444   9.514   4.859 -0.5182 -0.0195  0.1445
25370W        W41844  12.109  10.906   2.049  0.3317  0.0551  0.1604
25371W        W41845  12.688   6.679   4.177  0.2205  0.1466 -0.2194
25372W        W41846  16.180  18.188  12.714 -0.2952  0.0665  0.0825
25373W        W41847   0.408  10.032   0.352 -0.1854  0.0125  0.4390
25374W        W41848   9.240   3.548   2.883  0.1233 -0.0428 -0.0913
25375W        W41849   3.588   0.860   5.621  0.1094 -0.0380 -0.3717
25376W        W41850  17.768   9.637   1.386  0.1987 -0.1869  0.0688
25377W        W41851  18.280   1.921   2.129  0.0403 -0.1783 -0.0330
25378W        W41852   2.871   3.289  15.542 -0.4790  0.2572  0.2013
25379W        W41853  15.937   9.539  14.436  0.1251 -0.1752  0.1463
25380W        W41854   1.732   2.187  13.914 -0.0547 -0.0596 -0.2098
25381W        W41855   2.279  12.655   0.300 -0.3706  0.1840  0.1609
25382W        W41856  11.043   4.778  11.997  0.2378  0.1944  0.1760
25383W        W41857  14.163   5.803  11.501  0.1772 -0.0888 -0.1238
25384W        W41858  16.813  15.384  15.859 -0.1562  0.1138  0.2210
25385W        W41859   2.955  13.900   1.178  0.0550 -0.5199  0.0897
25386W        W41860  12.889  15.527  12.606  0.1778  0.1088 -0.0564
25387W        W41861   8.616  13.988  12.547 -0.0185 -0.1027 -0.0915
25388W        W41862   6.950  15.158   1.861 -0.3333  0.4059  0.2196
25389W        W41863  17.293   1.763  12.672  0.2467  0.1299  0.3617
25390W        W41864   2.163   0.981  13.530 -0.0555  0.0087  0.1531
25391W        W41865  17.882   9.367   4.078 -0.0111  0.2243 -0.0035
25392W        W41866   8.747   2.653  14.391 -0.1602  0.1072  0.1805
25393W        W41867   6.093   8.418  15.143 -0.1711  0.0352  0.1594
25394W        W41868  14.352   8.966   0.813  0.0974 -0.2354 -0.3606
25395W        W41869  10.925  11.729  11.514  0.3828 -0.0096 -0.1165
25396W        W41870   7.381  12.495  12.648  0.2773  0.0637  0.0384
25397W        W41871  13.912  16.094  15.394  0.0403  0.2315  0.0581
25398W        W41872   1.903   8.322  16.009  0.1581  0.1535 -0.2240
25399W        W41873  10.256   4.360  12.389  0.1556  0.3123  0.0874
25400W        W41874  10.982   3.123   0.146 -0.3589  0.3778 -0.0124
25401W        W41875  16.144  10.088   3.139  0.2179 -0.2067 -0.1970
25402W        W41876  10.085  10.651  10.012  0.2290  0.2285  0.2237
25403W        W41877   6.230   7.677  11.496  0.3100  0.1258  0.0095
25404W        W41878   2.567   8.736   3.546  0.2532  0.0060  0.1220
25405W        W41879   8.566   6.422  14.113  0.1837 -0.0153  0.1037
25406W        W41880  14.956  18.070   1.529  0.5188  0.1047  0.0620
25407W        W41881   8.065   7.236   1.603  0.1210  0.1114 -0.1134
25408W        W41882  13.107   3.073  12.721  0.3147  0.0258  0.3138
25409W        W41883  17.486   5.881  10.209  0.2167 -0.0183 -0.0261
25410W        W41884  17.493  10.819  15.817  0.1202  0.1296 -0.2978
25411W        W41885   6.183  17.863  12.120 -0.0390  0.1489 -0.1337
25412W        W41886   9.124  12.069  13.007  0.0651  0.3060  0.0656
25413W        W41887  16.973  11.501   3.607 -0.3463 -0.0122 -0.2848
25414W        W41888  13.117   2.973  13.241  0.0636 -0.1998  0.2875
25415W        W41889   0.964   1.084  11.892  0.0433 -0.0007  0.2484
25416W        W41890   9.800   4.400  14.155  0.2660 -0.3836  0.0241
25417W        W41891   5.043   8.366   3.693 -0.0465  0.1138 -0.0249
25418W        W41892  11.871  12.446   1.850  0.2876 -0.3004  0.1878
25419W        W41893  17.242   0.876   0.081 -0.3339  0.1442 -0.1365
25420W        W41894  16.868   8.655   4.803 -0.1684 -0.0952  0.1469
25421W        W41895   7.473  12.822   5.874 -0.1988  0.0239 -0.1031
25422W        W41896  14.282  16.005  13.819 -0.0114  0.2148 -0.0496
25423W        W41897   4.244  12.107   0.616 -0.1785  0.2822  0.1081
25424W        W41898   2.974  11.120  16.171 -0.0846  0.1617 -0.1158
25425W        W41899  14.241  14.726  13.644 -0.2322  0.3513 -0.0751
25426W        W41900   4.444  13.714  11.421 -0.1480  0.1455  0.1519
25427W        W41901  13.834  10.800   2.740 -0.3464  0.2359  0.2240
25428W        W41902   0.481   0.081  14.963 -0.1875  0.1697  0.1615
25429W        W41903  14.473   4.063   1.334 -0.0430 -0.1504 -0.2111
25430W        W41904  10.840   0.512  16.027  0.0422 -0.1609  0.4624
25431W        W41905   1.311   6.411  13.848 -0.0591  0.0528  0.0400
25432W        W41906  18.211   5.495  14.005 -0.0610 -0.1498  0.0418
25433W        W41907  15.163   1.015  16.139 -0.0363 -0.1115  0.2150
25434W        W41908  11.830   1.503   2.550  0.2259 -0.0309 -0.0600
25435W        W41909  16.394  11.445  12.498 -0.1355  0.3205  0.0745
25436W        W41910   1.250   7.455  14.891  0.0411 -0.2046  0.5821
25437W        W41911  10.735  12.061  11.933  0.3361  0.1742  0.1234
25438W        W41912   1.005   1.825   3.982 -0.2203 -0.0125  0.2749
25439W        W41913   7.351  14.054   6.039 -0.0540 -0.4114  0.2650
25440W        W41914  10.262   4.299  14.653 -0.0022  0.2749  0.1287
25441W        W41915  11.978  17.588  12.495 -0.1155  0.0024  0.0286
25442W        W41916  14.474  15.863   5.687  0.0668 -0.2097 -0.1695
25443W        W41917  12.710   8.254   5.656  0.0805  0.0848  0.0027
25444W        W41918   5.696   4.322   3.907 -0.1607  0.1658 -0.3061
25445W        W41919   0.780  17.274  11.941  0.1850 -0.0861  0.0811
25446W        W41920   1.883   2.918   6.011 -0.0735 -0.1545  0.1468
25447W        W41921   6.510  14.944  14.008 -0.2875 -0.0590  0.2841
25448W        W41922   6.776  14.065   4.187  0.0621 -0.0381  0.0169
25449W        W41923  14.257  16.412  15.555 -0.0989 -0.1589 -0.1932
25450W        W41924   7.916  10.041   2.409 -0.0009  0.0154 -0.1708
25451W        W41925   1.563   4.441   2.886  0.0683 -0.0921 -0.0895
25452W        W41926  14.983  14.416   3.670  0.1685 -0.1376  0.1193
25453W        W41927  10.518  15.567   1.654 -0.0023 -0.1690 -0.3051
25454W        W41928  14.538   0.376  16.296  0.1107 -0.4176  0.1367
25455W        W41929   3.063  15.551  15.908  0.3524 -0.0779 -0.2422
25456W        W41930  17.352   2.759   2.883 -0.1813  0.0639 -0.1325
25457W        W41931   2.948   0.638  13.201 -0.1152  0.1527  0.0113
25458W        W41932  17.748   6.222  16.217 -0.0753  0.0751  0.0122
25459W        W41933  12.703   3.113  11.161  0.1434  0.0865  0.1028
25460W        W41934  14.584  17.191  13.146  0.1512  0.1282 -0.1944
25461W        W41935   1.099  16.651   0.189  0.1829  0.0904  0.3908
25462W        W41936  13.216  17.215  15.608 -0.0803  0.0657 -0.1278
25463W        W41937  11.637   3.303  10.992  0.2213  0.1137 -0.1287
25464W        W41938   6.630  12.641   3.456  0.3009 -0.1195  0.2264
25465W        W41939  12.162  14.017   3.524 -0.0279 -0.2237  0.0946
25466W        W41940   5.202  18.260  16.245 -0.2385 -0.2723  0.2226
25467W        W41941   2.499   7.384  16.162 -0.3135  0.1705  0.0512
25468W        W41942  16.130   7.044   4.333 -0.0306 -0.0127  0.0413
25469W        W41943   9.915  10.602   0.718 -0.1080 -0.0261  0.2103
25470W        W41944   8.796   4.685   5.181  0.0659  0.4148  0.2826
25471W        W41945   9.660   1.700   5.761  0.2885  0.0279  0.2052
25472W        W41946   7.414   6.607   3.103  0.1979  0.1614  0.0405
25473W        W41947   4.136   9.816   5.554  0.2541  0.0471 -0.2588
25474W        W41948   9.550   0.650  15.944 -0.0883 -0.2341  0.0642
25475W        W41949   6.413   4.121  15.310 -0.0022 -0.2003 -0.2833
25476W        W41950   9.132   7.887   2.096  0.1048  0.1267 -0.0156
25477W        W41951  13.471  11.952   0.433  0.2193  0.0643 -0.2863
25478W        W41952  14.328  13.204  11.744 -0.3645  0.0028 -0.0575
25479W        W41953   7.730  12.513  14.314 -0.2428 -0.1586  0.0893
25480W        W41954  12.984  10.035  12.975 -0.1018  0.2043  0.1642
25481W        W41955   7.999   9.284   0.567  0.1190  0.1914  0.1674
25482W        W41956   0.826   4.517  14.829  0.1294  0.0742  0.1485
25483W        W41957   0.531  12.950   3.129  0.1793  0.2480 -0.0868
25484W        W41958  10.665   1.665  12.933 -0.2776  0.1264  0.0161
25485W        W41959  13.487  14.017   4.931 -0.1575 -0.1403 -0.2084
25486W        W41960  12.077   8.373   1.005 -0.0292  0.3063 -0.1267
25487W        W41961   4.683   5.998   2.878 -0.0003 -0.1121 -0.3083
25488W        W41962  10.260   4.315  15.219  0.2183 -0.1276 -0.1436
25489W        W41963   6.241  16.514   1.918  0.0520  0.2153  0.1346
25490W        W41964   4.037  11.938  15.175  0.0457  0.0899 -0.0668
25491W        W41965   6.645   5.572   0.478 -0.2528  0.1301 -0.2993
25492W        W41966  14.977   3.490  15.672  0.1187 -0.0733 -0.1572
25493W        W41967   6.808  11.572  13.549  0.2495  0.0828 -0.0598
25494W        W41968   6.114  13.662  16.237 -0.1648  0.0240 -0.0471
25495W        W41969   6.171  17.474   3.691 -0.3563  0.2337  0.1663
25496W        W41970   7.793   5.171  15.011  0.0151 -0.0694 -0.5411
25497W        W41971  16.924  18.077   1.977 -0.1299  0.0870 -0.0031
25498W        W41972  11.678  14.423  15.239 -0.1156 -0.0035  0.1707
25499W        W41973   4.502   7.618  12.616 -0.0958  0.2984  0.0263
25500W        W41974   7.715   6.828   0.628  0.2493  0.0302 -0.1914
25501W        W41975   4.969  13.056   3.567  0.2374 -0.1228 -0.4299
25502W        W41976   9.463  13.048   1.005 -0.2604  0.1591 -0.2765
25503W        W41977   4.868  11.963  12.532 -0.1945  0.0224 -0.1136
25504W        W41978   0.031  11.516   5.429 -0.0482  0.1163  0.1196
25505W        W41979  10.988   2.337   5.185 -0.1196  0.1386  0.0170
25506W        W41980   3.185   2.464  15.051 -0.0016 -0.2619  0.1100
25507W        W41981  18.049  13.438   0.869 -0.1675  0.0825 -0.5661
25508W        W41982  18.292  11.343   2.974  0.1114  0.0235 -0.2204
25509W        W41983   8.031   7.069   1.155  0.0855  0.0616 -0.0730
25510W        W41984   4.090   0.500  14.862 -0.2842 -0.1872 -0.0691
25511W        W41985  11.118  14.965  12.482  0.1899  0.2344 -0.1639
25512W        W41986   5.328  16.794   0.584  0.1466 -0.2411 -0.1946
25513W        W41987  12.988   2.689  16.204 -0.1300 -0.0091  0.3193
25514W        W41988  10.580   2.423   4.329  0.0935  0.1308 -0.3064
25515W        W41989   5.620  15.612  15.258 -0.1391  0.2794 -0.1090
25516W        W41990   5.175   5.196  15.844  0.1391 -0.1061 -0.0099
25517W        W41991   4.361  13.658   0.462 -0.1627  0.0947 -0.3024
25518W        W41992  16.207  18.265   4.966  0.0274 -0.1037 -0.1307
25519W        W41993  14.007   9.110   5.098 -0.3950  0.1853 -0.2168
25520W        W41994   1.053   8.509  15.824  0.1558 -0.1052  0.0102
25521W        W41995   5.413  12.899  13.813 -0.4025  0.3212 -0.1009
25522W        W41996  17.195   2.738   0.259  0.1099  0.0247  0.0549
25523W        W41997   4.450  15.914   1.732 -0.0797 -0.2248 -0.0442
25524W        W41998   1.560   8.733   2.045 -0.4233 -0.0519  0.0984
25525W        W41999  14.613   8.722   4.027  0.1671 -0.1386  0.3251
25526W        W42000   0.426   3.033   2.182  0.3583 -0.2764 -0.0423
25527W        W42001  15.335   5.323  12.278 -0.0869  0.0361  0.1106
25528W        W42002   0.429  12.918  15.766 -0.1633  0.1952  0.2322
25529W        W42003   1.450   7.081   4.570 -0.0037 -0.5576  0.2278
25530W        W42004   5.204  15.665  14.334  0.1534  0.0715 -0.0476
25531W        W42005  15.483   7.782  16.239  0.0135  0.0509 -0.2860
25532W        W42006   7.416   6.821  14.718  0.5811  0.0722  0.0913
25533W        W42007   4.465  15.111  12.220 -0.1287  0.1736 -0.0195
25534W        W42008   0.298  14.889  14.544 -0.0876  0.1511 -0.1657
25535W        W42009   2.993   8.938   4.311 -0.0346 -0.4003  0.2699
25536W        W42010   0.338   7.706  11.425  0.2081 -0.2097  0.2163
25537W        W42011  12.237  14.491   6.545  0.1966  0.0904  0.1517
25538W        W42012   7.939   7.546  11.169 -0.2407 -0.1702  0.1536
25539W        W42013   8.753  18.342  15.840 -0.1755 -0.0548 -0.0081
25540W        W42014   8.016   7.793   2.897 -0.2131 -0.0462 -0.3464
25541W        W42015  16.775   6.388  11.996  0.3342 -0.0124 -0.2076
25542W        W42016   2.236  11.839  11.823 -0.2446  0.0420 -0.0220
25543W        W42017  15.502  12.245   0.751  0.0731  0.0673  0.0112
25544W        W42018  16.134  16.781   4.999 -0.0375 -0.0196  0.1603
25545W        W42019   7.447   7.890  12.070  0.0037 -0.0726 -0.0315
25546W        W42020  12.888   0.107  12.400  0.1877  0.5161  0.1686
25547W        W42021   9.378   8.519   1.425  0.1064  0.0085  0.0871
25548W        W42022  17.176  11.731  14.854  0.0789 -0.2430 -0.2602
25549W        W42023   7.770  14.404  13.705  0.0346  0.3319 -0.2012
25550W        W42024   1.235  12.893   2.553  0.0289  0.0857  0.0542
25551W        W42025   9.976  15.479  13.534 -0.0353  0.1864  0.4030
25552W        W42026   6.123  17.140  14.092  0.0072 -0.1992  0.0234
25553W        W42027   6.485   1.695  16.137  0.5442  0.2216  0.1408
25554W        W42028   0.260   5.930  11.589 -0.4233 -0.1279  0.0503
25555W        W42029  16.148   0.788   5.088 -0.0777 -0.1737  0.0479
25556W        W42030   7.150  16.026  12.485  0.3868 -0.0031  0.2081
25557W        W42031  13.086   6.114  14.461  0.0218 -0.0116  0.4029
25558W        W42032   3.431   6.601  13.232 -0.3596  0.2440  0.1345
25559W        W42033   4.594  11.248  11.313  0.1406  0.0485  0.2224
25560W        W42034   0.822   8.338  11.882 -0.0054  0.2431  0.0020
25561W        W42035   9.760   7.443  14.030 -0.0724 -0.0073  0.3325
25562W        W42036   2.411  16.845   1.883 -0.2312  0.1747 -0.4154
25563W        W42037   4.462  15.427   4.105 -0.0434 -0.0333  0.0981
25564W        W42038   0.794   2.243  12.939 -0.0362 -0.2324  0.0862
25565W        W42039   5.548   2.824  13.230  0.5111 -0.0672  0.0832
25566W        W42040  14.750   2.614   4.235 -0.2142 -0.1076  0.1242
25567W        W42041   3.002   0.493   6.721 -0.0741  0.0674  0.1781
25568W        W42042   4.665  14.025   0.679 -0.1095 -0.0401  0.1930
25569W        W42043   3.070  17.995  14.566 -0.0796 -0.2477  0.0152
25570W        W42044   8.859   3.885   1.815  0.2777 -0.1832 -0.0374
25571W        W42045   5.531   8.022   2.603  0.5162 -0.3243  0.1676
25572W        W42046   6.375  13.523   3.892 -0.2570 -0.0043 -0.1791
25573W        W42047   5.662   5.751   3.712  0.0125 -0.0357 -0.1130
25574W        W42048  16.761   5.067  10.984 -0.0466 -0.3537  0.3910
25575W        W42049  13.049  16.715   1.799  0.0266  0.1067  0.2168
25576W        W42050  13.081   3.520  15.923 -0.2359  0.0768  0.0709
25577W        W42051  16.914  10.039  13.805  0.0933 -0.2910 -0.2760
25578W        W42052  12.223   0.813  11.395  0.2893  0.3547 -0.0777
25579W        W42053  14.455   9.311  12.764  0.0556 -0.1186  0.0495
25580W        W42054  17.614   1.586   3.812 -0.1144  0.0724  0.2932
25581W        W42055   9.487   9.622  14.909  0.1541 -0.1873  0.0321
25582W        W42056  10.421  12.125   2.912 -0.1001 -0.2204  0.0910
25583W        W42057   1.839  14.900  12.674 -0.0790  0.0400  0.1048
25584W        W42058  12.286   2.160  14.622  0.2588 -0.0151  0.4025
25585W        W42059   3.409   6.071  13.382 -0.0766  0.0327 -0.1303
25586W        W42060  10.383   9.811  11.839 -0.0387  0.0634  0.1129
25587W        W42061  18.155   6.196  12.556  0.0323  0.0598  0.1014
25588W        W42062   2.920   3.714   5.071 -0.0657 -0.2615 -0.1169
25589W        W42063  17.060  16.664  13.607 -0.6048  0.2034 -0.1758
25590W        W42064  17.203  14.999   4.270  0.1697  0.0295  0.0758
25591W        W42065   0.844  13.408  12.153  0.1556 -0.0254 -0.1029
25592W        W42066   7.963   9.226  15.596  0.0909 -0.0745  0.0913
25593W        W42067  17.859   4.482  11.270  0.2309 -0.0189 -0.0339
25594W        W42068  16.820   9.067   2.185  0.0972  0.3003  0.2111
25595W        W42069   7.842  10.472   2.064 -0.0359 -0.0638 -0.1971
25596W        W42070   2.925   8.579   2.660  0.1533  0.4385  0.2546
25597W        W42071  12.856   3.444  12.420  0.0819  0.2131 -0.1695
25598W        W42072   9.537   9.780   0.125  0.1490 -0.0970 -0.1068
25599W        W42073  14.820  11.615   4.189  0.0823  0.2340 -0.4358
25600W        W42074   6.566  16.885   4.264  0.1931 -0.0528  0.1376
25601W        W42075  10.685   3.528   0.735 -0.1809  0.3017  0.0848
25602W        W42076   7.629  11.504   2.914 -0.1152 -0.0227 -0.0052
25603W        W42077  13.854  10.749  14.027 -0.2242  0.1227 -0.1436
25604W        W42078  10.136   1.687  12.890  0.1913 -0.1778 -0.1107
25605W        W42079   9.014   4.151  15.854 -0.1492  0.1058 -0.0205
25606W        W42080  14.522  14.219   2.300  0.2672  0.1086  0.1555
25607W        W42081   7.551   8.731   1.436 -0.0242 -0.2566  0.1292
25608W        W42082  12.995   4.225   1.338 -0.0499 -0.3993  0.0521
25609W        W42083  10.360  18.358  11.855 -0.0426  0.2252  0.0185
25610W        W42084  11.153  15.090   3.814 -0.1313  0.1741  0.2676
25611W        W42085  10.372  10.603   5.319 -0.1010  0.1901 -0.2622
25612W        W42086   0.770  15.121   3.014  0.0884 -0.0450  0.0129
25613W        W42087  17.809   1.768  13.369 -0.0338  0.2842  0.1746
25614W        W42088   5.392   4.517   0.451 -0.1891  0.0997  0.2246
25615W        W42089  14.466   8.154  13.377 -0.1777 -0.0060 -0.2062
25616W        W42090  13.989   6.814  13.862  0.0568 -0.5003 -0.3516
25617W        W42091  17.717  18.295   1.912  0.0211  0.1114  0.0930
25618W        W42092  16.176   7.935   4.858 -0.0118  0.0365  0.0888
25619W        W42093   5.185  13.831  14.138 -0.2826  0.1824  0.3229
25620W        W42094   6.908   7.232  13.887 -0.0073  0.4200 -0.0118
25621W        W42095   0.884   0.594  15.680 -0.1250  0.5172 -0.0728
25622W        W42096   6.835   0.473  14.884 -0.0599 -0.0144 -0.0843
25623W        W42097   8.777  10.949   5.812  0.0329  0.0869 -0.4235
25624W        W42098  14.202   0.866  11.792  0.1823 -0.2460  0.3095
25625W        W42099  10.143  11.493   0.499 -0.0705 -0.0757 -0.2466
25626W        W42100  13.262   4.018   2.796  0.0594 -0.0093 -0.1238
25627W        W42101   3.119  14.857   3.946 -0.5149  0.0725  0.0877
25628W        W42102  16.504   9.674   0.327  0.0473  0.0972  0.0045
25629W        W42103  11.272  14.366  11.810 -0.1047 -0.0040  0.0836
25630W        W42104   8.679  10.422   2.561 -0.0996  0.0191 -0.1789
25631W        W42105   6.035  15.930   6.362  0.0246  0.0729  0.0311
25632W        W42106   9.365   9.057   2.988 -0.0789  0.1157 -0.0867
25633W        W42107   0.930  11.405   0.695  0.0378  0.1232  0.0935
25634W        W42108  14.197  17.324   2.636 -0.0853 -0.1838  0.0407
25635W        W42109   1.232  10.860   4.315  0.0912  0.1383  0.3381
25636W        W42110   3.238  11.880   0.590  0.0314  0.0119 -0.3303
25637W        W42111   7.039  11.696  11.328  0.1625 -0.2218 -0.2475
25638W        W42112   1.121   9.129  14.043 -0.2199 -0.0011  0.4808
25639W        W42113   9.387  14.672   5.765 -0.1047  0.2589 -0.0815
25640W        W42114  15.414   5.193  13.999  0.2069  0.1793 -0.0971
25641W        W42115  17.013   6.298   4.142  0.1810 -0.0696 -0.3715
25642W        W42116   9.194  14.804  12.082 -0.3247 -0.4036 -0.2502
25643W        W42117   6.453   3.166   4.378  0.1078 -0.1155  0.2345
25644W        W42118  17.701  13.915   2.813  0.3062 -0.1288 -0.0930
25645W        W42119  16.713   6.746   4.086 -0.4457  0.3138  0.0645
25646W        W42120   8.231  11.401   2.807  0.0032  0.0300 -0.0262
25647W        W42121   7.181   8.002  16.269 -0.2872  0.2143 -0.0129
25648W        W42122  12.446  10.170  14.719 -0.1544 -0.2062 -0.1045
25649W        W42123   2.474   4.683  13.657  0.0406  0.0325  0.1110
25650W        W42124   4.898  16.782   5.647 -0.2591 -0.0909  0.1548
25651W        W42125  13.710  11.002   4.739  0.0941 -0.0886  0.0621
25652W        W42126   8.460  12.251  15.008  0.2905  0.1823 -0.0756
25653W        W42127   3.720  15.671  12.978  0.0997 -0.0654  0.1552
25654W        W42128  11.198   0.357  14.265 -0.0524  0.2002  0.1514
25655W        W42129   1.660  11.028   3.127  0.0667  0.1912  0.1155
25656W        W42130   4.517  16.958  14.172 -0.2452 -0.0880 -0.0345
25657W        W42131   4.640  14.262   1.150  0.0249 -0.0080 -0.2037
25658W        W42132   8.441  14.113   5.435  0.1663  0.1070 -0.1228
25659W        W42133  12.649   1.405   0.165 -0.3258  0.0640 -0.0141
25660W        W42134  15.901   3.164   1.712 -0.2993  0.2416  0.0106
25661W        W42135  16.551   3.368   0.000 -0.3110 -0.3162 -0.1334
25662W        W42136   2.411   0.318  12.791  0.1331 -0.1950 -0.1844
25663W        W42137  14.801  14.617  11.666 -0.1381 -0.5812  0.2575
25664W        W42138   7.734  11.556  12.494 -0.0454 -0.1104 -0.1477
25665W        W42139  14.714   0.219   3.701 -0.1239  0.3448  0.0388
25666W        W42140  14.557   9.865   2.174  0.0778  0.0979 -0.0053
25667W        W42141  10.014  10.413   1.910  0.0900  0.2169  0.3978
25668W        W42142   1.770   3.667  14.225  0.3153 -0.0275  0.2433
25669W        W42143  10.899   1.739   1.943 -0.1491  0.0604  0.1671
25670W        W42144   1.075  14.106   1.739  0.4903  0.0638  0.4642
25671W        W42145  14.179  18.248  15.520  0.2356  0.0924 -0.3466
25672W        W42146  15.283  18.386  10.885  0.2784  0.2076  0.3077
25673W        W42147   4.483   5.473  12.308 -0.2015 -0.4280  0.2819
25674W        W42148   6.323  16.685   4.608  0.1910  0.0513 -0.0383
25675W        W42149   7.339   4.137  14.743 -0.0341 -0.1399  0.2109
25676W        W42150  17.367  18.318  12.138  0.0342  0.4004  0.3200
25677W        W42151   6.429   2.805   3.470 -0.4254 -0.0460  0.2976
25678W        W42152  13.132   9.696   4.040  0.0982  0.1126  0.1259
25679W        W42153   5.707  17.572   0.998 -0.2239 -0.2793 -0.0026
25680W        W42154  12.030  10.333  13.683 -0.1261  0.1337 -0.1044
25681W        W42155   4.667   4.358   4.771 -0.0393  0.0488 -0.0027
25682W        W42156  14.307  15.029  12.075 -0.0331 -0.2500  0.2089
25683W        W42157  17.262   9.945  14.129 -0.1456  0.2900 -0.2313
25684W        W42158   1.427   4.349   1.273 -0.3149 -0.0375 -0.0803
25685W        W42159  17.981  14.033  15.788 -0.0979  0.0211  0.2147
25686W        W42160  11.693   8.070   2.340 -0.1539 -0.2177 -0.0533
25687W        W42161   1.285   0.464   6.364 -0.3324 -0.0279  0.1754
25688W        W42162  14.235   2.702   5.190 -0.0382 -0.2880  0.1970
25689W        W42163  13.201   7.258   0.236 -0.1526  0.0028  0.1520
25690W        W42164  16.640  13.906   3.880  0.1520  0.2838 -0.2792
25691W        W42165   0.786  14.691   0.794 -0.3518  0.1069  0.0630
25692W        W42166   3.222   5.261   2.665 -0.1891 -0.0385 -0.0259
25693W        W42167   2.018   4.656   4.893  0.0351  0.0750  0.1685
25694W        W42168   2.703   2.403  15.290  0.0987 -0.0015 -0.1613
25695W        W42169  15.169   5.093  16.231 -0.0753  0.2341  0.0158
25696W        W42170  14.653  16.553  15.302  0.1540  0.3061  0.0323
25697W        W42171   9.733  10.471   3.195 -0.3056 -0.1178 -0.5049
25698W        W42172  13.990   4.175   2.704 -0.1028  0.0092 -0.2857
25699W        W42173   7.908   0.834   4.955 -0.0930 -0.2884  0.1158
25700W        W42174   0.887  14.979  11.454  0.0779 -0.1415 -0.0614
25701W        W42175   9.345  14.171   5.719 -0.1453  0.0582  0.0909
25702W        W42176  16.189   7.073  13.401  0.0663  0.1526  0.2286
25703W        W42177  14.844   4.696  12.832  0.2219  0.0150 -0.1285
25704W        W42178  13.185  16.994   3.033  0.0119  0.0080  0.1085
25705W        W42179  13.143   6.727  11.343 -0.2031 -0.3551  0.0550
25706W        W42180   2.325  15.740  10.881 -0.0023 -0.1518 -0.1762
25707W        W42181  12.439   0.553  13.020  0.2694  0.3237 -0.0744
25708W        W42182  12.148  15.970   2.560  0.2197 -0.0418  0.0985
25709W        W42183  17.275   6.971  14.681  0.3532 -0.2052 -0.3090
25710W        W42184   1.404  14.331   2.641 -0.0854  0.1065  0.2039
25711W        W42185  15.124  17.191   2.170 -0.1543 -0.0787  0.2978
25712W        W42186  11.174   8.705   0.170  0.0802  0.2345 -0.2642
25713W        W42187  11.560  12.904  14.997 -0.2238 -0.1257 -0.1809
25714W        W42188   1.324  18.222  13.649 -0.2569  0.3071 -0.1858
25715W        W42189   1.996   0.515  15.581 -0.0536 -0.1417 -0.3712
25716W        W42190   9.969   0.724  14.102 -0.0994 -0.0527 -0.0029
25717W        W42191   7.716   0.128  11.496 -0.0143  0.0963 -0.4830
25718W        W42192   0.610   5.920  13.348 -0.4358 -0.1053 -0.0690
25719W        W42193   4.307  13.383  15.595 -0.1780 -0.1628  0.1681
25720W        W42194  17.499  16.391   1.751  0.0617 -0.1356 -0.2390
25721W        W42195  13.691  10.144   1.197  0.2749  0.1876 -0.3800
25722W        W42196   9.640   3.760  13.559  0.2686  0.0288 -0.0259
25723W        W42197   4.330   5.875   3.342  0.0287 -0.1624  0.0206
25724W        W42198  16.619  10.964  10.782 -0.4053  0.0140  0.1029
25725W        W42199  15.163   9.320   5.960  0.2635  0.0248 -0.1044
25726W        W42200   4.052   8.364   3.880 -0.0372  0.2387 -0.0066
25727W        W42201   4.015  13.409   5.103  0.2176 -0.2149 -0.2264
25728W        W42202   7.927  11.152  11.203 -0.0179 -0.3057  0.0200
25729W        W42203   1.894  11.456   0.839 -0.0933 -0.1860 -0.2075
25730W        W42204  11.316  14.459  12.387  0.2126  0.3752 -0.1677
25731W        W42205  12.537   7.723   4.265  0.1185  0.1439  0.0849
25732W        W42206  16.885  10.809  14.697 -0.0843  0.1235 -0.2094
25733W        W42207  12.955  15.343   3.221  0.1952  0.0534  0.4315
25734W        W42208  11.716   7.023  12.890  0.1947  0.1491 -0.0205
25735W        W42209  12.544  17.251  13.156  0.0839 -0.0308  0.0324
25736W        W42210   6.440  15.117   1.776  0.0651 -0.0247 -0.2327
25737W        W42211   2.190   1.580  15.491  0.1561 -0.2218  0.1628
25738W        W42212  13.155  16.932  11.428 -0.2185  0.0455  0.1324
25739W        W42213  17.975   8.766  13.351  0.2256 -0.0335  0.2518
25740W        W42214  10.700   9.925  15.716  0.2882  0.1218  0.0051
25741W        W42215   9.458  11.649   2.171 -0.1838  0.0935  0.1947
25742W        W42216  15.808  16.516   3.471  0.1056  0.1212  0.1391
25743W        W42217   8.097   6.883   4.700  0.4923 -0.1736 -0.1371
25744W        W42218   1.129   8.651   5.289  0.3753  0.0234  0.2682
25745W        W42219   7.158   1.204   0.091  0.1945 -0.2009 -0.0723
25746W        W42220   0.130  15.356   4.513  0.0645  0.4004  0.1567
25747W        W42221  12.470  11.767   2.371  0.1192  0.2046  0.0620
25748W        W42222  10.898  14.631   2.332  0.1597  0.2473 -0.3944
25749W        W42223  12.588   6.005   5.062 -0.4243 -0.2529  0.1036
25750W        W42224   0.931  18.089  15.117 -0.3556  0.0160  0.1558
25751W        W42225   7.084   7.397   3.301 -0.2419 -0.1422 -0.1385
25752W        W42226  14.070   3.285   4.020 -0.0749 -0.1359 -0.1142
25753W        W42227  14.961  13.531  13.929  0.0526 -0.1384 -0.0816
25754W        W42228  17.084   4.582   3.511  0.1052  0.4555 -0.0717
25755W        W42229  17.696   4.322   5.131  0.2017 -0.0562  0.2268
25756W        W42230   2.250   8.765  16.217 -0.3608 -0.1768  0.0202
25757W        W42231  17.292   1.758  15.706  0.3153  0.2341 -0.4295
25758W        W42232  12.289   2.250  12.562 -0.0326  0.0107  0.0017
25759W        W42233   7.679  17.545  11.852 -0.5013  0.3570  0.0116
25760W        W42234   6.533  16.819  15.457 -0.3641 -0.3690 -0.1169
25761W        W42235   0.936   8.268  11.071 -0.0778 -0.1858  0.0213
25762W        W42236  18.143   2.313  15.576  0.2315 -0.1195  0.0197
25763W        W42237  16.219  13.984   0.455 -0.0373  0.1674 -0.0389
25764W        W42238   5.224  15.230   3.649  0.1666 -0.3469 -0.1705
25765W        W42239   5.462   5.701  13.874  0.0992 -0.0233  0.2439
25766W        W42240   3.145   1.357   4.185 -0.0057  0.4748 -0.0679
25767W        W42241  15.475   2.396   0.090  0.0855  0.0163 -0.0372
25768W        W42242  12.219   6.926  12.688 -0.3176 -0.1850 -0.2663
25769W        W42243   8.420   0.362  12.860  0.0688  0.0355  0.1831
25770W        W42244   7.028   3.890   0.453 -0.0175  0.1464  0.0504
25771W        W42245   1.827   1.758   2.866  0.3207 -0.0571  0.0394
25772W        W42246   4.443  14.849   0.091  0.1722  0.1532 -0.1242
25773W        W42247   2.988   2.790   3.151 -0.0237 -0.4115 -0.1048
25774W        W42248  11.758   5.949  15.258  0.5092 -0.0183 -0.0544
25775W        W42249   6.122  10.974   4.888  0.1665 -0.1294 -0.1478
25776W        W42250   2.430  15.000  16.333  0.4809  0.2541  0.0131
25777W        W42251   7.178  14.993   3.150 -0.1822  0.1048  0.1979
25778W        W42252  14.356   0.972  13.841 -0.3507 -0.0664  0.0216
25779W        W42253  15.832   0.399  14.782  0.0871 -0.1380 -0.1853
25780W        W42254  14.940  12.410  15.184  0.4938  0.0611 -0.1171
25781W        W42255   4.698  10.522  12.824  0.0311 -0.1310  0.0024
25782W        W42256   8.267   3.627   3.548  0.1843  0.3302  0.0917
25783W        W42257   2.595  14.533  16.279  0.2347  0.2009 -0.0934
25784W        W42258  13.494  11.247  15.072 -0.1680  0.4734  0.1247
25785W        W42259  12.396   1.963  13.124  0.2487 -0.2186  0.2840
25786W        W42260   2.972   7.620  14.829  0.3757 -0.2749  0.0796
25787W        W42261   7.674   5.047   1.802  0.2298  0.2179 -0.0827
25788W        W42262   1.069   4.846   2.170  0.1804  0.2442  0.0935
25789W        W42263  12.164   2.740  11.861  0.0836  0.0782  0.1010
25790W        W42264   1.177   9.051  12.199  0.0205 -0.1798  0.1203
25791W        W42265  11.496  14.676   0.774  0.0919 -0.0930 -0.0692
25792W        W42266   9.647   8.270   5.325  0.0030  0.1938  0.0977
25793W        W42267  11.100  18.390   1.552  0.3646 -0.1485 -0.1668
25794W        W42268   8.899   2.868   5.717  0.0250  0.1969 -0.2761
25795W        W42269  12.785   9.541  15.614 -0.0716 -0.0660  0.0183
25796W        W42270  17.159   5.402  12.872 -0.1174  0.0841  0.0936
25797W        W42271  15.281   1.958   0.866 -0.2149  0.2285 -0.0846
25798W        W42272  16.763  13.424  13.200 -0.0356 -0.1007 -0.1339
25799W        W42273  15.414   4.274  12.031 -0.3396 -0.3530 -0.0399
25800W        W42274   5.319   1.578   5.408  0.0483  0.2736  0.0504
25801W        W42275  13.007  12.992  11.821 -0.0091 -0.0305 -0.0797
25802W        W42276  15.114  11.958  15.030  0.0373  0.0758 -0.1799
25803W        W42277  15.838   7.091   3.838  0.2687  0.1674 -0.1092
25804W        W42278   2.233   2.039  12.202 -0.1776  0.1609  0.0779
25805W        W42279   1.989   9.723  15.790 -0.2498 -0.1855 -0.3381
25806W        W42280   4.179  13.019  15.194  0.2964 -0.2646 -0.2780
25807W        W42281   8.421   9.933   5.151 -0.1133 -0.1253  0.2435
25808W        W42282  10.365   2.989  12.415 -0.1496  0.3255  0.0752
25809W        W42283  17.368   1.159  13.737  0.2841  0.0949 -0.0599
25810W        W42284   2.193  11.825  15.938  0.1227  0.0708  0.1045
25811W        W42285   1.490  11.739  11.343  0.0901 -0.1962  0.0560
25812W        W42286   5.871  17.422   2.687  0.3201 -0.1414 -0.1098
25813W        W42287  11.697  17.172   6.179  0.2289 -0.2269  0.0518
25814W        W42288   8.016   7.360   4.900  0.0649  0.2137  0.1669
25815W        W42289  16.287   4.341   5.150  0.2419 -0.0079  0.3219
25816W        W42290   3.774  14.349   4.110  0.0265 -0.7500 -0.0756
25817W        W42291  16.441  14.688   0.106  0.0710 -0.1091  0.0949
25818W        W42292  12.018  10.250  14.940 -0.1405  0.0379 -0.4500
25819W        W42293   5.049   8.831   2.804 -0.4505 -0.0096 -0.1382
25820W        W42294   5.816   0.394  15.001 -0.1134 -0.0882  0.0875
25821W        W42295   0.004   0.255   3.179 -0.2706  0.2085 -0.1062
25822W        W42296  10.288   5.115   2.839 -0.1404  0.1686 -0.0672
25823W        W42297  14.034  16.892  15.538  0.2059  0.1548 -0.0766
25824W        W42298  14.868  10.700  14.089  0.1577 -0.3357 -0.0309
25825W        W42299  13.551   2.876  12.835 -0.1030  0.1451 -0.0402
25826W        W42300  14.984   6.399  16.014  0.0660 -0.1195  0.1223
25827W        W42301  15.432  12.319   2.101 -0.2179  0.0052 -0.0891
25828W        W42302   5.402  17.416  15.681 -0.3849 -0.0338  0.4445
25829W        W42303  12.881  16.260   3.953 -0.0063 -0.0143 -0.1674
25830W        W42304   2.556   5.239   2.636  0.1835 -0.0999 -0.1692
25831W        W42305   1.762  10.971   5.183 -0.1913  0.1310 -0.0679
25832W        W42306   0.862  12.824   0.346  0.2514 -0.2553 -0.1542
25833W        W42307   3.326   0.467   3.091 -0.0095  0.1124 -0.2837
25834W        W42308   7.887  13.496  13.963  0.0356 -0.0222 -0.0957
25835W        W42309   4.166   9.637  15.038 -0.0866 -0.1270 -0.0340
25836W        W42310   1.918   1.817  15.172  0.0913 -0.1358 -0.0262
25837W        W42311  16.852  13.434   3.713 -0.2014 -0.1360  0.1522
25838W        W42312   5.590   4.859   2.577 -0.2188  0.0508 -0.1564
25839W        W42313   8.249   8.541   4.991  0.0333  0.0632 -0.1561
25840W        W42314   2.213   1.807   0.619 -0.0076 -0.0629 -0.0835
25841W        W42315   9.063   8.834   1.078  0.1405  0.2769  0.0126
25842W        W42316   3.973   7.789   3.913 -0.0450 -0.3204 -0.1674
25843W        W42317   6.316   9.684  14.165  0.2650  0.1024 -0.4120
25844W        W42318   9.165   2.640  14.722  0.1353  0.0668 -0.1876
25845W        W42319   7.276  11.879   4.574  0.0290  0.0408 -0.1596
25846W        W42320   0.150   0.352   5.325  0.2705 -0.0496  0.1889
25847W        W42321   5.738  17.699  11.846 -0.2709  0.1070 -0.0287
25848W        W42322   3.815  11.384   0.901  0.2157 -0.2907 -0.0808
25849W        W42323  10.028   6.136   4.435 -0.3003  0.0328 -0.1686
25850W        W42324  13.308  15.883   1.730  0.2075  0.1187  0.0348
25851W        W42325   4.507   2.207   3.668 -0.0517 -0.0472 -0.1753
25852W        W42326  16.810  12.269   0.407 -0.1673 -0.0308  0.3005
25853W        W42327  14.510  12.378  15.553 -0.0739  0.2492 -0.0052
25854W        W42328   1.136   9.623  14.283  0.1673  0.6463 -0.0367
25855W        W42329  11.807   5.521   0.771  0.0887  0.2703  0.2088
25856W        W42330   0.102   1.195   0.569 -0.2723 -0.0163  0.0382
25857W        W42331   5.158   8.608   1.947 -0.1918  0.1072 -0.1200
25858W        W42332  18.267  10.380  11.644 -0.0235 -0.1926 -0.2280
25859W        W42333   5.785   1.457  12.727  0.2682  0.0834 -0.1762
25860W        W42334  15.375   1.113  11.371 -0.0270 -0.1516 -0.1259
25861W        W42335  10.544   3.094   5.065  0.1883  0.0341 -0.2372
25862W        W42336   5.277  14.271  16.267 -0.0788  0.0227 -0.1289
25863W        W42337  15.360   9.924   3.470  0.0393 -0.2310 -0.1997
25864W        W42338   0.953   9.567   0.671 -0.2109 -0.0077 -0.1616
25865W        W42339  10.489   6.953  13.478  0.3296  0.0928 -0.1273
25866W        W42340  16.223  16.322   5.104  0.1669 -0.2329 -0.2270
25867W        W42341   9.408   6.073   0.463  0.2352  0.0509 -0.0067
25868W        W42342   3.889  16.455   3.433  0.0107 -0.4232  0.0322
25869W        W42343   1.928   0.209   3.904  0.0668  0.1034  0.0335
25870W        W42344   2.818   9.894   0.543  0.1964  0.1616 -0.0328
25871W        W42345   5.428  11.537   0.004  0.0725 -0.0438 -0.0347
25872W        W42346   6.006   8.918   0.882 -0.0568 -0.1676 -0.0540
25873W        W42347  11.917  12.962   0.791 -0.0106  0.2648 -0.2572
25874W        W42348  13.513   7.412   3.614  0.0626  0.1859 -0.1702
25875W        W42349  10.941  15.255   4.884  0.0233 -0.0383  0.0129
25876W        W42350  14.820   4.726  13.326 -0.2777  0.0212  0.0752
25877W        W42351   3.403   8.802   0.082  0.3465  0.1442  0.2200
25878W        W42352   8.806   3.986  13.119  0.1640  0.0221  0.1253
25879W        W42353  12.831   5.034  12.608  0.1855 -0.2750  0.0088
25880W        W42354   5.980   6.725  12.137  0.1832  0.1581 -0.1088
25881W        W42355  14.139  14.513  15.908 -0.0065  0.2130  0.3411
25882W        W42356  15.628  17.956   4.521  0.2641  0.2121  0.1764
25883W        W42357   4.681   6.012  13.597  0.2542  0.0636  0.2135
25884W        W42358  17.444  14.310   2.356  0.1591 -0.1753  0.3930
25885W        W42359   0.283   5.403  12.621  0.1004  0.1541 -0.1456
25886W        W42360   4.145  13.474   1.385 -0.2432 -0.0791  0.1439
25887W        W42361  18.085  15.946  13.048 -0.2501 -0.2300 -0.3592
25888W        W42362  13.099   9.028  13.296 -0.2744  0.4065 -0.0713
25889W        W42363  12.276   9.810  11.879 -0.0055 -0.0769  0.2334
25890W        W42364   5.242  11.038  15.552 -0.2152  0.0561 -0.0774
25891W        W42365  14.034   9.374   0.209 -0.0129  0.1288  0.0407
25892W        W42366   5.861  17.628  12.839 -0.0589  0.0999  0.1228
25893W        W42367  16.193   9.674   3.495 -0.0218  0.1466  0.0410
25894W        W42368  15.167  13.123   3.207 -0.2427  0.0115 -0.0350
25895W        W42369   3.345  13.512  14.051  0.1085 -0.3393  0.0818
25896W        W42370  17.623  12.271  13.523  0.2441  0.2059  0.0367
25897W        W42371   5.272   6.257  12.279  0.2264  0.0065 -0.2894
25898W        W42372  11.169  16.322   5.263 -0.2921 -0.0128  0.2227
25899W        W42373   7.446   9.133  12.130  0.2477  0.1695  0.1739
25900W        W42374  14.781   3.927   0.906 -0.0877  0.0765 -0.1170
25901W        W42375  12.278  13.479  10.719  0.0140  0.1079  0.1042
25902W        W42376  12.580  10.151   1.783 -0.1186 -0.1589 -0.0708
25903W        W42377   8.568  16.457   6.076 -0.1113  0.1929  0.0109
25904W        W42378   2.165   5.575  16.211  0.0126 -0.0413  0.3040
25905W        W42379  17.792  12.462   0.065  0.2663  0.4390  0.0017
25906W        W42380   0.637  14.877   2.285  0.0976  0.0256 -0.2954
25907W        W42381  17.017   3.423  13.993 -0.0593 -0.0354 -0.3045
25908W        W42382   2.600   5.888   2.527  0.3064  0.0628  0.0179
25909W        W42383  16.864   4.160   3.291 -0.2230  0.0167  0.1279
25910W        W42384   3.013   2.310   3.936 -0.1437 -0.1904 -0.0698
25911W        W42385   6.430  10.844   1.634  0.0630 -0.2519 -0.1458
25912W        W42386  11.256   9.002   3.066 -0.0061 -0.0021  0.1573
25913W        W42387   1.357   1.427  14.709 -0.4026  0.1013 -0.1732
25914W        W42388  17.383  14.023  11.485  0.3440  0.1319 -0.1111
25915W        W42389   1.025   8.944  16.116 -0.2448 -0.3718 -0.0795
25916W        W42390  13.833  16.306   4.031  0.3288 -0.3019  0.1529
25917W        W42391  14.049  17.584   3.499  0.0508 -0.1222 -0.0674
25918W        W42392  16.556   7.328   2.903  0.0937 -0.0969  0.0166
25919W        W42393  10.260   9.561   4.678  0.1426  0.3249 -0.0669
25920W        W42394   6.044   8.145   2.695 -0.3821 -0.1950  0.2194
25921W        W42395   2.766  12.125  12.685 -0.3433 -0.1135 -0.0284
25922W        W42396   8.808  16.562  15.800 -0.1227  0.3546 -0.1765
25923W        W42397  10.820   7.198   0.683 -0.0664  0.2515 -0.2098
25924W        W42398   3.142   2.399   4.829  0.2328  0.2473 -0.1773
25925W        W42399  17.406  10.803  14.558  0.0764  0.3127 -0.4385
25926W        W42400  13.643   9.255   2.164 -0.3162  0.3176  0.0192
25927W        W42401  11.283   4.963  11.368 -0.0652  0.2467 -0.1261
25928W        W42402  12.277  17.949  12.078  0.2490 -0.6373  0.2535
25929W        W42403   0.164  16.030  14.942 -0.1039 -0.0319  0.2806
25930W        W42404   2.496  13.391   3.790 -0.1106 -0.0343 -0.0339
25931W        W42405   5.687   5.022  11.183  0.3385  0.1205 -0.0742
25932W        W42406   1.761   5.610  12.672 -0.1746  0.4870  0.0628
25933W        W42407  10.530   9.406   5.741  0.1564 -0.2499 -0.3196
25934W        W42408   8.485  13.700  12.116  0.4679  0.0924  0.0429
25935W        W42409   2.507  12.509   1.238 -0.0837  0.0119  0.1662
25936W        W42410  13.348  15.845   2.249  0.0810  0.1536  0.1931
25937W        W42411  15.301   1.745  13.822  0.3346 -0.1058 -0.0724
25938W        W42412   0.109   5.822  15.805 -0.0557  0.1160 -0.0045
25939W        W42413   6.901  11.484   4.221  0.1560  0.2127  0.1132
25940W        W42414   3.838   2.442  14.127  0.0681 -0.2040  0.0648
25941W        W42415  12.272   2.148   3.686 -0.1460  0.0958  0.1074
25942W        W42416   0.655   5.787  12.884  0.0223 -0.0409 -0.1108
25943W        W42417   0.753  14.602  13.053  0.2096  0.0633 -0.3121
25944W        W42418   5.276   8.132  15.469 -0.1760  0.1915  0.1496
25945W        W42419  10.880   0.713  14.480 -0.0544 -0.2576 -0.0509
25946W        W42420   4.236   8.164   4.940  0.0177  0.0011  0.0925
25947W        W42421   1.787  13.214  15.868 -0.0280  0.1033  0.5132
25948W        W42422   4.430  10.853  11.782 -0.6375 -0.0806 -0.0448
25949W        W42423   0.908   4.426  12.846  0.2625  0.0148  0.3028
25950W        W42424   1.206   8.514  14.836  0.1097 -0.1795  0.3280
25951W        W42425  15.977   3.113   4.997 -0.0506  0.0911  0.1055
25952W        W42426  14.520  18.131  14.107 -0.1809  0.3086 -0.2621
25953W        W42427   7.906  15.382   4.693 -0.2607  0.2516  0.3790
25954W        W42428  11.168  17.361   3.928 -0.1431  0.0374  0.1979
25955W        W42429  14.875  18.178   4.021 -0.3272 -0.1750  0.0848
25956W        W42430   5.642   0.111   4.387  0.0643 -0.0919  0.1648
25957W        W42431   5.433  10.900   5.248  0.2765 -0.1073  0.1686
25958W        W42432   1.925   2.479   2.050 -0.0509  0.0725  0.1731
25959W        W42433   7.931   9.663   1.709  0.2529  0.2075 -0.0186
25960W        W42434   5.116   7.471  13.206  0.3107  0.0050  0.1833
25961W        W42435   9.513   7.418  12.471  0.0084  0.2027  0.0298
25962W        W42436   0.813   2.595  12.293  0.1884 -0.1084  0.4123
25963W        W42437  15.723   0.803  15.897 -0.2407  0.0688  0.0284
25964W        W42438  12.176   7.067  10.912 -0.0789 -0.4408 -0.1674
25965W        W42439  14.986  14.755  16.096 -0.2959 -0.4377  0.1757
25966W        W42440   9.139   9.857  12.483  0.1442 -0.1212 -0.0080
25967W        W42441   4.718  17.632   6.250 -0.0831 -0.1651  0.0362
25968W        W42442   6.975  11.350   2.752  0.0726 -0.1137 -0.2374
25969W        W42443   1.636  11.991   1.615  0.0718  0.1919  0.0299
25970W        W42444  16.872  12.190  14.691 -0.5520 -0.0717  0.3221
25971W        W42445  11.740  14.280  14.650 -0.0800  0.2249 -0.1036
25972W        W42446  11.285  12.087   5.329  0.1366 -0.0335  0.1704
25973W        W42447  10.318  10.658  10.818 -0.3136 -0.0955 -0.2690
25974W        W42448  11.335   4.467   0.137 -0.1775 -0.0495  0.0244
25975W        W42449   6.220  15.792  16.154 -0.0249 -0.1460 -0.1053
25976W        W42450  16.262   1.332  12.697  0.1411 -0.1682 -0.3092
25977W        W42451   8.120  15.966   0.157 -0.2657  0.0029  0.2947
25978W        W42452   2.660  16.615  14.377 -0.2133  0.2356 -0.1420
25979W        W42453   6.936  17.597  12.667  0.2635  0.2038  0.1776
25980W        W42454   2.878  14.084  12.436  0.1309 -0.1803  0.0825
25981W        W42455   0.485   5.686  11.945  0.1976  0.0071  0.0029
25982W        W42456   5.490  10.483  11.694  0.0441  0.1808 -0.2333
25983W        W42457   1.534  17.446  15.624 -0.2749 -0.1600 -0.2651
25984W        W42458  16.980   9.837  13.262  0.3721  0.0918  0.0757
25985W        W42459   1.934  15.729  12.703 -0.0051 -0.2761 -0.1676
25986W        W42460   7.613  14.193   3.182 -0.0427 -0.2332  0.0797
25987W        W42461  13.917   0.478   3.632 -0.2920  0.1209 -0.0650
25988W        W42462  14.949  14.831   2.822 -0.1582  0.1465 -0.0351
25989W        W42463  15.235  10.840   3.853 -0.0204  0.1034 -0.2100
25990W        W42464   2.303  16.362   5.492  0.2377 -0.3839 -0.0941
25991W        W42465   2.005   9.027  11.804 -0.0119  0.0288 -0.0243
25992W        W42466  12.544  12.238  13.703  0.0332  0.0027  0.2774
25993W        W42467   6.238   0.707  11.862  0.4371  0.0387  0.1431
25994W        W42468   5.073   8.410   0.829  0.1757 -0.3323  0.0117
25995W        W42469  10.070   1.067   5.197 -0.0648 -0.2209 -0.2339
25996W        W42470   3.109  16.213   0.811  0.2230 -0.0554  0.1126
25997W        W42471  12.068   1.578  13.077  0.1011  0.2257 -0.2986
25998W        W42472   6.208   4.572   1.861 -0.0341  0.1859 -0.0080
25999W        W42473   0.927   0.130   5.217  0.0397 -0.0319 -0.0489
26000W        W42474   5.543  16.489  12.153  0.1281 -0.0111  0.0548
26001W        W42475  17.871  14.235  12.958 -0.0113  0.2926  0.4287
26002W        W42476  11.609  13.459  13.600 -0.0523  0.0154  0.0467
26003W        W42477  17.197   6.960   3.241  0.0190 -0.0386 -0.0183
26004W        W42478  14.449   9.238   4.936  0.1205  0.1741  0.1384
26005W        W42479  12.434   9.182   2.807  0.1829  0.0728  0.0475
26006W        W42480   1.064  10.651   6.020 -0.0518 -0.3633 -0.2292
26007W        W42481   3.263   8.625  14.575 -0.1229  0.0157  0.0683
26008W        W42482   5.924   1.094  12.165 -0.0073 -0.2092 -0.2418
26009W        W42483  18.196   0.026   1.550 -0.0854 -0.2708  0.0734
26010W        W42484   7.588   0.610  13.208 -0.1164  0.2925  0.0176
26011W        W42485  15.365   4.924  11.344 -0.1134  0.0947  0.2471
26012W        W42486  13.067   7.277  12.692 -0.2765 -0.0448 -0.2866
26013W        W42487   7.913  12.634   2.899  0.2982 -0.3176 -0.1300
26014W        W42488  15.516  11.920  10.872 -0.1014 -0.3371 -0.0517
26015W        W42489  11.276  10.450   2.396  0.1302  0.2582 -0.2960
26016W        W42490   6.764   6.856  15.636  0.1565 -0.0621  0.1862
26017W        W42491   7.642   1.783  15.829  0.0740  0.0268  0.0284
26018W        W42492   0.800   1.752   4.773  0.1540  0.0338  0.0984
26019W        W42493  12.082   0.225   3.703 -0.0259 -0.3657  0.2832
26020W        W42494   2.215   4.262  13.255 -0.1630  0.1394  0.1771
26021W        W42495  12.796   7.563   3.039  0.0856 -0.0268 -0.0726
26022W        W42496   5.119  12.682   0.479 -0.2336  0.1358 -0.0432
26023W        W42497   1.307  14.623  13.062  0.1836 -0.1508 -0.0460
26024W        W42498   8.052  15.170  15.628 -0.0821 -0.0332  0.0047
26025W        W42499   3.019  15.908  12.234 -0.0171  0.3298  0.3322
26026W        W42500  10.359  10.475  11.266  0.0129  0.0450 -0.0486
26027W        W42501   5.852  17.979   2.397  0.1035 -0.0911  0.3151
26028W        W42502   9.111   9.113   3.464  0.2350 -0.0802  0.1206
26029W        W42503   1.512   1.441   2.187 -0.0835  0.2935 -0.0731
26030W        W42504  12.995  16.798   5.349  0.0530  0.0755 -0.1872
26031W        W42505  15.617  17.306   2.221  0.0591 -0.2552  0.1576
26032W        W42506   8.542  11.900  13.038  0.2232 -0.2032  0.0785
26033W        W42507  18.011   2.405   3.512  0.0201 -0.1457  0.2433
26034W        W42508  11.608  13.899  13.893 -0.0438 -0.3097 -0.2063
26035W        W42509   4.977  11.264   0.212  0.4076  0.2983  0.0072
26036W        W42510  10.112  17.580   0.143 -0.3728 -0.0342 -0.2888
26037W        W42511  17.897   5.592   1.942 -0.0322 -0.3254 -0.1986
26038W        W42512   1.795   9.143   1.938 -0.3427  0.2225 -0.1348
26039W        W42513   9.153  16.406   4.759 -0.0447  0.2257  0.0424
26040W        W42514  17.789   7.333  12.359  0.2242  0.0988 -0.4594
26041W        W42515   6.345  13.232   0.003  0.2432 -0.4021  0.0796
26042W        W42516  16.897   3.588   0.707 -0.2059  0.1250 -0.0829
26043W        W42517  12.543   5.835  10.279  0.0276  0.2887  0.2608
26044W        W42518   8.883  17.972   4.302  0.1485  0.1551 -0.3659
26045W        W42519  14.805   3.079  12.387 -0.4003 -0.2022 -0.1146
26046W        W42520  16.325  12.863  13.744  0.0784 -0.1392 -0.2075
26047W        W42521   0.724  11.442  14.137 -0.3116 -0.1619  0.4123
26048W        W42522   6.161   5.074   1.814  0.1549  0.0685 -0.0066
26049W        W42523   5.553  12.004   0.342 -0.0735 -0.0637 -0.2478
26050W        W42524  11.404  15.978   1.674 -0.1850  0.1562  0.2845
26051W        W42525   1.525   3.316   3.750 -0.0975 -0.2590  0.0721
26052W        W42526  17.427  14.747  15.790 -0.3397  0.0369  0.1160
26053W        W42527  18.129  17.536   2.249  0.0384 -0.1590  0.2105
26054W        W42528   2.597  17.065  16.173 -0.2814 -0.2437  0.2696
26055W        W42529   6.126   5.187  14.813 -0.3233  0.0337 -0.0771
26056W        W42530   6.429   4.377  12.396  0.0623 -0.3695 -0.1213
26057W        W42531  11.016  10.111   3.575  0.3710  0.2491 -0.0343
26058W        W42532   5.647   9.966  11.997 -0.1219  0.0230 -0.2063
26059W        W42533  18.219   8.495   4.899 -0.0939  0.0964  0.0416
26060W        W42534   2.496   8.098   2.959  0.1164 -0.0021 -0.0764
26061W        W42535   1.558  15.422  14.273  0.1741  0.0326  0.1489
26062W        W42536   2.387   8.060   1.382  0.0093  0.0605  0.1955
26063W        W42537   7.647  13.529  13.461  0.0726 -0.2058  0.1361
26064W        W42538  17.041   9.324   1.175 -0.0223 -0.2503  0.1755
26065W        W42539   9.524   3.246   3.283  0.1621  0.0711 -0.1199
26066W        W42540   9.990  14.100   2.630  0.0924 -0.0852 -0.0060
26067W        W42541  13.503  10.568  11.231 -0.1497  0.1285 -0.0266
26068W        W42542  13.921   6.448   2.725  0.2437 -0.0268 -0.0139
26069W        W42543   5.406   3.413  13.424 -0.5485  0.0241 -0.1314
26070W        W42544  12.610   9.132  13.482  0.3280  0.0706  0.0481
26071W        W42545   7.914   5.282  11.059  0.0011 -0.1548 -0.2120
26072W        W42546   4.061   2.209   0.647  0.0261  0.1529  0.0498
26073W        W42547   9.073   1.859  12.437 -0.0463  0.3159 -0.1483
26074W        W42548  15.010  11.759  12.301  0.2243 -0.0128 -0.2891
26075W        W42549   6.014   8.213  11.897  0.0748 -0.0645  0.0702
26076W        W42550   1.183  10.370   1.931  0.3368 -0.0545  0.2135
26077W        W42551   8.339   3.456   5.049 -0.3023 -0.0751 -0.4296
26078W        W42552   3.188   9.484   5.054  0.0064  0.0729  0.2919
26079W        W42553   1.906  16.935  13.316  0.2645 -0.0067  0.3321
26080W        W42554   5.564  13.515  13.825 -0.0491 -0.1553  0.0982
26081W        W42555   6.527   5.553   1.756  0.5161  0.2415  0.0867
26082W        W42556  18.394  11.872  15.010 -0.0034  0.1333 -0.2110
26083W        W42557  16.438   4.904  12.692  0.1035 -0.0187 -0.0397
26084W        W42558  10.061  14.244   3.150  0.0401  0.1880  0.2480
26085W        W42559   7.619   4.616  11.007 -0.0467 -0.0571  0.0758
26086W        W42560   1.851   0.395   4.968  0.0940  0.3140 -0.0408
26087W        W42561   6.654   3.619   0.753  0.2407 -0.0467  0.0426
26088W        W42562  16.571   2.073  15.300  0.2186  0.1745 -0.1366
26089W        W42563   7.562   9.119  15.257  0.0893  0.2731 -0.2713
26090W        W42564   2.192  17.070  15.827 -0.3553 -0.0424  0.0836
26091W        W42565   4.693   4.626  16.220 -0.0022 -0.3113  0.1463
26092W        W42566   2.948   0.578   3.367  0.0232 -0.0683 -0.2096
26093W        W42567  14.743  12.172  12.397 -0.1858  0.2554 -0.2003
26094W        W42568  15.184   3.421  10.356  0.0785  0.3308 -0.0442
26095W        W42569  10.149  10.310   4.016  0.1065  0.0712  0.2609
26096W        W42570  11.197   9.115   1.759  0.0034 -0.2128  0.2257
26097W        W42571  16.378  12.379  11.492 -0.1796  0.0143 -0.0332
26098W        W42572  12.782   4.557   1.837  0.4024  0.1343  0.0184
26099W        W42573   0.819   8.140   4.159  0.1654 -0.2752  0.1953
26100W        W42574   1.376  12.759   5.656 -0.3332  0.0032  0.0168
26101W        W42575  12.007   7.387  16.119  0.1203 -0.0010  0.2337
26102W        W42576  13.688   1.094  11.300 -0.0436 -0.0975  0.1169
26103W        W42577   1.045  12.624  14.888  0.2997 -0.0902 -0.0818
26104W        W42578  18.319   2.502  15.118  0.0139 -0.2619 -0.0983
26105W        W42579  13.909   6.909  15.951 -0.1674  0.0806  0.0795
26106W        W42580   5.779   8.646  12.904  0.0099 -0.1308 -0.3451
26107W        W42581   5.573   2.379   1.782  0.1115 -0.0110 -0.1855
26108W        W42582   4.172  18.351  12.127 -0.2050  0.0493 -0.0083
26109W        W42583  14.166   3.690  12.595 -0.0211 -0.0181  0.1228
26110W        W42584  14.034   0.688   4.162  0.0891 -0.0529 -0.2177
26111W        W42585   1.348   9.479   3.591 -0.0184 -0.1323  0.1501
26112W        W42586   0.745  16.099   2.982  0.0842  0.2680 -0.1479
26113W        W42587   9.854   6.518   2.687  0.3314  0.0425 -0.2314
26114W        W42588   7.313  17.216  11.731 -0.2101 -0.3404  0.0043
26115W        W42589   8.159  13.602   1.823  0.2111 -0.3015  0.0654
26116W        W42590  10.344   0.427  16.154 -0.1206  0.0619  0.1586
26117W        W42591   3.539  14.570  16.325 -0.0123  0.0855  0.4629
26118W        W42592   7.581  15.168  15.477  0.0703  0.0490 -0.1236
26119W        W42593  16.656  11.999   2.213 -0.2409  0.1792  0.0260
26120W        W42594   4.802  16.756  14.620  0.1387 -0.0732 -0.1961
26121W        W42595   4.037  16.846   6.020 -0.3100 -0.3562  0.1193
26122W        W42596   2.125   6.625   2.663 -0.1828 -0.1380 -0.0120
26123W        W42597   3.216  14.361   2.333 -0.0037  0.1027  0.1078
26124W        W42598  12.893   7.532   0.942 -0.1029 -0.0290 -0.3426
26125W        W42599   2.233  11.329   4.116  0.2239  0.1974  0.1070
26126W        W42600   2.397   7.466  15.090  0.1510 -0.0943 -0.0510
26127W        W42601   4.797  11.261  14.066 -0.1560  0.0740 -0.1455
26128W        W42602  14.737  16.794  13.603  0.0575 -0.2962  0.3058
26129W        W42603   0.573  16.343   5.595  0.1649 -0.1797  0.1855
26130W        W42604  10.497  16.442  16.326  0.0266 -0.1608  0.0493
26131W        W42605   5.355   4.154   0.797  0.0177  0.2596  0.0070
26132W        W42606  18.333   2.048  14.222 -0.0587 -0.0758  0.1585
26133W        W42607  11.216  13.059  12.924  0.0104  0.0555  0.2625
26134W        W42608  11.836   8.676   3.827 -0.0180  0.3143 -0.3490
26135W        W42609   7.873   9.710  10.663 -0.0007  0.2361  0.3050
26136W        W42610   1.838  10.538  14.790  0.2894 -0.1389  0.0725
26137W        W42611  13.952  11.071   5.266 -0.0163  0.0755 -0.2376
26138W        W42612   9.639   0.771  11.875 -0.0784 -0.0328  0.2642
26139W        W42613   3.935   7.601  13.378  0.0700  0.1717  0.2249
26140W        W42614  16.050  12.570   3.738  0.1068  0.1441 -0.0218
26141W        W42615   9.166  12.023  14.390  0.1476  0.2896 -0.1919
26142W        W42616  11.895   2.286   2.287 -0.1378  0.1187 -0.0942
26143W        W42617  14.422   9.932   9.851  0.0609 -0.2592  0.0311
26144W        W42618   6.860  13.575  14.294 -0.2668  0.0036 -0.2563
26145W        W42619   5.948   7.711   4.159  0.3070  0.0019 -0.1817
26146W        W42620  13.618  10.297  15.475  0.0819 -0.1031 -0.2270
26147W        W42621  16.900  16.032  11.835  0.1056  0.0285  0.2342
26148W        W42622   7.133  13.357  14.662  0.0500  0.0500  0.2209
26149W        W42623  10.300   3.875   0.937  0.0038 -0.1928 -0.0212
26150W        W42624   4.234  11.888  10.900  0.4285  0.2292  0.0498
26151W        W42625  12.814   3.763  14.506 -0.0281  0.1034 -0.1866
26152W        W42626   1.268  17.616   2.428 -0.1008  0.1020  0.1903
26153W        W42627   4.705   8.579  15.919 -0.2711  0.1039  0.0176
26154W        W42628   5.399   6.281   0.654  0.2248  0.0693  0.1460
26155W        W42629  10.113  16.945   3.288 -0.1466  0.0558 -0.1393
26156W        W42630  15.611   8.379  14.368 -0.1551 -0.1284 -0.2015
26157W        W42631   7.847   2.214  13.136 -0.0303 -0.2154 -0.1132
26158W        W42632   7.203  11.404   3.177  0.2892  0.0766  0.1138
26159W        W42633  12.460  16.962   4.128 -0.0077  0.0452  0.0222
26160W        W42634   9.904   6.664   3.535 -0.1502 -0.2957  0.1952
26161W        W42635   2.638  13.101   3.369 -0.2800  0.4749  0.3046
26162W        W42636   4.448   4.623  13.642 -0.1284  0.1448  0.3641
26163W        W42637   3.542  11.343  13.972 -0.3823  0.0290  0.0399
26164W        W42638   2.571  14.496  13.553  0.2584  0.4921 -0.0153
26165W        W42639  15.879  15.920  13.894 -0.1812 -0.0609  0.1010
26166W        W42640  13.996  14.711   1.655 -0.0738  0.1567  0.4249
26167W        W42641   3.435   7.848  13.973 -0.0542  0.1117  0.0651
26168W        W42642   0.474  13.066   3.830 -0.1156 -0.0127 -0.2751
26169W        W42643   9.372   1.434  12.317  0.0846  0.0580  0.1486
26170W        W42644   3.842  13.900  15.488 -0.2431  0.0073 -0.1123
26171W        W42645   1.940  15.277  13.005 -0.1958 -0.1617  0.1121
26172W        W42646  11.237   7.453   3.370  0.0719 -0.2933 -0.1181
26173W        W42647  10.940  12.967  12.055  0.0837  0.0070 -0.1459
26174W        W42648   0.423  16.911   2.042  0.2382 -0.1003  0.1218
26175W        W42649  16.641   7.542   3.739  0.0383  0.0491 -0.0681
26176W        W42650   9.137  12.689  12.634 -0.3377 -0.4705  0.0143
26177W        W42651   6.072  14.303   0.534  0.0490 -0.1344 -0.0978
26178W        W42652  12.787  13.684   2.118 -0.0994 -0.3244 -0.2305
26179W        W42653  13.829   2.396   2.382  0.1145  0.1914  0.3175
26180W        W42654  13.593  11.327  13.044  0.1971 -0.1907  0.0811
26181W        W42655   4.084  12.682   2.401 -0.2042 -0.1017 -0.0270
26182W        W42656  15.548   6.753  12.734 -0.2234  0.0536 -0.1888
26183W        W42657   2.425   1.674   1.672  0.0198 -0.2219 -0.3214
26184W        W42658  17.504  13.253   2.459  0.0275  0.1352  0.0211
26185W        W42659   4.696   9.926   3.872  0.0290  0.2395 -0.2172
26186W        W42660   0.697   5.561  15.417 -0.1938  0.0472  0.1831
26187W        W42661   5.501  17.745  14.359  0.3492  0.0223 -0.0686
26188W        W42662  11.986  16.052   0.705 -0.0535 -0.0063 -0.1593
26189W        W42663   6.715   6.152  12.949 -0.0505  0.2021 -0.2221
26190W        W42664  17.965   7.384  15.860  0.1753 -0.2607 -0.1406
26191W        W42665  14.792   3.929   3.999 -0.0881 -0.2272 -0.0736
26192W        W42666   0.909  10.203  14.998  0.0210  0.2253 -0.0753
26193W        W42667   7.647  12.068  12.437 -0.1430  0.1245  0.3675
26194W        W42668   6.218   3.434   0.176 -0.0920  0.0039  0.3257
26195W        W42669  12.367   3.177   2.196 -0.2363  0.2894 -0.0819
26196W        W42670   0.110  10.800   3.784  0.1780 -0.1842  0.0200
26197W        W42671  14.703  12.389  14.727  0.1301 -0.1914 -0.3979
26198W        W42672  15.971   6.133   2.735  0.2479  0.0914 -0.0274
26199W        W42673   5.003   6.827  15.993 -0.1555 -0.0559 -0.0528
26200W        W42674  12.686   2.901   1.348  0.0496  0.2811 -0.1380
26201W        W42675   1.155   0.570  15.272 -0.2179 -0.0834  0.1421
26202W        W42676   8.613   0.434   3.892  0.0981  0.0699 -0.0298
26203W        W42677  14.021  17.487  14.432 -0.0459  0.2599  0.0115
26204W        W42678  17.511  16.874   4.778  0.0307  0.0049 -0.1686
26205W        W42679   5.537  16.529   6.006 -0.1722  0.1350  0.3503
26206W        W42680   4.060   3.048   5.460  0.1380 -0.1098 -0.0028
26207W        W42681   5.420  14.999   1.800 -0.1624  0.2154  0.0645
26208W        W42682  16.552  12.331  12.494  0.0622  0.3599 -0.2459
26209W        W42683  10.425  11.146  11.024  0.3383 -0.3157 -0.0155
26210W        W42684  13.472   7.166   4.398 -0.0490  0.0163  0.3124
26211W        W42685  14.294   1.111  15.091 -0.1412  0.3658 -0.2728
26212W        W42686  16.472   4.342   1.562 -0.3735  0.0947 -0.0404
26213W        W42687   0.657  15.451  13.819 -0.0270 -0.0754 -0.0616
26214W        W42688   1.310   9.037   1.629 -0.2388 -0.2500  0.2587
26215W        W42689  14.949   8.547   4.975 -0.0443 -0.3069 -0.1512
26216W        W42690   0.708  10.939   5.314  0.0302  0.0912 -0.0242
26217W        W42691  14.838  15.641  14.548  0.0363  0.1403  0.1682
26218W        W42692  14.462  11.590  15.860  0.0664  0.0724  0.1686
26219W        W42693  16.040  14.846   2.747 -0.6734  0.0139 -0.0584
26220W        W42694  17.518  16.476  13.598  0.1073 -0.1652 -0.0386
26221W        W42695   2.611   7.259  14.672 -0.2933  0.0091  0.2512
26222W        W42696   1.645  18.013   4.685 -0.2692 -0.0255  0.1715
26223W        W42697  11.452  14.847   2.444  0.0967  0.0479  0.3136
26224W        W42698  17.343   9.163  10.792  0.0668  0.2382  0.1102
26225W        W42699   4.741  16.260  14.948 -0.0498  0.1923  0.2012
26226W        W42700  18.350   9.563   2.435  0.0795 -0.0767  0.2515
26227W        W42701   5.641  10.711   0.738  0.0034 -0.0506 -0.3174
26228W        W42702   1.748  12.994   0.146 -0.4969  0.3031  0.2301
26229W        W42703   6.361  14.782   2.216  0.0102 -0.0109  0.0161
26230W        W42704   0.193  17.390   0.751  0.0009  0.0516 -0.2525
26231W        W42705   0.495  17.940  14.852 -0.0672 -0.1593 -0.0934
26232W        W42706  10.120   9.544  10.891  0.2227 -0.2799  0.1461
26233W        W42707   8.383  13.624   5.489 -0.1322  0.0590  0.0164
26234W        W42708  15.251  16.719  13.579  0.4817  0.0429 -0.0762
26235W        W42709   6.488   2.004   2.561  0.1644 -0.1639 -0.1797
26236W        W42710   3.497   4.149   4.335  0.1301  0.0620  0.1797
26237W        W42711   4.076  17.566   0.418  0.1395 -0.2200  0.2156
26238W        W42712   5.893   3.410   0.553  0.0899  0.4764 -0.1132
26239W        W42713   7.775  12.242  12.953 -0.1243 -0.1386  0.0419
26240W        W42714  15.922   4.363  14.673  0.1337 -0.2868 -0.1141
26241W        W42715  15.835   5.025  11.717 -0.0918 -0.0383 -0.2253
26242W        W42716  13.377   4.855   2.462 -0.1530 -0.0345 -0.0369
26243W        W42717  12.483   0.894  16.324  0.0102  0.1511 -0.2779
26244W        W42718  12.437  13.288   2.038  0.1887 -0.0751  0.0220
26245W        W42719   6.017  12.029  15.859 -0.1256  0.1218 -0.2774
26246W        W42720  16.884  11.791   5.141  0.1141 -0.0268 -0.1676
26247W        W42721   8.189   1.575   2.145 -0.1362 -0.0453 -0.3631
26248W        W42722   6.238  13.851   5.352 -0.0059 -0.3726  0.0137
26249W        W42723   9.144  14.577   2.947  0.0734 -0.2800  0.0271
26250W        W42724  11.280  17.501  14.447  0.0108 -0.3089 -0.0629
26251W        W42725   8.853   0.368  13.327  0.1328  0.2440 -0.0370
26252W        W42726  17.025  18.387  16.311  0.2217 -0.0597 -0.1035
26253W        W42727   2.365   8.660  14.429 -0.0660 -0.1605 -0.3800
26254W        W42728  10.695   6.775  14.655 -0.2794 -0.0488  0.2015
26255W        W42729  12.965   1.268   4.802 -0.0961 -0.0700 -0.0291
26256W        W42730  17.852   9.111  11.565 -0.2106 -0.1951 -0.0825
26257W        W42731   3.442   8.791   1.626  0.2836  0.2088 -0.0822
26258W        W42732   8.929   8.931  13.429 -0.2045  0.0949 -0.0086
26259W        W42733  17.461  12.857  15.549  0.0004  0.0931 -0.1338
26260W        W42734   8.814  11.185   4.965  0.2128  0.2214  0.0344
26261W        W42735   3.388   0.871   4.809  0.1821 -0.0489 -0.3495
26262W        W42736   6.358  15.741  12.927  0.0368  0.2760 -0.1236
26263W        W42737   7.031  15.309  14.764  0.4503  0.1439 -0.2580
26264W        W42738   2.048   5.605   1.906  0.1220  0.1332  0.1509
26265W        W42739   8.656  15.198  12.388 -0.0758  0.1758 -0.3574
26266W        W42740  15.014  14.370   2.013  0.2655  0.2335  0.2792
26267W        W42741   6.665  12.546   0.939 -0.0534 -0.1020 -0.1472
26268W        W42742  10.163   3.513  14.528 -0.1222  0.2188  0.0127
26269W        W42743   9.338  10.021   4.071  0.2173 -0.0091 -0.0366
26270W        W42744   0.308   1.368   4.108  0.0553 -0.3249  0.2751
26271W        W42745   2.447  13.315   2.922 -0.0221  0.2193  0.1382
26272W        W42746  14.733   7.952   2.569 -0.5064 -0.0797 -0.1256
26273W        W42747   4.456   9.490  15.499 -0.0470  0.2336  0.1124
26274W        W42748   5.235  18.271   1.002  0.1454 -0.2892  0.0989
26275W        W42749   8.572   2.265   4.575 -0.1720 -0.1117 -0.0270
26276W        W42750   5.173   0.917   0.688 -0.0311  0.2861 -0.3000
26277W        W42751   7.931   7.366  16.281 -0.3966  0.2317  0.0556
26278W        W42752   0.309   7.154  13.903 -0.0353  0.0589  0.1362
26279W        W42753   1.026  11.671   1.203  0.1019 -0.0564  0.2560
26280W        W42754   4.882   6.340   1.198  0.0973 -0.2013 -0.2729
26281W        W42755  12.349  13.031  10.533 -0.1027  0.0941 -0.4803
26282W        W42756  12.822   9.274   5.340  0.1695 -0.1388  0.1301
26283W        W42757  13.260   2.731   3.760 -0.1339 -0.2165  0.1691
26284W        W42758   2.528  10.176   4.252  0.5113 -0.1506  0.2166
26285W        W42759  10.715  16.313  15.722 -0.1857  0.0367  0.3580
26286W        W42760  13.807  10.728  11.578  0.0388 -0.1385  0.0327
26287W        W42761  17.413  18.260   5.620  0.1808  0.0894  0.0097
26288W        W42762   5.850  11.841  16.267  0.3424  0.3191  0.0784
26289W        W42763  14.286  17.784   2.705  0.2302  0.1867  0.1571
26290W        W42764  16.926  17.800   0.577 -0.0298 -0.2458 -0.1046
26291W        W42765   7.224  12.235  15.138 -0.0832  0.0139  0.0545
26292W        W42766   6.117   8.157  11.138  0.2726 -0.3142 -0.0766
26293W        W42767   5.926   7.434  12.824 -0.2013 -0.0404  0.1138
26294W        W42768   9.812   1.806   0.318  0.0008 -0.1704  0.1788
26295W        W42769   1.545  17.927  12.235  0.3187 -0.1388  0.1911
26296W        W42770  12.994   0.396  14.773  0.2750 -0.0498  0.2116
26297W        W42771  12.636  12.963  12.672  0.1103  0.4662 -0.1074
26298W        W42772   0.837   5.789   0.678  0.4083 -0.1522  0.0625
26299W        W42773  14.561   5.759   2.855  0.1196 -0.2783 -0.2418
26300W        W42774   1.168   9.587   3.132 -0.3929 -0.0988  0.3616
26301W        W42775  17.650  10.700  11.831  0.1981 -0.1509  0.0769
26302W        W42776   1.713   4.020   6.028 -0.2753 -0.2072 -0.1336
26303W        W42777  12.650  15.885   6.780 -0.1020 -0.2438 -0.4271
26304W        W42778   6.083   5.173  13.084  0.1441  0.3606  0.1387
26305W        W42779   7.235   8.367  12.355 -0.2653 -0.1602  0.1935
26306W        W42780   2.529   0.284   3.522 -0.2087  0.1388  0.0118
26307W        W42781   4.310  16.820  13.765  0.0047 -0.2659 -0.3212
26308W        W42782   7.672   5.698   4.497  0.0652  0.0812 -0.0008
26309W        W42783   1.937   8.196   2.847  0.1363  0.3593 -0.0353
26310W        W42784  18.329   1.292   1.030  0.0845  0.2111  0.1694
26311W        W42785  13.391   8.771   2.233  0.2812  0.1782 -0.4239
26312W        W42786  10.489   3.091   1.381  0.0153  0.0373 -0.1094
26313W        W42787  17.047  17.529  13.066  0.0108 -0.1251 -0.3845
26314W        W42788  16.008   4.737   3.184 -0.0417  0.0264  0.0973
26315W        W42789   0.198  14.248   4.872 -0.0358 -0.1270  0.3083
26316W        W42790   1.226  12.025  12.738  0.2890 -0.0224  0.0450
26317W        W42791   6.345   5.873  14.359 -0.0651 -0.1980 -0.1284
26318W        W42792  16.272   8.150   2.849  0.0560 -0.0644  0.0298
26319W        W42793   0.431   8.137   2.482 -0.0140 -0.0626 -0.0178
26320W        W42794  11.292   8.440  12.225  0.1825 -0.2071  0.2639
26321W        W42795   2.823  11.729   2.993  0.0322 -0.0937  0.0567
26322W        W42796   8.585   6.313   5.346  0.1044 -0.2557 -0.3383
26323W        W42797   9.312   7.349   3.090  0.0772  0.0274 -0.1666
26324W        W42798  11.019  11.713   4.461  0.1057 -0.1939 -0.0772
26325W        W42799  11.970  12.598   2.404  0.3063 -0.1081  0.2966
26326W        W42800   2.904  14.738  11.907 -0.3119 -0.1066 -0.1136
26327W        W42801   8.007   2.781  14.647  0.1146 -0.1534 -0.0517
26328W        W42802  17.792  18.272  15.665 -0.1695  0.1592  0.0033
26329W        W42803   6.525   4.987   2.724  0.0295 -0.0846  0.0493
26330W        W42804   3.426   1.087  12.627 -0.0568 -0.1043 -0.3023
26331W        W42805   9.648   7.545   3.326 -0.2318  0.0161 -0.2810
26332W        W42806  17.433   6.407   4.529  0.0147  0.0495  0.1139
26333W        W42807   2.959   9.963   1.779  0.0746  0.2284  0.0454
26334W        W42808   4.866  16.987  13.766 -0.1136 -0.2540  0.2367
26335W        W42809   8.370   0.774  16.310  0.0879  0.2407 -0.2704
26336W        W42810  17.033   6.700  12.582  0.1624 -0.0718 -0.2428
26337W        W42811   8.398   0.087  13.278 -0.2333 -0.0467  0.2504
26338W        W42812  16.580   1.910  14.005 -0.4398 -0.1533 -0.3580
26339W        W42813   7.305   7.042  13.621  0.2758 -0.1273  0.1795
26340W        W42814  18.213  17.629   3.498 -0.1628 -0.3786 -0.2858
26341W        W42815   3.946   2.983  14.916 -0.0259 -0.0962 -0.2045
26342W        W42816  12.757  15.528   6.230  0.1621  0.1767  0.1852
26343W        W42817  16.462  13.101  14.249  0.0069 -0.3062 -0.0567
26344W        W42818  11.250  10.584  10.860  0.4557 -0.3063 -0.0615
26345W        W42819  10.105   9.079  13.953  0.4478  0.1242  0.0710
26346W        W42820  14.727  14.963  13.440  0.2288  0.1967  0.0807
26347W        W42821   0.840   6.453   5.189  0.0417 -0.2541 -0.2986
26348W        W42822   5.938   3.122   2.666  0.0728 -0.1322 -0.1955
26349W        W42823  16.514  13.146  14.818  0.0542  0.0239 -0.3652
26350W        W42824  16.055   7.155   2.968 -0.1224  0.1712  0.2041
26351W        W42825   6.225   7.185   1.712 -0.5789 -0.0219  0.3101
26352W        W42826  13.472  14.794  15.676  0.1394  0.0707 -0.1327
26353W        W42827   6.151   4.602   3.969 -0.1462 -0.0834 -0.2287
26354W        W42828  10.120  17.635  13.246 -0.0059  0.0155 -0.2491
26355W        W42829  13.931   5.084   0.146 -0.2580  0.0711 -0.0106
26356W        W42830  13.709  13.439  15.891  0.0504  0.1626  0.3110
26357W        W42831   7.326  13.055  15.522 -0.0211 -0.2134  0.0336
26358W        W42832   3.880  15.693   5.125  0.2623  0.3812 -0.1423
26359W        W42833   8.682   9.340  13.745 -0.0372  0.0372 -0.0140
26360W        W42834  17.685   6.420   6.205  0.2247 -0.0029 -0.1452
26361W        W42835   3.407   3.839   1.204  0.1573  0.2220  0.2981
26362W        W42836  17.749  16.870   4.333  0.0197 -0.1403  0.2427
26363W        W42837  12.480   3.047   0.267  0.0237 -0.0098  0.1188
26364W        W42838  11.776  17.068  13.830 -0.1196  0.0747 -0.0846
26365W        W42839   0.386   6.582   1.825 -0.2113 -0.0196 -0.1409
26366W        W42840   9.218   5.313  15.129 -0.2559 -0.1040 -0.1555
26367W        W42841   6.686  12.684  11.652  0.4633  0.3376  0.0645
26368W        W42842  16.189   7.355   4.739 -0.1441  0.0563 -0.1101
26369W        W42843  12.722  10.457   0.463  0.1105 -0.2211  0.3048
26370W        W42844   1.504  15.476  13.212 -0.4324  0.1386 -0.0596
26371W        W42845   4.631  17.541   5.774  0.2196  0.0211 -0.0736
26372W        W42846  17.066   1.542   1.769 -0.0034  0.2397  0.0488
26373W        W42847   5.788   5.856  12.312 -0.2229 -0.4653  0.0670
26374W        W42848  15.260  15.971   0.802  0.3662 -0.0667 -0.0172
26375W        W42849  11.426   5.921  11.270  0.2130 -0.1547  0.0870
26376W        W42850  18.301   5.113   0.067 -0.0813 -0.0890 -0.4877
26377W        W42851   8.476  13.083   3.201 -0.1545  0.1338  0.0686
26378W        W42852  10.464   3.149   3.847 -0.3585 -0.0430  0.0028
26379W        W42853  12.183  13.793   2.392 -0.0476 -0.0386 -0.4783
26380W        W42854   2.986  11.781  12.253  0.1382 -0.0735 -0.0293
26381W        W42855  15.704   5.996  15.448  0.1723  0.3407 -0.2378
26382W        W42856  17.830  15.683   3.931  0.0556  0.4243  0.0043
26383W        W42857   5.519  12.957   2.293 -0.0751  0.1598 -0.1382
26384W        W42858   6.633  13.027  11.065 -0.0143 -0.0367 -0.3258
26385W        W42859  17.255   4.430  13.949  0.3472  0.1677 -0.1092
26386W        W42860   1.632   0.029   1.023 -0.0069  0.0681  0.1339
26387W        W42861   8.487  10.661  12.305  0.1854 -0.0464 -0.0691
26388W        W42862  14.882  16.954  15.429  0.1631 -0.1018 -0.2808
26389W        W42863   8.675   7.139   0.410  0.3494  0.0660 -0.0075
26390W        W42864  16.930  17.016   6.034  0.2703  0.1021  0.0461
26391W        W42865   6.776  13.889  15.487  0.0813 -0.3270 -0.1069
26392W        W42866   3.254  16.736   0.264  0.0890  0.3729  0.0302
26393W        W42867  17.786   7.887   5.323 -0.1992 -0.0501  0.1980
26394W        W42868   9.895  11.244  10.670 -0.2852  0.0682  0.3590
26395W        W42869  10.305  16.579   4.374  0.4941  0.0394 -0.1053
26396W        W42870   7.192   9.863  12.268 -0.4105 -0.4366  0.2917
26397W        W42871   6.862  15.742   0.433 -0.1911  0.2092  0.0812
26398W        W42872  14.849   1.251  13.087  0.0839 -0.0235  0.2639
26399W        W42873  13.563   4.203  13.617  0.0390 -0.2647 -0.2379
26400W        W42874  18.253  13.021  13.479  0.0240  0.2908 -0.0566
26401W        W42875   1.101   9.707   1.269  0.0136  0.1366  0.0998
26402W        W42876   1.906   4.147  14.080  0.0670  0.0428  0.1055
26403W        W42877  10.767   2.442  14.143 -0.1324 -0.2437  0.0991
26404W        W42878   9.716   0.107  11.114 -0.1757 -0.2098  0.0577
26405W        W42879   0.012   8.413  12.028 -0.2768  0.2027  0.0107
26406W        W42880   2.935   3.629   5.634  0.1402  0.2784  0.2000
26407W        W42881   6.056  12.211   4.398 -0.0841  0.0447 -0.1727
26408W        W42882   1.767   7.224  13.585  0.0715 -0.2236 -0.0696
26409W        W42883  16.972   8.615   2.423  0.1284 -0.1025  0.1167
26410W        W42884   6.971  15.061  13.089  0.0162  0.0814  0.1813
26411W        W42885   3.974  11.029  14.025 -0.1271 -0.2650  0.0625
26412W        W42886   1.939  15.938  13.660 -0.0298  0.1145  0.1679
26413W        W42887  11.150  15.872   2.626  0.1042 -0.1325 -0.2485
26414W        W42888   8.811   5.628  16.212  0.0749  0.0520 -0.0248
26415W        W42889   9.399  13.816   4.444 -0.1384  0.2535 -0.2079
26416W        W42890   2.891  10.459  13.379 -0.1964 -0.1984 -0.2769
26417W        W42891   5.795   1.658  14.933 -0.3409 -0.1022  0.0016
26418W        W42892  18.288  14.273  13.704  0.0726  0.0294 -0.0552
26419W        W42893  16.270   0.897   2.789 -0.2757  0.1463 -0.2516
26420W        W42894  13.015   4.942   5.594  0.1590 -0.4158  0.0301
26421W        W42895  12.044  14.844  12.401 -0.2244 -0.1540  0.3729
26422W        W42896   1.647  11.618  14.193  0.1377  0.3337 -0.2153
26423W        W42897   0.904   8.902  12.627  0.1108  0.0168 -0.2768
26424W        W42898  10.969   0.806  13.415 -0.3057  0.1141 -0.2360
26425W        W42899  15.496  17.480   4.481 -0.0846 -0.0413 -0.0888
26426W        W42900   8.765  11.965  14.010  0.3234 -0.2209 -0.1310
26427W        W42901  18.137  17.733   4.592 -0.1535 -0.1297  0.0910
26428W        W42902   4.772   6.176  12.008  0.1012  0.1371 -0.0315
26429W        W42903  10.694   8.755   5.204  0.1631  0.1614 -0.2054
26430W        W42904  11.840   3.449   3.104  0.4916 -0.0001 -0.1793
26431W        W42905   8.375   4.491   2.747 -0.1371 -0.4384 -0.0414
26432W        W42906   3.578   3.316  12.236  0.1323 -0.1313 -0.1567
26433W        W42907  14.454   3.993   2.348 -0.2034  0.1721  0.0704
26434W        W42908  10.332   0.558   5.999  0.0531  0.1588 -0.1617
26435W        W42909  12.693   2.796  14.804 -0.0538 -0.0247  0.0092
26436W        W42910  12.837   4.928  10.967  0.2110  0.1239 -0.2848
26437W        W42911  15.004   5.163  14.285 -0.3435  0.0739 -0.2077
26438W        W42912  12.669   6.771  12.086 -0.0342  0.1187 -0.1666
26439W        W42913  13.995   0.134  13.471  0.0523 -0.0404 -0.0725
26440W        W42914   8.691  18.353   5.652  0.0321  0.3374 -0.0581
26441W        W42915   9.746   8.689  11.216 -0.3210 -0.0886 -0.3445
26442W        W42916  12.818   4.993  14.439 -0.0426 -0.3291  0.0722
26443W        W42917  13.189  13.566  15.095  0.0531 -0.3097 -0.0249
26444W        W42918   7.952  14.836   4.384 -0.1700  0.0277 -0.0804
26445W        W42919   2.798  13.127   5.969  0.0768 -0.0423  0.4299
26446W        W42920   1.714  15.149  15.006  0.2986 -0.2527  0.0002
26447W        W42921   4.372  14.629  15.992 -0.4968 -0.2013  0.1117
26448W        W42922   4.034  11.659   4.463  0.1078 -0.0524  0.0464
26449W        W42923   6.604  17.342  15.407 -0.1564  0.0558  0.2248
26450W        W42924  18.084   4.590  14.380  0.1361  0.0266 -0.2548
26451W        W42925   3.895   3.508   0.931 -0.2284 -0.1077  0.2011
26452W        W42926   7.055  17.981   2.366  0.2754  0.4099  0.3656
26453W        W42927   7.285   3.191   1.623  0.3149  0.0321  0.2949
26454W        W42928  13.762   2.446   1.009  0.1649 -0.1482 -0.1016
26455W        W42929  14.937   7.471   2.263  0.1064 -0.0720  0.0318
26456W        W42930   7.471  15.750  12.781 -0.0423 -0.2606  0.0119
26457W        W42931  16.731  15.444   3.697  0.1835 -0.2655 -0.4271
26458W        W42932  12.339   9.871   1.047 -0.1927 -0.1703  0.1302
26459W        W42933   5.955   4.629   5.491 -0.2167 -0.3639 -0.0330
26460W        W42934   7.948   1.648   5.512  0.0761  0.0988  0.0281
26461W        W42935  10.078   8.148  14.209  0.0524  0.2387  0.0273
26462W        W42936   1.748   6.461   1.942  0.1615 -0.0288 -0.1202
26463W        W42937   0.334  11.465  13.479  0.0540  0.0475 -0.0872
26464W        W42938   0.951   3.584   3.879 -0.2215 -0.2296 -0.0770
26465W        W42939   4.388  18.022  15.121  0.0725 -0.2273 -0.1961
26466W        W42940  15.570   5.738  12.458  0.1914  0.0627  0.0469
26467W        W42941  10.384  17.882   5.421  0.0018  0.0665 -0.1170
26468W        W42942   8.608  13.893   2.612 -0.2752  0.0071  0.0606
26469W        W42943   7.823  11.604  13.548  0.0317 -0.0564  0.2048
26470W        W42944  15.248  13.063   1.410  0.1206  0.2122 -0.1168
26471W        W42945   8.589  15.810  11.626 -0.1417  0.0431  0.0151
26472W        W42946   7.236  15.313  12.781  0.1570 -0.0811  0.1038
26473W        W42947  10.187   6.247  15.911 -0.3725  0.3134  0.0306
26474W        W42948   1.114  10.661   0.142 -0.0396 -0.0462  0.3559
26475W        W42949  11.446  10.070  14.227 -0.1577 -0.0604 -0.1630
26476W        W42950  13.272   5.686   3.186 -0.1613 -0.0709  0.0328
26477W        W42951   6.953   6.087   3.817  0.0297 -0.3341  0.1764
26478W        W42952   9.678  17.890  12.389  0.3110 -0.1074  0.1948
26479W        W42953   1.462   6.572   3.929  0.2629  0.0891  0.4403
26480W        W42954   3.597  13.169  11.510 -0.1943  0.1707 -0.4432
26481W        W42955  14.206  16.620   3.181  0.0310 -0.0252 -0.2324
26482W        W42956  14.732  14.298   1.012 -0.0664  0.0795  0.0094
26483W        W42957   1.722   5.846   0.036  0.1196 -0.0017  0.0854
26484W        W42958   1.893  15.218   3.178 -0.1182  0.1786 -0.1029
26485W        W42959  16.079  13.507  15.014  0.1366 -0.2235 -0.0444
26486W        W42960   1.912  11.268   3.729 -0.0376  0.0704  0.5357
26487W        W42961   1.058  17.726   0.485 -0.2112  0.1526  0.2411
26488W        W42962   8.138   8.644   4.091  0.3314 -0.1341 -0.1421
26489W        W42963   0.323  12.621   2.750 -0.2231 -0.0388 -0.0126
26490W        W42964  13.152   6.302  12.759  0.1822  0.0861 -0.0153
26491W        W42965  10.228  15.648  15.146  0.0965  0.2354 -0.0960
26492W        W42966  16.959  12.781   2.121  0.1087  0.0552  0.0872
26493W        W42967   3.876  10.768  11.545 -0.1845  0.1040 -0.1495
26494W        W42968   6.542   3.994   3.501  0.0341 -0.1347  0.1022
26495W        W42969  10.527  17.003  12.300 -0.2617  0.1079 -0.0109
26496W        W42970  12.785   0.206   2.392 -0.0041 -0.2152 -0.0175
26497W        W42971   7.517   3.710  14.580  0.0648 -0.1700 -0.1809
26498W        W42972  11.230   0.131  12.796  0.1298 -0.0528  0.0678
26499W        W42973  14.322   3.275   0.304 -0.5271  0.2550 -0.0775
26500W        W42974   7.225   4.136  12.652 -0.1780  0.1775  0.1213
26501W        W42975   9.083   0.292   4.884 -0.0122  0.3452 -0.4645
26502W        W42976  12.539   8.778  15.555 -0.4088  0.0522 -0.0614
26503W        W42977   4.589   4.017  16.055 -0.1929 -0.0974 -0.1097
26504W        W42978   8.537   4.968  13.157 -0.1358 -0.2540 -0.1777
26505W        W42979   7.246  12.820   4.272  0.0837 -0.3224  0.1251
26506W        W42980   2.747  15.887  15.537 -0.0252 -0.0086 -0.1187
26507W        W42981  12.989  16.506   2.451 -0.0423 -0.3008  0.1589
26508W        W42982  15.107   7.271  15.947 -0.3951  0.6752  0.1938
26509W        W42983   7.988   5.289   1.436  0.0399  0.0065 -0.0629
26510W        W42984   6.609   0.022  14.955  0.2642  0.3227  0.0681
26511W        W42985  12.172   0.503   2.893  0.1651  0.4074 -0.2555
26512W        W42986  14.415   6.711  12.543 -0.0094  0.0530  0.2515
26513W        W42987  12.131  12.929  14.999 -0.0627 -0.2151  0.2097
26514W        W42988  17.005   7.428  14.514  0.0256  0.3619 -0.0549
26515W        W42989   0.752  12.666  13.350 -0.0452 -0.0459  0.3282
26516W        W42990  13.919   7.771  12.822 -0.2415  0.1121 -0.0329
26517W        W42991  18.095   6.022  15.649  0.2959  0.2136 -0.3436
26518W        W42992  12.045   3.874   1.716  0.0171  0.1984 -0.0411
26519W        W42993   9.508  12.682  11.624 -0.1434 -0.0162  0.2404
26520W        W42994   1.054   7.512   4.668 -0.0798  0.0794 -0.1461
26521W        W42995   0.495  16.767  15.266 -0.2084  0.0178 -0.2290
26522W        W42996   6.242   1.957   0.323  0.1677 -0.2155 -0.0515
26523W        W42997  10.684   8.462   1.298  0.3363  0.1133 -0.1934
26524W        W42998   9.340  12.260  14.776  0.0074  0.0952  0.0869
26525W        W42999  16.765   2.404  13.247  0.0234  0.1562 -0.1062
26526W        W43000  18.355  13.939  11.398  0.0967 -0.0471  0.2840
26527W        W43001   5.224  12.319   2.253  0.0756  0.0665 -0.0263
26528W        W43002   3.345  14.761   5.327 -0.1357 -0.2050  0.1725
26529W        W43003   3.282   3.550  14.023 -0.1975 -0.1110 -0.3434
26530W        W43004   5.856  14.879   1.506 -0.1197  0.1412  0.0528
26531W        W43005  15.099  11.999  13.604 -0.0525 -0.0400  0.3096
26532W        W43006   8.227  17.512   3.323  0.2306 -0.0919 -0.1161
26533W        W43007   4.470  10.003   1.543  0.2135 -0.0114  0.0411
26534W        W43008   7.929   3.771  12.023 -0.2962 -0.1884 -0.2207
26535W        W43009  11.389  15.872  13.143  0.1401 -0.3857 -0.0820
26536W        W43010  12.611   7.008  12.983  0.2359 -0.0288 -0.0565
26537W        W43011  18.267  15.510  15.117 -0.1303  0.2839 -0.3109
26538W        W43012  16.243  15.178   1.359  0.1020 -0.0929 -0.1144
26539W        W43013  15.522  13.275   2.815  0.2882  0.0116  0.1191
26540W        W43014   1.285  17.193   4.764  0.0735  0.2114  0.2681
26541W        W43015   5.672   6.332  11.309 -0.2700 -0.1419  0.4126
26542W        W43016  12.517  16.281   2.442 -0.0828 -0.0363  0.0919
26543W        W43017  14.512   8.388   1.136  0.1960  0.5384  0.1038
26544W        W43018  17.068   0.739  12.740 -0.0480 -0.1251  0.2484
26545W        W43019  10.745   3.199  11.458  0.1892  0.0548 -0.1193
26546W        W43020   2.521   6.968  13.359 -0.4736 -0.0308  0.1518
26547W        W43021  10.819  10.799   4.900  0.0485 -0.0743 -0.2029
26548W        W43022   7.518   5.345  13.244  0.1737  0.1132 -0.0566
26549W        W43023   7.998   1.488  14.909  0.3007 -0.2229 -0.1805
26550W        W43024   4.192   4.699   4.186 -0.0466 -0.0715 -0.2678
26551W        W43025  13.713  15.662  15.253  0.2353  0.0679 -0.2165
26552W        W43026  16.534   5.668  12.358 -0.0716  0.1955 -0.3591
26553W        W43027  14.119   1.163   4.739 -0.1181 -0.0271 -0.0497
26554W        W43028  13.024  16.857   0.587  0.0455 -0.1637  0.0507
26555W        W43029  11.698   2.831  12.138  0.1534 -0.0762  0.0259
26556W        W43030  10.634  11.370   4.717  0.1306  0.1590 -0.0012
26557W        W43031   2.784   8.482  14.738  0.0330 -0.0555  0.0374
26558W        W43032  14.164  12.833  14.732 -0.0870 -0.0035  0.2016
26559W        W43033  15.353   6.980  13.141  0.0154 -0.1033  0.0859
26560W        W43034   2.237   0.547   4.047  0.2819  0.0474 -0.0952
26561W        W43035   8.237   7.863   3.638 -0.0211  0.0240 -0.3951
26562W        W43036  10.516  15.149  13.596 -0.1636  0.0579 -0.1604
26563W        W43037   9.717   7.238  14.544  0.1131  0.0657 -0.0450
26564W        W43038   3.801  10.522   2.138 -0.0461  0.1667 -0.0237
26565W        W43039  14.991   7.720  16.238 -0.2945 -0.2024 -0.0939
26566W        W43040   0.211  18.359   2.453 -0.1087 -0.0740 -0.2140
26567W        W43041   0.154   9.829   3.619  0.0619 -0.3754  0.0198
26568W        W43042  12.517   6.357   3.118  0.1911 -0.3364  0.4011
26569W        W43043   7.799  13.164   2.469  0.4206 -0.2423  0.2561
26570W        W43044  17.105  15.685  14.010  0.1198  0.1982 -0.1066
26571W        W43045   3.050   5.152  11.954  0.0150 -0.1232 -0.1341
26572W        W43046  16.937  13.388  16.251  0.0414  0.0938  0.2526
26573W        W43047   1.871   3.940   2.290  0.2396 -0.0960 -0.0788
26574W        W43048   3.263  10.790  15.830  0.2530 -0.2798  0.1379
26575W        W43049  10.619  10.356   0.353 -0.0326 -0.2194  0.0317
26576W        W43050  17.674   9.435  15.098  0.0936  0.2144  0.2373
26577W        W43051   8.138   7.950   2.099  0.1254 -0.0196  0.2706
26578W        W43052   8.662  14.014   3.957  0.0526 -0.1163 -0.1528
26579W        W43053  17.433  12.826  16.341 -0.0145 -0.0054 -0.0308
26580W        W43054   9.769   3.637  13.079  0.1528 -0.0761  0.1254
26581W        W43055   0.466   1.299  14.820 -0.1134 -0.2209  0.0229
26582W        W43056   5.502  15.218  13.437 -0.4052  0.0020 -0.0633
26583W        W43057  15.662  13.079  11.713  0.1818 -0.0754  0.1209
26584W        W43058   8.309  14.902  12.943 -0.1088 -0.0844 -0.1381
26585W        W43059   4.163  16.470   1.035  0.0406 -0.1756 -0.1181
26586W        W43060  13.575  12.225   5.853  0.4183 -0.0050  0.1816
26587W        W43061   4.541   8.589   1.183 -0.4062  0.1202 -0.2518
26588W        W43062   3.610  16.793   5.822  0.2084  0.0791 -0.0523
26589W        W43063  14.875  17.663  12.784 -0.2794  0.0153  0.0791
26590W        W43064  16.134  13.419   1.376  0.0036  0.0874  0.0978
26591W        W43065  12.144   2.094  11.098  0.0027  0.0436  0.1057
26592W        W43066   0.585   3.549  15.267 -0.1645 -0.0066  0.2872
26593W        W43067  13.985  14.163   3.122  0.0328  0.0637  0.2611
26594W        W43068  14.054   9.351   4.215  0.0905 -0.1279 -0.0512
26595W        W43069  15.966   4.113   0.304 -0.0827  0.2577 -0.2467
26596W        W43070  14.159   9.863  14.839 -0.2028 -0.3381  0.1158
26597W        W43071   6.879   5.420  12.804 -0.1339 -0.0053  0.2075
26598W        W43072  15.392   8.185  10.610 -0.1642 -0.2468  0.1096
26599W        W43073  11.835   8.607  16.011 -0.0480 -0.1841  0.3917
26600W        W43074  14.917  12.157   1.134  0.0570 -0.0625 -0.2016
26601W        W43075  13.043  16.517  14.683 -0.3149  0.1146 -0.0661
26602W        W43076   3.456   7.120  14.283  0.1530  0.2384 -0.4648
26603W        W43077   2.577  12.748  15.089  0.1709 -0.2289  0.1782
26604W        W43078  18.284   8.784   0.286  0.1129 -0.2896  0.0037
26605W        W43079   1.064   5.896  11.991 -0.1085 -0.2401 -0.1042
26606W        W43080   9.651  15.203   3.243  0.0567 -0.1247 -0.1770
26607W        W43081   1.139  14.910   2.758  0.0363 -0.2263 -0.0658
26608W        W43082   8.005   8.206  16.030 -0.0831 -0.1814 -0.2693
26609W        W43083   6.923  14.302  14.494  0.1357  0.2001  0.1069
26610W        W43084  10.556  12.170  13.039 -0.1852 -0.0171 -0.0610
26611W        W43085   1.380   5.199   2.186  0.1397 -0.4679  0.3202
26612W        W43086  10.432  13.848   1.197  0.1432 -0.1131  0.1429
26613W        W43087  16.585   3.348  12.290  0.2659  0.0765 -0.1185
26614W        W43088   6.094   9.044  12.440 -0.0760 -0.0660 -0.0118
26615W        W43089   1.927  16.013   5.635 -0.3116  0.1259 -0.2134
26616W        W43090  10.729  10.914   0.259  0.1898 -0.3587  0.1937
26617W        W43091   2.226   6.956  13.798 -0.0440  0.1659 -0.0054
26618W        W43092  11.305  17.436   1.464  0.2041  0.0009  0.1507
26619W        W43093  14.774   0.090  14.380 -0.1114  0.2868 -0.1626
26620W        W43094   8.849   2.225   1.274 -0.0163  0.0318  0.0079
26621W        W43095   2.374   2.652   1.242 -0.3493  0.1970  0.2566
26622W        W43096  13.372  15.354  12.718 -0.0691  0.2596 -0.1693
26623W        W43097  13.305   3.752  11.568  0.0586 -0.0525 -0.1825
26624W        W43098  10.166   3.524   0.586 -0.0908  0.1673 -0.0203
26625W        W43099  14.545   2.595  12.469 -0.0312 -0.2452  0.1465
26626W        W43100  10.155   2.460   1.419 -0.1009 -0.1078  0.0770
26627W        W43101  11.771  16.056   3.318  0.0611 -0.2548  0.2096
26628W        W43102  11.203   2.872   0.566 -0.0629 -0.0837  0.2694
26629W        W43103   3.596  15.618  15.925 -0.1308 -0.0245 -0.1266
26630W        W43104   6.194  17.416   5.164 -0.1613  0.3650  0.0045
26631W        W43105   0.271  12.003   5.316 -0.0838  0.0966  0.0770
26632W        W43106   4.207   8.617  13.890  0.0811  0.0359 -0.1222
26633W        W43107  15.488   2.016   2.281  0.0445  0.2389 -0.0974
26634W        W43108  11.745  11.684  11.726 -0.1948  0.1214  0.1072
26635W        W43109  16.896   3.123  10.749  0.1083 -0.1209 -0.1613
26636W        W43110   7.154   5.990  13.565  0.4055  0.2574 -0.1157
26637W        W43111   4.883   6.207   0.655 -0.2162  0.1778  0.1033
26638W        W43112   2.712  13.778   0.763  0.1803 -0.0848 -0.2080
26639W        W43113   8.631  18.197   0.090 -0.0392 -0.0577  0.1173
26640W        W43114   6.635   5.143  15.059  0.1465 -0.2492 -0.0668
26641W        W43115   3.825  12.635   1.891  0.1320 -0.2451 -0.0788
26642W        W43116   9.831   6.001   2.611  0.0563  0.0596  0.0240
26643W        W43117   8.107   2.741   1.512 -0.3388 -0.0623  0.3659
26644W        W43118   3.453   6.429  10.975 -0.0612  0.2215  0.0272
26645W        W43119   3.122   0.214   6.109  0.0752 -0.0246 -0.1403
26646W        W43120   2.657  16.654   5.675 -0.1434 -0.0924 -0.2581
26647W        W43121   6.935  17.011   5.166 -0.4111  0.1144 -0.1630
26648W        W43122  17.796   7.241  11.734  0.2180 -0.0802  0.1284
26649W        W43123   6.435   0.397   0.388  0.1614  0.1433 -0.4111
26650W        W43124   8.913   4.938  13.506  0.2304  0.2154 -0.0226
26651W        W43125   7.231   7.107  11.971  0.0813  0.1449  0.0753
26652W        W43126   9.586   1.479   2.046  0.1185  0.2209 -0.2877
26653W        W43127   9.307   0.403   3.154  0.2634 -0.0022 -0.2076
26654W        W43128  17.996  14.522   0.535 -0.1795 -0.2644  0.1010
26655W        W43129  14.637   6.397  12.848  0.0979 -0.1322 -0.0556
26656W        W43130   8.114   1.549  13.902 -0.2479  0.0548 -0.2624
26657W        W43131   1.229  16.525   2.299  0.0636  0.0773 -0.0184
26658W        W43132   5.972   9.062   2.995 -0.0710 -0.1407  0.0854
26659W        W43133  10.010   4.210   4.827  0.2023  0.1000 -0.2026
26660W        W43134   2.938  14.389   1.048 -0.1154  0.2951 -0.0566
26661W        W43135   6.493  13.032   5.426  0.1161  0.1357  0.3453
26662W        W43136   3.684  11.340   1.406  0.0292 -0.2375  0.0980
26663W        W43137  10.499  15.790  11.604 -0.2051 -0.4417  0.0870
26664W        W43138   5.231   5.397  15.201 -0.0676 -0.1702 -0.1791
26665W        W43139  10.853   9.011   0.645 -0.1564  0.1207  0.0187
26666W        W43140   8.099   9.611   4.223 -0.2971  0.0177 -0.2718
26667W        W43141   7.779   7.161  13.323  0.1676 -0.0149  0.0531
26668W        W43142  13.495   4.217   4.363 -0.2776  0.0121 -0.0604
26669W        W43143  15.354  16.207   0.291 -0.0725 -0.1064  0.2125
26670W        W43144   8.689  11.809  14.511 -0.1085 -0.4701  0.0658
26671W        W43145  12.721  15.939  13.301  0.2794 -0.0592 -0.1327
26672W        W43146   7.276   6.178  14.566  0.2160 -0.0476  0.0141
26673W        W43147   6.838   2.928   5.348  0.2195  0.2115 -0.1839
26674W        W43148  13.668  12.374   1.239 -0.1179  0.1153 -0.1007
26675W        W43149  12.850  12.249   4.478  0.1932 -0.0704  0.0891
26676W        W43150  15.249  16.255  12.328 -0.0415  0.0139 -0.1229
26677W        W43151   0.204   1.529  12.136 -0.1977 -0.1875  0.0825
26678W        W43152   4.633  10.395   2.994 -0.2056 -0.1960 -0.1154
26679W        W43153   5.851   3.777  11.199 -0.0311  0.1462 -0.2825
26680W        W43154  15.281   7.073  15.351  0.1154 -0.0060  0.1150
26681W        W43155  11.109   7.777   4.435 -0.0392 -0.0668 -0.2298
26682W        W43156   5.858  10.025   5.152  0.1044  0.0836  0.3322
26683W        W43157  14.489  13.616  15.635 -0.0925  0.3396  0.0954
26684W        W43158  14.970  17.518   4.928  0.0587  0.1608  0.1780
26685W        W43159  11.605  16.251  14.360  0.3060 -0.0037  0.2380
26686W        W43160   5.729  15.319  11.728 -0.2629  0.0878 -0.2788
26687W        W43161  13.681   2.421   1.892 -0.1148  0.1335  0.2094
26688W        W43162   6.490   1.444   2.324 -0.0088 -0.2352  0.1290
26689W        W43163   0.978  18.008  16.264 -0.2860 -0.3241  0.1782
26690W        W43164  11.419  15.606   3.105  0.1696  0.0154 -0.1494
26691W        W43165   3.065  13.579   3.115 -0.1493 -0.1571 -0.1838
26692W        W43166   3.836  10.759   1.416 -0.0656  0.1270 -0.1220
26693W        W43167   6.631   1.955  15.504 -0.1957  0.0842  0.1304
26694W        W43168  14.435  14.264   3.386 -0.0609 -0.0548 -0.1263
26695W        W43169  15.624   4.093  12.974  0.0265  0.0028  0.1263
26696W        W43170  12.246  10.577   0.278  0.2559  0.1832  0.0408
26697W        W43171  17.403   0.615  13.609 -0.1294 -0.1086  0.2108
26698W        W43172  11.844  14.112   5.276 -0.4657  0.2527 -0.0673
26699W        W43173  11.918   3.185  15.456  0.1821  0.2483 -0.3496
26700W        W43174   4.643  11.185  14.712 -0.1831  0.0500  0.0054
26701W        W43175  15.386   6.095  13.506  0.0121  0.0590  0.3855
26702W        W43176  11.794   8.583  13.020 -0.0144  0.2359 -0.2449
26703W        W43177   3.186  10.137   1.239 -0.4034 -0.1526 -0.1091
26704W        W43178   9.252   8.703   3.285  0.1418 -0.1327  0.0853
26705W        W43179  17.071  15.500  12.189  0.0968  0.0557 -0.3094
26706W        W43180   3.509   6.537  11.476 -0.3352  0.1481 -0.3148
26707W        W43181   4.058   3.153  13.543  0.1918 -0.1615  0.4465
26708W        W43182   4.586  14.865   1.968 -0.0305  0.0730 -0.2421
26709W        W43183  11.256   1.166   4.280 -0.0544 -0.2476  0.0966
26710W        W43184  12.149   2.841  13.798  0.0258 -0.3055 -0.4647
26711W        W43185   6.942   2.878  15.661  0.1449  0.3105  0.1722
26712W        W43186  11.529  10.433   4.238 -0.0667  0.3453  0.0115
26713W        W43187   6.377   6.973   2.706  0.2303  0.0291  0.0265
26714W        W43188  13.471   9.046   4.956 -0.1725  0.0834 -0.0498
26715W        W43189  15.550  16.778   6.349  0.0515  0.3313 -0.0308
26716W        W43190  12.605  13.476  13.910  0.0154 -0.0296 -0.0343
26717W        W43191   9.508   2.337   0.109  0.2207 -0.0552  0.0571
26718W        W43192   1.696   1.863  14.313 -0.0441  0.1598 -0.0415
26719W        W43193  17.613   6.184  13.059 -0.0547 -0.0673 -0.3224
26720W        W43194  15.993   3.488  13.542 -0.0840 -0.0891 -0.2796
26721W        W43195   6.416  13.108   4.876 -0.0632  0.1790  0.1700
26722W        W43196  15.783  11.240   0.100  0.2291 -0.1166 -0.2486
26723W        W43197   2.353  17.721   3.792  0.4186 -0.1620 -0.2420
26724W        W43198  14.344   0.206   2.442 -0.1232 -0.1429  0.2320
26725W        W43199  11.438   6.466   1.507 -0.0756  0.1669 -0.0365
26726W        W43200   1.799   7.378  15.029 -0.2292 -0.1426  0.0398
26727W        W43201  12.098   1.844   5.112 -0.2070 -0.0579 -0.1191
26728W        W43202   1.620  14.578  12.001  0.0783  0.5311  0.3490
26729W        W43203   9.054   0.379   3.643  0.3780 -0.0405 -0.2175
26730W        W43204   5.515  16.173   5.697 -0.2895 -0.0896  0.0645
26731W        W43205  16.828  12.585  11.505 -0.0343 -0.2597 -0.2465
26732W        W43206  11.665  15.212   0.587 -0.2875  0.1623 -0.1516
26733W        W43207  14.433   4.071  12.571 -0.2266  0.1455  0.0776
26734W        W43208  12.696  14.764   5.796 -0.1098  0.0198 -0.1376
26735W        W43209  15.453   3.740  12.102 -0.1757 -0.0910 -0.0467
26736W        W43210   2.457   8.409   4.892  0.2361  0.1606  0.1840
26737W        W43211   5.773   0.172   3.809  0.3171 -0.2754 -0.0134
26738W        W43212  11.309  13.308  14.522  0.2063  0.2119 -0.0807
26739W        W43213  15.692   0.080  15.253 -0.0381 -0.0900 -0.2666
26740W        W43214   3.886  12.255  14.841  0.0417 -0.1268 -0.0148
26741W        W43215  12.914   8.903   0.919  0.0834 -0.0436 -0.2606
26742W        W43216  17.004  12.617  15.530  0.1264 -0.0740  0.0158
26743W        W43217  14.966   6.581  15.352  0.0341 -0.0714 -0.0058
26744W        W43218   7.161   7.011  12.752  0.2785 -0.0066 -0.1476
26745W        W43219   2.395  15.200   4.939 -0.1395  0.1818  0.0538
26746W        W43220   5.321  15.458  12.092  0.1803  0.1666 -0.1666
26747W        W43221  16.772   8.624   1.916 -0.0300 -0.3167  0.0043
26748W        W43222   2.228  10.731  13.023 -0.1999  0.0067  0.0466
26749W        W43223   9.713   2.304   0.588  0.0634 -0.0461  0.0270
26750W        W43224   5.511   9.924  11.548 -0.0303  0.2041  0.0971
26751W        W43225  13.485  12.661   5.142  0.1762 -0.0120 -0.2345
26752W        W43226  12.260   6.057  15.314  0.0757  0.0532  0.0724
26753W        W43227   2.784   0.391   0.572 -0.3141 -0.2282  0.1857
26754W        W43228  13.261   5.585  15.498 -0.5197 -0.1667 -0.0912
26755W        W43229  12.503  13.463  13.163 -0.1021 -0.0477  0.1691
26756W        W43230  15.122   5.778   2.186  0.0296  0.0080 -0.1726
26757W        W43231   9.457  12.657   5.570  0.1627 -0.2581  0.1023
26758W        W43232   2.589  13.631   3.313 -0.4361 -0.2167  0.2262
26759W        W43233   0.616   1.579   3.780  0.2120 -0.0808  0.4775
26760W        W43234   0.788   4.368  15.488 -0.1603  0.0093 -0.0193
26761W        W43235  14.046  10.810  12.201 -0.2563 -0.3000 -0.0309
26762W        W43236  14.797   8.786   3.524 -0.2424  0.0817  0.3120
26763W        W43237  17.209   4.122   3.710 -0.0103 -0.0018  0.2739
26764W        W43238   0.443   3.282  12.211  0.4012 -0.0006  0.0623
26765W        W43239   8.700   0.044   1.109  0.4666 -0.2122 -0.4433
26766W        W43240   8.556   7.065  11.506 -0.2691 -0.0339 -0.3606
26767W        W43241  13.747  17.498  10.444  0.0198  0.0068  0.1607
26768W        W43242   5.712   1.785  15.851 -0.0376 -0.1061 -0.1834
26769W        W43243  17.865  13.483   2.715  0.1312 -0.1979 -0.0134
26770W        W43244   8.255   5.968   2.031 -0.2930  0.1054 -0.4835
26771W        W43245   6.954  10.204  16.079 -0.2515 -0.2550  0.0858
26772W        W43246  18.078  18.289   4.493 -0.0875  0.2494 -0.0574
26773W        W43247  17.186  13.637   3.290  0.2383 -0.6850 -0.2039
26774W        W43248   1.556   8.909  13.171  0.3032  0.0552 -0.3090
26775W        W43249   6.888   5.930  16.074  0.1111  0.2191  0.2666
26776W        W43250  14.702   2.109   2.033  0.3353 -0.2497 -0.1244
26777W        W43251  12.547   0.517   4.294 -0.1594 -0.1445  0.2496
26778W        W43252  14.449  15.516  12.979  0.1090 -0.3053  0.5145
26779W        W43253  16.210   4.221   1.118 -0.1463 -0.2910  0.3329
26780W        W43254  14.926  17.270   4.544  0.0231  0.2584  0.2775
26781W        W43255   4.218  13.044   2.792 -0.1049  0.0122 -0.1397
26782W        W43256  11.122   4.797  13.108 -0.1129 -0.2947  0.0870
26783W        W43257   0.841   0.846  13.062  0.2427  0.1421 -0.1792
26784W        W43258   6.756   2.853  13.727  0.0146  0.3360 -0.2126
26785W        W43259   7.335  15.530   1.668  0.0327  0.0870  0.1373
26786W        W43260  16.185   6.015  14.609  0.3625 -0.0948 -0.1249
26787W        W43261  14.160  10.243   1.373 -0.1442 -0.3407 -0.1190
26788W        W43262   5.818  12.522   5.415  0.2161  0.1755  0.2758
26789W        W43263  14.725  14.599  11.125  0.2079 -0.1476 -0.3463
26790W        W43264  11.697  16.302   1.017 -0.0567  0.1710  0.1257
26791W        W43265  15.585  17.992  12.049  0.1319 -0.4669 -0.0098
26792W        W43266  17.884   0.378   4.370 -0.2166 -0.1339 -0.1332
26793W        W43267   1.771  17.988  15.467 -0.1940 -0.0339 -0.0243
26794W        W43268   5.194   4.145  14.637 -0.1826  0.0273 -0.0502
26795W        W43269  17.772   3.930  12.164  0.0247  0.0510 -0.3169
26796W        W43270   1.815   4.230  12.952 -0.1965  0.0819  0.2284
26797W        W43271   6.768  13.578   4.260 -0.1595 -0.4376 -0.0647
26798W        W43272   2.074  14.805   2.850  0.5422  0.0907 -0.1681
26799W        W43273  15.486  11.302   3.683 -0.0547 -0.1473  0.2703
26800W        W43274  16.438   3.439   0.539 -0.0789  0.3307 -0.0101
26801W        W43275  15.934  14.000  15.239  0.0187 -0.0332  0.1232
26802W        W43276   3.416   8.527   5.071  0.1106  0.0366 -0.1483
26803W        W43277   1.361   4.932   3.078 -0.0771 -0.0061  0.1464
26804W        W43278   3.215   3.616   1.621 -0.4694 -0.1463  0.0478
26805W        W43279   6.672   7.822  13.662 -0.1148 -0.2816  0.1678
26806W        W43280   8.779   6.682  12.743 -0.0011  0.0802 -0.2389
26807W        W43281   8.968   0.319   6.188 -0.1468  0.1873 -0.1111
26808W        W43282   9.879   0.503   0.029  0.2675  0.0520  0.1687
26809W        W43283  17.584   4.166  15.955 -0.0111  0.2964 -0.1987
26810W        W43284   7.127  16.615   4.909  0.1587 -0.1250 -0.4394
26811W        W43285   5.230  14.414   4.665 -0.0894  0.1472 -0.1360
26812W        W43286   8.834   4.865  12.268  0.1091  0.2577  0.1091
26813W        W43287  17.090   3.289  15.530 -0.0710  0.0448  0.1309
26814W        W43288   9.233   3.623  12.850  0.1280  0.1732  0.2430
26815W        W43289   8.540   7.534   4.152  0.2533  0.2257 -0.0177
26816W        W43290   4.376  13.612  12.457 -0.0314 -0.1600 -0.0478
26817W        W43291  17.834   3.535  14.540 -0.1003 -0.0670  0.0712
26818W        W43292   4.710   5.910  11.522 -0.0219  0.1908 -0.1956
26819W        W43293  13.827   5.622   4.308  0.6127  0.0976  0.2678
26820W        W43294  13.913  18.379   2.234 -0.1645 -0.0653 -0.1542
26821W        W43295   9.570   5.496  14.813 -0.1733 -0.2905 -0.2183
26822W        W43296  14.064   0.442  13.854 -0.0982  0.1642 -0.2457
26823W        W43297  11.986  12.404  12.081 -0.0264  0.1344  0.1549
26824W        W43298   9.810   4.258   3.304 -0.0158 -0.0309 -0.1888
26825W        W43299   9.537  12.213  12.550  0.2868  0.0052 -0.1168
26826W        W43300  16.552   9.033   1.671  0.3634 -0.1490  0.3863
26827W        W43301  11.020  10.014  15.104  0.2595 -0.2682  0.0021
26828W        W43302  15.723   2.190   3.045  0.3049 -0.2063 -0.0527
26829W        W43303  11.937  16.540  13.606 -0.0186 -0.2981 -0.0932
26830W        W43304   0.452   6.117  14.215 -0.2621 -0.2930 -0.0595
26831W        W43305  16.802  10.476  12.002  0.2021 -0.3166 -0.0114
26832W        W43306   7.748  14.592   5.617  0.2592  0.1002 -0.0575
26833W        W43307   4.683  11.722   3.259 -0.0027  0.0661 -0.0149
26834W        W43308  15.425  16.757  14.927  0.1472  0.1829  0.1076
26835W        W43309   9.779   0.718   6.115 -0.0072 -0.1958 -0.1626
26836W        W43310   4.769   1.787  12.495 -0.0301  0.1295 -0.1406
26837W        W43311   3.288   7.341  13.891 -0.1250 -0.1572 -0.2527
26838W        W43312   3.030   3.658  14.441  0.0301 -0.0602 -0.0286
26839W        W43313  17.161  15.004  13.314 -0.1831 -0.1726 -0.1080
26840W        W43314   4.440   5.589  15.236 -0.2290  0.1468 -0.1087
26841W        W43315  11.225  16.539  14.307 -0.1260 -0.1276  0.0036
26842W        W43316  16.515   2.934  14.412 -0.2049  0.0722  0.0425
26843W        W43317  13.622   7.841  12.408 -0.3020  0.0280 -0.0908
26844W        W43318   3.073   6.912   2.580 -0.1264 -0.4088  0.0297
26845W        W43319   6.581   8.257   2.993 -0.3742 -0.0325 -0.1288
26846W        W43320   3.938  16.744  14.997  0.2516  0.2193 -0.1105
26847W        W43321  13.637   4.644   4.023 -0.0768  0.0690 -0.0074
26848W        W43322  12.234  15.142   0.934 -0.2827  0.0477  0.0363
26849W        W43323  10.037   9.557  16.199  0.1690 -0.0083 -0.0569
26850W        W43324  14.877  12.309   2.101  0.3621 -0.2091 -0.0626
26851W        W43325   9.924   7.597  11.389 -0.2268 -0.2285 -0.1254
26852W        W43326   5.211  17.658  11.885  0.0454  0.3299  0.0124
26853W        W43327  13.712  13.420  15.237  0.1732  0.1803  0.1492
26854W        W43328   8.824  15.180   2.045  0.2152 -0.1462 -0.1954
26855W        W43329   7.669   7.382  11.576  0.2127  0.3680  0.0380
26856W        W43330   7.457   6.498   1.395  0.0120 -0.0745  0.1058
26857W        W43331  16.043  13.440  13.581  0.2823 -0.1076 -0.2060
26858W        W43332  15.753  16.752  15.310 -0.1356 -0.0878  0.1779
26859W        W43333  15.698  16.457   4.935  0.2048  0.2469 -0.2732
26860W        W43334   2.885   9.856  12.866 -0.2786  0.3235  0.0008
26861W        W43335  16.760   0.371   6.605  0.0694  0.1544 -0.5486
26862W        W43336  14.638  17.729   5.636 -0.0145 -0.0645  0.1533
26863W        W43337  17.652  17.580   4.958 -0.0956 -0.1521 -0.1239
26864W        W43338  11.119   4.331  16.073 -0.2739 -0.3180 -0.3458
26865W        W43339   1.135  16.561  12.122 -0.0586  0.1078 -0.1398
26866W        W43340   8.880   8.817   2.989 -0.0827  0.1144 -0.4652
26867W        W43341   2.873  11.698   5.793 -0.1530  0.3144 -0.0056
26868W        W43342   9.991  14.013   4.445  0.2339  0.1510 -0.3220
26869W        W43343   7.720   5.000   3.804 -0.1258 -0.0605 -0.3880
26870W        W43344   0.289  14.286   2.901 -0.0010  0.4090  0.0211
26871W        W43345   0.205  10.386  16.312  0.1581  0.0795 -0.1169
26872W        W43346  16.245  17.545   2.981 -0.1428 -0.2118  0.2564
26873W        W43347   2.061   2.985   1.248  0.0258 -0.1214 -0.3405
26874W        W43348  13.537  13.923  12.632  0.0281  0.3863  0.0651
26875W        W43349  10.129  17.418  14.291  0.0255 -0.0030  0.2654
26876W        W43350   7.828   1.993  12.724  0.0563 -0.2752  0.0216
26877W        W43351  11.940  11.682  13.364  0.0002 -0.2688 -0.0877
26878W        W43352  10.827   4.484   4.455  0.1961 -0.0015  0.0972
26879W        W43353   0.881  13.622  16.087 -0.1522  0.3905  0.0054
26880W        W43354   9.709  16.521  13.456 -0.1192 -0.0637 -0.5900
26881W        W43355   2.247  11.346  16.297  0.1379 -0.2599  0.0817
26882W        W43356  10.526   8.328  12.385  0.0170  0.2302  0.1905
26883W        W43357  16.373  14.898  14.728  0.2333 -0.1539  0.2497
26884W        W43358  12.775  10.583   0.993 -0.1539 -0.0119  0.0294
26885W        W43359  16.596  13.775  13.533  0.0063  0.0102  0.0561
26886W        W43360  12.737   2.338  14.646 -0.1651  0.0875 -0.0399
26887W        W43361   0.511   3.857  11.096  0.0026  0.1755 -0.1236
26888W        W43362  18.186  17.406  13.465  0.2617  0.1094  0.2282
26889W        W43363   9.568  16.912  10.900  0.1716  0.0466 -0.2002
26890W        W43364   9.061   6.553  14.466  0.0659 -0.0708  0.0530
26891W        W43365  14.124  11.400   0.402 -0.1473  0.0395  0.0903
26892W        W43366  12.870  13.618   5.107 -0.0208 -0.0633 -0.1676
26893W        W43367   1.564  10.622   5.555 -0.2441 -0.0066 -0.1003
26894W        W43368   0.528  12.244   2.449 -0.1797 -0.0314  0.1080
26895W        W43369  14.554  14.944  13.922  0.0243 -0.1155 -0.0807
26896W        W43370   1.471   6.993  13.188 -0.1728 -0.1363 -0.1672
26897W        W43371  11.740  18.385   0.963  0.2676 -0.1442  0.0385
26898W        W43372   4.590  11.718  14.634 -0.3466 -0.0404 -0.0684
26899W        W43373  11.905   1.725   0.051  0.2841 -0.1230  0.2507
26900W        W43374   9.224  11.207   1.518  0.3084 -0.0934 -0.1110
26901W        W43375  12.034   4.488  15.531  0.2018 -0.3999  0.0922
26902W        W43376   2.523  14.158   3.226  0.0507  0.2200 -0.1217
26903W        W43377  16.582  16.689   0.688 -0.1268 -0.1225  0.2935
26904W        W43378   5.564   6.816  15.299 -0.4229  0.2397 -0.1864
26905W        W43379   8.847  16.588   0.502 -0.0348  0.0414 -0.2330
26906W        W43380  18.149  16.170   1.223  0.0478  0.1308  0.0854
26907W        W43381   9.382   5.339  12.436 -0.0850 -0.0578  0.0089
26908W        W43382   6.502   1.569   5.501  0.0512  0.1021 -0.1013
26909W        W43383  16.099   8.224  15.704  0.0117 -0.0102 -0.0765
26910W        W43384  11.263   2.221  11.747  0.1562 -0.2793 -0.0483
26911W        W43385  14.436   9.089  10.347  0.3079  0.1493 -0.1027
26912W        W43386   8.535  13.725   2.120 -0.1027 -0.1917 -0.0006
26913W        W43387   1.397  13.751  13.395 -0.0351 -0.1574  0.0113
26914W        W43388  10.013   2.705  13.686  0.3689 -0.4385  0.3817
26915W        W43389  14.455   0.404  14.487 -0.0492 -0.2639 -0.1234
26916W        W43390   7.238  16.508   0.525 -0.0053  0.0959 -0.0336
26917W        W43391   0.477   0.025  14.436 -0.3459 -0.0464 -0.0829
26918W        W43392   5.395  12.585  13.387  0.0937  0.2464 -0.0417
26919W        W43393   5.108  13.875  15.150  0.0950  0.1453  0.2649
26920W        W43394  15.846   2.894   3.062  0.2504  0.1228 -0.0407
26921W        W43395   2.145  10.628   5.051 -0.1324 -0.0051  0.2723
26922W        W43396   2.549   6.897  10.755  0.1128 -0.0955  0.2295
26923W        W43397  17.535   5.050   2.816 -0.0889 -0.0702 -0.3169
26924W        W43398   7.798  13.123   3.350 -0.0652  0.0842 -0.1711
26925W        W43399  14.761   6.830   3.120 -0.1382 -0.0011 -0.0233
26926W        W43400  14.789   2.522   0.748 -0.1113 -0.0098  0.0171
26927W        W43401   8.661   4.739   0.758 -0.2304 -0.1262  0.1595
26928W        W43402  15.790  12.089   0.387 -0.0480 -0.1259 -0.0334
26929W        W43403  15.691   4.249   4.534  0.0651  0.0101  0.1909
26930W        W43404   4.823   5.092   4.932 -0.4556 -0.2630  0.0452
26931W        W43405   0.596  10.803   5.903 -0.1674  0.0600 -0.2573
26932W        W43406   9.106   3.192   3.920  0.1737  0.3225  0.2691
26933W        W43407   0.164   5.163  13.100 -0.1584  0.5443 -0.0443
26934W        W43408   0.121   1.544   1.893 -0.2382 -0.2739 -0.0075
26935W        W43409   3.255   2.780  11.936  0.1616  0.1084 -0.0570
26936W        W43410  15.324   8.476  15.623 -0.3088  0.3164  0.1746
26937W        W43411  10.521  14.292  15.757 -0.1441 -0.0285 -0.3981
26938W        W43412  14.379   3.811   9.927  0.0423 -0.2632 -0.0175
26939W        W43413  14.248  14.523   4.833 -0.1241  0.0879  0.0262
26940W        W43414   7.168   9.709   2.525 -0.0711 -0.2156 -0.0153
26941W        W43415   3.599  14.891   0.383 -0.3974 -0.0656 -0.0357
26942W        W43416   7.167  12.530  14.760 -0.0660  0.3740 -0.1148
26943W        W43417   0.387   4.674  13.964 -0.2624  0.0473  0.0792
26944W        W43418   9.574   2.803   2.010  0.1628 -0.2973 -0.0481
26945W        W43419  14.163   2.999   3.078  0.0151 -0.1052  0.0607
26946W        W43420  12.957   7.557  14.913 -0.2000 -0.1603 -0.0514
26947W        W43421  12.248   0.391  11.721 -0.2106  0.0782  0.1717
26948W        W43422   6.258   5.625   4.812  0.1849 -0.0880  0.0026
26949W        W43423   1.509  17.409  14.033 -0.2683  0.1760  0.0108
26950W        W43424   1.104  12.859  13.705  0.1561 -0.1320  0.1783
26951W        W43425  17.967  12.827   2.027 -0.1624 -0.1124  0.3021
26952W        W43426  11.736   6.602  10.551  0.0131  0.1992 -0.2539
26953W        W43427  11.435   6.421  13.086 -0.0227 -0.1085  0.0788
26954W        W43428   0.730   8.273  14.958  0.1807 -0.1961  0.2506
26955W        W43429   8.119   4.790  12.344 -0.0352  0.0036  0.0064
26956W        W43430   6.783   8.207   1.250  0.0745 -0.0912 -0.0620
26957W        W43431  11.562  13.248   3.653 -0.2823  0.0903 -0.2160
26958W        W43432  15.981   8.050  11.988 -0.1611  0.0801 -0.0531
26959W        W43433   0.943  17.829   1.074 -0.0060  0.0432  0.0575
26960W        W43434   8.734   1.129   3.966 -0.0883 -0.1353 -0.0199
26961W        W43435  13.408  10.435   3.616  0.0215 -0.1894 -0.1358
26962W        W43436  16.040   2.266   1.351 -0.0169 -0.1290  0.0054
26963W        W43437   2.738   6.154   1.707 -0.2383  0.0488  0.0547
26964W        W43438   9.760  17.894   3.524  0.0075 -0.2590  0.0662
26965W        W43439   0.632   3.783  12.956  0.1834 -0.0177 -0.3469
26966W        W43440   3.843  11.517   5.739  0.3147  0.1036  0.1802
26967W        W43441   7.741   9.123   5.097  0.0075 -0.4328 -0.0494
26968W        W43442   8.687  11.558   1.897 -0.0650 -0.2688 -0.2822
26969W        W43443  12.014   7.737   0.897  0.2693 -0.0905  0.0392
26970W        W43444  15.715   4.347   1.200 -0.2113  0.2209 -0.1098
26971W        W43445  10.531   5.048  15.289 -0.2244 -0.4201  0.0324
26972W        W43446   3.709   8.715   0.486  0.1714 -0.5206  0.2410
26973W        W43447  10.869  10.614   5.395  0.2889 -0.0944  0.2906
26974W        W43448   8.122   5.011   2.884 -0.1450 -0.0306 -0.1024
26975W        W43449  11.074   9.157  13.504 -0.0518 -0.0030 -0.4867
26976W        W43450  17.455   7.240   3.806 -0.5498  0.1992  0.1005
26977W        W43451   2.902  17.679  15.399 -0.1211  0.1790 -0.0214
26978W        W43452   5.145   0.867  12.040 -0.2032  0.0617  0.0476
26979W        W43453   9.473  17.757   5.035  0.4038 -0.0487 -0.2658
26980W        W43454   8.023  17.861  14.612  0.0955 -0.1626 -0.0469
26981W        W43455  11.409  12.426   0.509 -0.2045  0.2938  0.4950
26982W        W43456  10.041   4.480  11.982  0.1582 -0.0350  0.1841
26983W        W43457   7.983   1.873   4.811  0.0455 -0.0223  0.0844
26984W        W43458   3.289   3.352  15.083  0.1213 -0.0023  0.3511
26985W        W43459  14.843  15.343   3.675 -0.1791 -0.0057  0.0161
26986W        W43460  12.806   3.623  15.006 -0.0489 -0.0242 -0.0268
26987W        W43461  11.668   3.347   2.470  0.2911 -0.1563 -0.3234
26988W        W43462   9.922   6.456  15.454 -0.1883  0.0335  0.0921
26989W        W43463   3.230   3.295   3.781  0.0706 -0.2289  0.0836
26990W        W43464   9.468   1.260   3.870 -0.1005 -0.5250  0.0613
26991W        W43465   0.519   5.150  14.568  0.1532  0.3899  0.0021
26992W        W43466   7.873  14.426  12.253 -0.1280  0.3968 -0.0507
26993W        W43467  12.319  13.276   5.710 -0.1087 -0.1856 -0.3861
26994W        W43468   9.526  11.280  14.430 -0.1413  0.1015 -0.2401
26995W        W43469  13.414   1.648  13.466  0.0030  0.2030 -0.1430
26996W        W43470   8.493  14.218   1.880  0.0876  0.2003  0.0948
26997W        W43471  18.180   2.886   0.986  0.3121 -0.0412 -0.2806
26998W        W43472   4.606  16.365  13.554 -0.1139  0.1056 -0.1939
26999W        W43473  11.548   3.853  13.396  0.0488 -0.0538  0.1024
27000W        W43474  15.272   4.821  14.496  0.0714  0.0295 -0.1802
27001W        W43475  12.000   4.853  12.798 -0.2196 -0.2307  0.2502
27002W        W43476  16.810   3.829   1.779 -0.0702 -0.0009 -0.1291
27003W        W43477   1.094   6.718   0.196 -0.3450  0.2136  0.3961
27004W        W43478   3.145  14.344  12.897  0.2225 -0.0635  0.1410
27005W        W43479   3.124   8.142   4.806 -0.1971  0.2558  0.1999
27006W        W43480   2.501  14.411   4.736 -0.0790 -0.0577  0.1477
27007W        W43481  11.011   4.678   2.109 -0.2042  0.2527  0.1641
27008W        W43482  13.940  16.014   1.096 -0.0574  0.2306 -0.0867
27009W        W43483  14.588  15.116   0.897  0.1243  0.2434 -0.2482
27010W        W43484   5.562   2.257   3.041  0.0957 -0.4523  0.0031
27011W        W43485  17.288   6.689   1.435  0.0752 -0.0854  0.0083
27012W        W43486  15.506   3.120  11.940 -0.0990  0.1168 -0.1644
27013W        W43487   6.812   8.800  12.661  0.0925  0.0428 -0.2882
27014W        W43488   1.518   3.421   0.816  0.2419 -0.0125  0.0032
27015W        W43489  15.449   2.786  14.076 -0.1110  0.0716  0.2000
27016W        W43490  17.870   0.097  12.286 -0.1947  0.0764 -0.1964
27017W        W43491  13.527  13.944   1.410  0.2552 -0.0776  0.4667
27018W        W43492   7.764  18.326   3.296  0.0489  0.1270 -0.3788
27019W        W43493  15.819   7.876  14.449  0.0074  0.2033  0.0588
27020W        W43494  10.941   2.015   4.247  0.0152 -0.0414  0.0296
27021W        W43495  13.607   0.626   0.393 -0.1920 -0.1638  0.1460
27022W        W43496   7.704  18.105  11.800 -0.3107 -0.1736  0.1408
27023W        W43497   0.305   9.296  15.782  0.0467  0.1844  0.1451
27024W        W43498   7.599   2.133   5.441 -0.0448  0.3617  0.1377
27025W        W43499  18.156  11.707  14.560 -0.0001  0.0683 -0.2665
27026W        W43500  11.080  10.620   1.973 -0.2468  0.0418 -0.0961
27027W        W43501  15.895  10.383   2.755 -0.0077 -0.2798 -0.0799
27028W        W43502   0.514  14.970  14.010 -0.0422 -0.2481  0.1651
27029W        W43503  14.800  17.322   5.387 -0.0205 -0.0375  0.0094
27030W        W43504   4.393   6.045   1.783  0.0205 -0.2605  0.0084
27031W        W43505  16.354  16.382   2.088 -0.0157  0.0294  0.1956
27032W        W43506  16.427   9.755  14.467 -0.0149  0.0018 -0.0464
27033W        W43507   7.042  12.763   2.314  0.2519  0.0967 -0.1241
27034W        W43508   6.782   7.198  11.770  0.1729 -0.1289  0.1552
27035W        W43509   9.564   8.809  15.023  0.0048  0.0944  0.3169
27036W        W43510   5.293  16.237   1.564  0.0387  0.0856 -0.0658
27037W        W43511   5.684  16.978   2.293 -0.1421 -0.0777 -0.0168
27038W        W43512   5.107   3.689  15.790 -0.0403  0.2812 -0.0489
27039W        W43513   6.850  13.997   4.663  0.0922 -0.0022  0.0733
27040W        W43514  14.025   4.427   0.413  0.0251 -0.0199 -0.2164
27041W        W43515  14.212  14.061  11.684  0.0158  0.2066  0.0302
27042W        W43516  15.713   2.692   0.610 -0.2631 -0.2360  0.1350
27043W        W43517  17.906   0.941   0.972  0.0654 -0.0692 -0.1162
27044W        W43518  17.496   1.447  14.743 -0.0003  0.1357  0.1356
27045W        W43519   7.143   5.831   3.300 -0.1504  0.2831  0.1080
27046W        W43520  13.606   9.852  14.883 -0.2690 -0.1315  0.0848
27047W        W43521  16.073   8.759  11.336  0.0776  0.1684  0.2250
27048W        W43522  17.674   1.117   4.684 -0.0430  0.3552  0.0341
27049W        W43523   4.002   8.829  13.451  0.2373  0.0925 -0.1641
27050W        W43524  17.487  14.201  13.418 -0.0102  0.3212  0.0601
27051W        W43525  10.748  11.600  12.273 -0.0488  0.2534 -0.1711
27052W        W43526  11.330   4.443   3.460 -0.0256  0.2212 -0.1511
27053W        W43527   9.870  15.140  16.286 -0.1271 -0.2722 -0.0564
27054W        W43528   9.674  18.023  15.301  0.2487  0.1008 -0.1556
27055W        W43529  14.779   7.225  16.332 -0.2827 -0.4093 -0.0740
27056W        W43530   4.363   0.936   1.142 -0.0604 -0.0120 -0.0692
27057W        W43531  12.450  14.487   0.587  0.0468 -0.2083  0.0041
27058W        W43532   9.012  13.092   1.843  0.2175 -0.0906 -0.1754
27059W        W43533  10.831   0.891   4.435  0.0439  0.2008 -0.1426
27060W        W43534   7.520   1.109  14.946 -0.0714 -0.0173 -0.3458
27061W        W43535  16.718   1.095  13.007  0.1522  0.1428  0.0573
27062W        W43536   3.031  15.678  11.038  0.0928 -0.0287  0.0996
27063W        W43537  15.483  17.761  11.619 -0.2983 -0.1980  0.0743
27064W        W43538   1.494   1.088   2.799  0.0012  0.0276  0.0520
27065W        W43539  16.639  11.180  14.352 -0.1801  0.1058 -0.0560
27066W        W43540   7.533   9.883   2.869 -0.0061  0.0649  0.1319
27067W        W43541  11.666   7.038  15.017 -0.2708 -0.1422 -0.1548
27068W        W43542   1.972   0.858  14.008 -0.2126  0.1201  0.3569
27069W        W43543  10.635  13.349   4.495  0.0040 -0.1082 -0.2321
27070W        W43544  11.607  13.554  12.156  0.1485  0.2483 -0.0988
27071W        W43545  12.368   4.621   0.026  0.0044  0.0843 -0.1259
27072W        W43546   5.215  11.706   1.015  0.1806 -0.0862  0.1429
27073W        W43547   0.483  12.434   0.354 -0.0180 -0.0684  0.2958
27074W        W43548   3.963   1.975  15.468 -0.0057  0.1191  0.1135
27075W        W43549   7.098  16.542   3.332  0.0216  0.2784 -0.2193
27076W        W43550  16.699   2.475   4.619 -0.1016 -0.0922  0.0794
27077W        W43551   9.095   6.653  13.906 -0.0288  0.0260 -0.1631
27078W        W43552  13.305   5.089  13.783  0.1193 -0.2498 -0.2652
27079W        W43553   9.788   8.872   1.522  0.0101 -0.0020 -0.1032
27080W        W43554  14.744  10.449   2.641  0.0343 -0.0272  0.0130
27081W        W43555   6.944   3.909   3.818 -0.0020  0.2352 -0.0776
27082W        W43556   1.748   6.171  14.022 -0.2983  0.0912  0.2441
27083W        W43557   9.454  11.820   3.232  0.0763  0.0111 -0.1581
27084W        W43558   9.597   6.327  14.472  0.1824  0.2116  0.1035
27085W        W43559  10.792  16.444  13.978  0.0107 -0.0605 -0.1815
27086W        W43560   4.462  12.451   4.235 -0.3022  0.3128 -0.0191
27087W        W43561   0.303   4.027   3.809 -0.0912  0.1120 -0.3077
27088W        W43562  12.331  13.036   2.436 -0.1264  0.0653 -0.4991
27089W        W43563   0.704  17.653   3.196 -0.1468  0.0581 -0.0151
27090W        W43564   3.452  16.094  13.005 -0.1720 -0.2984 -0.2803
27091W        W43565   9.223   9.831  10.819  0.0100  0.0322  0.3569
27092W        W43566  11.453   4.901   4.950 -0.0863  0.0692  0.1072
27093W        W43567  12.621   3.713   5.090 -0.0385  0.1158 -0.0024
27094W        W43568   2.036  10.122  11.839 -0.0359  0.4265 -0.0322
27095W        W43569   6.314   3.448   3.424 -0.0142  0.0442 -0.3749
27096W        W43570  11.945  17.034  13.288 -0.0967  0.1059 -0.2710
27097W        W43571   7.202  15.538  14.341  0.1603  0.2416  0.0631
27098W        W43572   5.625   2.927   5.321  0.1010 -0.2746 -0.2274
27099W        W43573  15.127  13.836  14.907  0.0771 -0.3106 -0.1134
27100W        W43574  12.761   9.633  12.708  0.0771 -0.4158 -0.0590
27101W        W43575   0.351   4.217   2.032 -0.3468 -0.2860  0.1052
27102W        W43576   5.981  16.396  12.412 -0.2051  0.1697  0.0467
27103W        W43577   2.210   9.684   3.305 -0.0024 -0.1251  0.0029
27104W        W43578  12.973  12.608   3.014  0.1174  0.3879  0.0532
27105W        W43579   9.438  12.667   4.329 -0.0201 -0.0718 -0.0978
27106W        W43580  14.942   0.131   5.608 -0.0531  0.3606 -0.1693
27107W        W43581  14.784   4.266   3.576 -0.0217 -0.4051  0.2990
27108W        W43582   4.699  11.912  12.002 -0.4618 -0.0771 -0.2247
27109W        W43583   4.142  11.709   1.236  0.1334  0.1816 -0.1436
27110W        W43584  14.529  11.648   3.268  0.1220 -0.1225  0.0239
27111W        W43585   0.334   5.704   4.846 -0.0268 -0.0601  0.0338
27112W        W43586   9.911  15.328   4.219  0.0514 -0.0127 -0.0399
27113W        W43587   2.850   4.735   4.884 -0.0264 -0.3661  0.1049
27114W        W43588  11.308  13.261  11.870 -0.0519  0.1930  0.2353
27115W        W43589  11.836   2.122  15.793  0.1230 -0.2655  0.1404
27116W        W43590   0.081  15.611  16.341 -0.1906 -0.0296  0.2406
27117W        W43591   9.405  17.569   0.672 -0.0580  0.3704  0.3845
27118W        W43592  11.207  14.665  15.234 -0.2050  0.2905  0.1019
27119W        W43593   9.227   4.541  15.643  0.0447 -0.1400  0.2574
27120W        W43594  16.798   1.032   5.439  0.0957 -0.3693  0.2545
27121W        W43595  16.133  15.506  14.007 -0.1721  0.0690  0.2805
27122W        W43596   5.926  16.295   1.603  0.0171 -0.0263 -0.0669
27123W        W43597  16.441   7.801  13.462  0.3124 -0.0119 -0.1808
27124W        W43598  12.249  16.727   2.649 -0.0094  0.2646 -0.0289
27125W        W43599  14.044   4.485   4.930  0.1792 -0.1609  0.0517
27126W        W43600   2.946   6.992  16.316 -0.1168 -0.3977 -0.1710
27127W        W43601   5.369   2.450  15.717  0.0961  0.1121 -0.0130
27128W        W43602  13.940  14.043   5.144  0.0438  0.2242 -0.2255
27129W        W43603  12.337  14.510   3.654  0.0516 -0.2345  0.0543
27130W        W43604  12.044  12.143  15.091 -0.1674  0.1245 -0.1611
27131W        W43605  12.068  13.805  12.197 -0.0883 -0.2645 -0.3661
27132W        W43606  10.098   0.553  15.696 -0.1147  0.1237  0.0125
27133W        W43607  14.570   1.117  12.115 -0.3617 -0.3475 -0.1185
27134W        W43608  15.727   9.590   3.696  0.2672 -0.1419  0.0798
27135W        W43609   3.685   8.070  16.105  0.0635  0.1797  0.2087
27136W        W43610  13.886  13.131  11.957  0.1236  0.6896 -0.1308
27137W        W43611  13.272   9.223  10.343 -0.1799  0.1777  0.4407
27138W        W43612  15.387   6.625  14.207  0.1425 -0.0655  0.0237
27139W        W43613  11.899  13.021   2.731 -0.0280 -0.2825 -0.0819
27140W        W43614   3.699   1.128  15.303  0.0945 -0.3545  0.2283
27141W        W43615  15.455   1.390  13.443  0.0374  0.3587  0.0258
27142W        W43616   3.836  17.995   3.333 -0.1490  0.2157 -0.0130
27143W        W43617  14.199   8.580  14.331 -0.1209 -0.2404  0.1113
27144W        W43618  14.440  13.001   3.964 -0.0401 -0.1612  0.1446
27145W        W43619  10.768   2.085  12.089  0.0746 -0.2706  0.0223
27146W        W43620   0.303   5.130   5.262 -0.2093  0.2678 -0.1463
27147W        W43621  14.788   8.872  14.243  0.2679 -0.1594  0.0301
27148W        W43622  11.590   0.001  15.102  0.0149 -0.2774  0.2011
27149W        W43623  17.005   5.689  13.609  0.1393  0.1302  0.0267
27150W        W43624   8.788   5.046   2.697 -0.0316 -0.1384  0.2365
27151W        W43625  10.959  13.715   0.034 -0.2076  0.1386  0.2940
27152W        W43626  13.165  14.528   5.636 -0.3164  0.2588  0.0381
27153W        W43627   5.250   6.483   3.764  0.1204 -0.1398  0.1703
27154W        W43628   2.072   8.243   2.385 -0.0731  0.0099  0.1386
27155W        W43629  13.589   3.339  14.166 -0.3055 -0.2138  0.2132
27156W        W43630  17.553   8.655   1.323  0.0667 -0.0687  0.0584
27157W        W43631   0.823   5.974  13.801  0.4265 -0.2093  0.1915
27158W        W43632   5.705   6.100   1.941  0.0146 -0.0301  0.3402
27159W        W43633   5.755  10.905  14.718  0.1146 -0.0045  0.0835
27160W        W43634  14.702  13.561  11.801  0.0440 -0.0227 -0.2995
27161W        W43635  14.282  14.042   5.583  0.2632 -0.1064 -0.1318
27162W        W43636  15.906   0.399   5.050 -0.1374 -0.0342  0.0314
27163W        W43637  16.487   0.166  12.622  0.0555 -0.1216  0.3308
27164W        W43638   8.996   6.208  12.835 -0.1697  0.1124  0.1311
27165W        W43639  12.157   0.354  14.839 -0.3014 -0.1604  0.1634
27166W        W43640   1.539  10.160  13.150  0.1135  0.1874 -0.1086
27167W        W43641   5.487   9.896   1.218  0.0107 -0.2912 -0.2084
27168W        W43642   3.631  13.237  10.991  0.3418 -0.1595  0.0096
27169W        W43643   1.955   8.216  11.559 -0.2658 -0.0553 -0.1800
27170W        W43644  18.073   1.285  12.166 -0.3274 -0.0924 -0.1144
27171W        W43645   0.378  13.011   5.325 -0.0737 -0.0391  0.1050
27172W        W43646  10.422   3.156  11.947  0.1109  0.0122  0.0638
27173W        W43647  12.945  14.305  13.738  0.0521 -0.1226 -0.2057
27174W        W43648   8.726  16.888  14.464 -0.2001 -0.1350 -0.0487
27175W        W43649  10.877  10.466   3.223 -0.0402  0.0461  0.2165
27176W        W43650  14.750   5.013  15.937 -0.2586  0.2764  0.1753
27177W        W43651  16.872   5.867  12.672  0.2837  0.0498  0.0873
27178W        W43652  13.022   8.011  12.202 -0.1035 -0.3344  0.3951
27179W        W43653   4.235   1.633   4.206 -0.0958 -0.0645 -0.2631
27180W        W43654   3.690  12.401  12.338 -0.3128  0.1254  0.0429
27181W        W43655  17.964  17.969   6.379 -0.0620 -0.0320 -0.1345
27182W        W43656   9.765   8.132   2.700 -0.2508  0.0289  0.2643
27183W        W43657  12.814   6.306   0.507  0.3301 -0.1739 -0.1585
27184W        W43658   0.600  13.369  14.008 -0.1297 -0.0786 -0.0473
27185W        W43659   1.735   7.539   4.344 -0.4335 -0.0238 -0.2098
27186W        W43660  14.773   4.754  14.363 -0.2001  0.2156  0.3130
27187W        W43661  14.130   4.999  15.331  0.1626  0.0373 -0.1917
27188W        W43662  17.074  12.836   3.647 -0.0598 -0.2159  0.1183
27189W        W43663  17.595  10.134   1.181 -0.0240 -0.0118  0.0174
27190W        W43664   5.237   1.835  12.318 -0.0732  0.1344  0.0548
27191W        W43665   6.089   0.678   0.721  0.0074 -0.0173  0.2649
27192W        W43666  10.211  17.610   3.514 -0.0532 -0.1836 -0.0432
27193W        W43667   1.441  15.699   4.736  0.0337  0.0673  0.0178
27194W        W43668   3.071  13.548  11.706 -0.0990  0.0983  0.1582
27195W        W43669   0.282  17.893   5.810  0.1329  0.1515 -0.0098
27196W        W43670   3.519   6.134   0.889  0.0050 -0.0743  0.0397
27197W        W43671  14.385   1.153  12.586  0.1403 -0.1123 -0.1511
27198W        W43672  17.739   7.919   0.416 -0.0484  0.1415 -0.0206
27199W        W43673  13.376  13.268  11.648 -0.0958  0.3422  0.0976
27200W        W43674  12.501  15.680  13.722  0.0445  0.1008 -0.0807
27201W        W43675  12.663  15.214  11.342  0.1634 -0.0097 -0.1403
27202W        W43676  17.521  11.486  15.205 -0.1156  0.0340  0.0093
27203W        W43677   1.944  15.523   2.005 -0.0144  0.2750  0.0960
27204W        W43678   3.119   5.207  13.444 -0.1289  0.2546 -0.3711
27205W        W43679  12.228   6.602  11.668 -0.3660 -0.0908 -0.0900
27206W        W43680  11.173   1.734  11.717  0.2396 -0.3037  0.0726
27207W        W43681   8.573  17.877  15.656  0.2431 -0.0018 -0.0664
27208W        W43682   2.921  13.767  13.817 -0.1771 -0.0482 -0.0256
27209W        W43683   4.264   3.167   1.895 -0.1102 -0.3475 -0.0924
27210W        W43684   0.659   3.862  15.616 -0.3738  0.2939  0.2389
27211W        W43685   4.170  17.984   2.918  0.1871 -0.3505  0.0509
27212W        W43686  15.033  12.378   0.725  0.2996 -0.0165  0.2015
27213W        W43687  18.207  11.353   1.544 -0.1045 -0.2389 -0.0850
27214W        W43688  11.220   2.725  14.327 -0.1208  0.0310  0.0495
27215W        W43689   4.593   4.806  14.974  0.2031 -0.3031  0.2264
27216W        W43690   4.153  18.328  13.853  0.1054 -0.1644  0.2927
27217W        W43691   7.093   0.860  16.026  0.0980  0.0512  0.0381
27218W        W43692  13.204  14.368  15.690 -0.2376  0.2194  0.0083
27219W        W43693   2.156  17.916   4.628 -0.3034 -0.0823  0.1692
27220W        W43694   7.006  12.259   2.080 -0.0029 -0.0079  0.0936
27221W        W43695   5.736  14.363  12.099 -0.4058 -0.1077  0.1028
27222W        W43696   7.575  16.454   3.032 -0.1187  0.1109 -0.0600
27223W        W43697   4.816   9.658  12.460  0.3784  0.0272  0.3510
27224W        W43698  17.585   6.579   2.870  0.0948 -0.2088  0.1022
27225W        W43699   8.303  10.534   1.035 -0.1022  0.1586  0.4843
27226W        W43700   0.692  17.575  12.309  0.0403 -0.2515  0.2243
27227W        W43701   6.301   9.689  11.215 -0.1024 -0.0027  0.0067
27228W        W43702  16.016  16.322  15.406 -0.0019  0.0897 -0.0490
27229W        W43703  17.604  10.853  12.620  0.2703 -0.3311  0.0832
27230W        W43704   1.257   5.789   0.364 -0.2553 -0.1271  0.2094
27231W        W43705   1.629   3.382  16.262 -0.1764  0.1575  0.1218
27232W        W43706  10.929   9.134   3.505 -0.1228 -0.0621  0.0088
27233W        W43707  17.429  17.365   2.193 -0.3565  0.1837  0.0963
27234W        W43708   0.145  11.634   0.158 -0.0979 -0.1834  0.1633
27235W        W43709   6.291   8.136   5.290 -0.2843 -0.2224  0.1866
27236W        W43710  16.798   7.177  16.286  0.0310  0.2048  0.1869
27237W        W43711   0.585   2.162   4.587 -0.3869 -0.4764  0.0258
27238W        W43712   6.451   0.936   6.771  0.0341 -0.0828 -0.1223
27239W        W43713  16.783  10.515  13.783  0.2883 -0.2188  0.2272
27240W        W43714   6.722   0.968   1.535 -0.0242  0.0609  0.0937
27241W        W43715  12.857  10.236  16.295  0.1170 -0.0570 -0.2397
27242W        W43716  13.324   2.866  14.051 -0.2170 -0.0489 -0.0186
27243W        W43717   4.012   5.596  12.421  0.2393 -0.0510  0.1339
27244W        W43718  16.029   7.036  14.787  0.1128  0.1173 -0.4771
27245W        W43719   7.052   7.762   1.519 -0.1339 -0.1557  0.0580
27246W        W43720  11.356   6.844   1.827  0.1121 -0.0563  0.2384
27247W        W43721  11.989  13.582   3.821  0.0825  0.0059 -0.0722
27248W        W43722   7.084  17.376  12.122 -0.1136 -0.3483  0.2000
27249W        W43723   8.384   9.761  14.395 -0.0541  0.1052  0.1854
27250W        W43724  14.511   8.480  13.799 -0.3111  0.0625  0.1924
27251W        W43725  12.737   9.895  11.698 -0.0462 -0.3575  0.0968
27252W        W43726  12.386  12.130  13.112  0.1702 -0.1900  0.0902
27253W        W43727  15.808   9.175  14.013  0.0482  0.1134 -0.0123
27254W        W43728   3.332  11.852  14.640  0.0329 -0.2745 -0.1305
27255W        W43729  17.420   8.844   9.890 -0.1894  0.3098  0.1240
27256W        W43730  14.164  14.553   5.373 -0.1728  0.0536  0.0620
27257W        W43731   0.732  10.798  12.027  0.3080 -0.1349 -0.0301
27258W        W43732   3.012   5.098   0.087 -0.4320  0.2326  0.2306
27259W        W43733   9.105  18.178  16.242  0.2676  0.0602 -0.1889
27260W        W43734   9.547  17.021  13.451 -0.0094  0.2079 -0.1170
27261W        W43735  17.326  15.841  11.801  0.1606 -0.0497  0.0159
27262W        W43736  12.720   9.086  13.942 -0.0523 -0.0233  0.2739
27263W        W43737  15.695   4.572   0.750  0.1483  0.2599 -0.0784
27264W        W43738   0.187   4.684  15.640  0.1229 -0.2294  0.2355
27265W        W43739   3.212  15.061  13.555 -0.3593  0.2080  0.0575
27266W        W43740  10.213  15.889   3.254 -0.2979 -0.0183 -0.0330
27267W        W43741  13.741  12.063  14.830  0.2759 -0.1405 -0.0608
27268W        W43742   8.582   8.746  16.024  0.1399 -0.0477 -0.1676
27269W        W43743  17.260  10.213   1.709  0.0360 -0.0041 -0.2055
27270W        W43744   1.371   4.855   3.679  0.0520  0.2067 -0.1119
27271W        W43745  17.947   0.332  15.542  0.0684  0.1496 -0.2936
27272W        W43746  15.857   2.544   5.368 -0.1391  0.1327 -0.1799
27273W        W43747   7.372   4.617   1.872  0.1238  0.0667 -0.0182
27274W        W43748  16.759   0.267   3.364 -0.1455 -0.0202  0.1990
27275W        W43749   7.542   4.172   1.241  0.0886  0.3143  0.0090
27276W        W43750  14.567  17.641   1.078 -0.1484 -0.2393  0.0812
27277W        W43751   7.200   5.041   1.552  0.1311  0.1592  0.0942
27278W        W43752   2.373   4.069  12.702 -0.4004 -0.1866  0.3408
27279W        W43753   5.094   0.433  12.392 -0.1191 -0.0118 -0.2828
27280W        W43754  16.653   0.594  12.938  0.2930  0.0362 -0.0891
27281W        W43755   7.646  12.733  15.324 -0.2903  0.0223  0.0218
27282W        W43756   4.635  16.680  11.793  0.2719  0.2611 -0.1729
27283W        W43757  13.526  17.308   1.231  0.2256 -0.1662  0.0483
27284W        W43758   4.091  10.122   5.108 -0.0497 -0.0134 -0.3346
27285W        W43759  10.015  10.165   2.865 -0.1756  0.0778 -0.0570
27286W        W43760   0.732  10.762  15.397 -0.2839 -0.0253 -0.1267
27287W        W43761   8.691  14.854   2.787 -0.0808 -0.0742  0.1186
27288W        W43762  14.327   4.238  16.303  0.2679  0.2047 -0.5405
27289W        W43763  14.368  12.556   4.184 -0.0324 -0.2504 -0.0052
27290W        W43764  10.778  11.248  14.560  0.0527  0.1251 -0.0270
27291W        W43765   4.701  14.036   4.724 -0.0616  0.1324  0.0859
27292W        W43766  11.755  11.791   0.014  0.0439 -0.0569 -0.2130
27293W        W43767  15.300   1.902   0.086 -0.0718 -0.1184  0.4116
27294W        W43768   4.227  11.684  15.517  0.0405  0.2697  0.0845
27295W        W43769   0.553   2.910  12.630  0.1766 -0.0734 -0.0074
27296W        W43770   9.693  14.154   3.455  0.0577 -0.0662 -0.0943
27297W        W43771  18.028  14.826   3.597 -0.1054 -0.0667 -0.0277
27298W        W43772   9.597  16.286   2.297  0.2870 -0.2275 -0.4109
27299W        W43773   4.534  11.734  14.119 -0.3206 -0.4018 -0.0091
27300W        W43774   8.206   9.990   1.427 -0.1003 -0.0519  0.1780
27301W        W43775   8.612   5.665  13.620 -0.1692 -0.1394 -0.0620
27302W        W43776  14.864   1.166  12.588 -0.3823  0.0558  0.2482
27303W        W43777  10.422   2.684  15.617  0.1294  0.2244 -0.1043
27304W        W43778  14.914   1.898  14.162 -0.1007 -0.0850  0.1178
27305W        W43779   9.257   4.893  12.542  0.0111  0.0250 -0.3267
27306W        W43780   1.692   9.084  13.625  0.2777  0.0253 -0.0864
27307W        W43781  12.674  11.638  12.192 -0.2412  0.1088  0.0125
27308W        W43782   4.848   7.163  12.764 -0.3949 -0.2715  0.2181
27309W        W43783   1.557   0.081   4.361  0.0686 -0.3514 -0.0265
27310W        W43784   0.243  13.642  12.163  0.2496 -0.0419  0.2093
27311W        W43785   0.248  16.425   4.120 -0.3958  0.1607 -0.2314
27312W        W43786  17.946   8.289   2.169 -0.2568  0.1289 -0.1348
27313W        W43787  14.609   5.659  15.960 -0.1202  0.0331 -0.2170
27314W        W43788   0.535   1.355  11.719 -0.0533 -0.1939 -0.0402
27315W        W43789   1.852  14.374   2.710 -0.0448 -0.4287  0.1202
27316W        W43790  13.539   3.983  12.519  0.1787 -0.0408  0.2661
27317W        W43791  16.787   2.070   1.612 -0.0703  0.1895  0.0261
27318W        W43792   5.315  14.368   3.607 -0.1400 -0.2257  0.0455
27319W        W43793  16.443  10.546   0.554 -0.3269 -0.3078 -0.2522
27320W        W43794  11.459  18.062   4.538 -0.2852 -0.3671  0.0448
27321W        W43795   6.127   6.248  14.602 -0.1215 -0.0506 -0.4110
27322W        W43796  15.956   4.207  15.781  0.2139 -0.1889 -0.3060
27323W        W43797   5.725  11.391  10.754  0.3367 -0.3089  0.1043
27324W        W43798   1.654   9.762   2.967  0.0600  0.1342 -0.2569
27325W        W43799  14.530  10.424   1.572  0.0811 -0.0071  0.1011
27326W        W43800   8.393  11.458   2.375  0.0685  0.0386  0.1280
27327W        W43801   0.975  10.995  14.148  0.1029 -0.0917 -0.0546
27328W        W43802   2.536  17.220   6.005  0.1724  0.2639 -0.1247
27329W        W43803   8.096  14.117  14.538  0.0618 -0.0075  0.1687
27330W        W43804   7.446  11.906   0.832  0.2150 -0.1893 -0.1920
27331W        W43805   0.525   2.438   1.883 -0.0681  0.0776  0.1147
27332W        W43806   1.176  10.672  15.593 -0.1171  0.2960  0.0117
27333W        W43807  15.458   8.552  10.996  0.2724 -0.0369  0.0520
27334W        W43808  16.353   9.929   4.333  0.2413 -0.0120  0.0178
27335W        W43809  13.803   9.208  15.753 -0.0485 -0.3509 -0.0124
27336W        W43810   4.858   0.011  12.277  0.1191  0.3582 -0.0469
27337W        W43811   9.418  11.373   0.223 -0.1985 -0.0203 -0.2035
27338W        W43812   1.869   6.084   3.165  0.0887 -0.0397 -0.1443
27339W        W43813   3.347  14.126   5.147 -0.0917 -0.0475 -0.3844
27340W        W43814  14.370  15.734  12.560 -0.1734 -0.0213 -0.2391
27341W        W43815   1.357   7.969  13.001 -0.3794  0.0089  0.1295
27342W        W43816   1.925   5.561   2.864  0.2489 -0.4152 -0.2642
27343W        W43817  17.258   5.021   3.664 -0.0704  0.0786 -0.0166
27344W        W43818   0.097   6.269  15.494  0.0423  0.2582 -0.0293
27345W        W43819  11.607  16.736   1.983 -0.2770  0.0639  0.0324
27346W        W43820   2.802  10.906   4.053  0.0797  0.3951 -0.3569
27347W        W43821   7.872  12.044   4.057 -0.0502  0.0486 -0.0450
27348W        W43822  14.713   2.042   1.395  0.3520  0.0748  0.3548
27349W        W43823  17.409   5.958   4.916  0.2958  0.0504 -0.1822
27350W        W43824   2.953  15.961   5.016  0.0292  0.2621  0.4514
27351W        W43825   6.421   6.468   3.033  0.1420 -0.1437  0.0566
27352W        W43826   3.310  16.001  11.775 -0.0497  0.2507 -0.2654
27353W        W43827  16.244  12.109   3.909 -0.1184  0.0117  0.2448
27354W        W43828  14.030  17.182  15.915  0.1168 -0.1916 -0.2119
27355W        W43829   6.369   3.782   3.038  0.2367 -0.2570 -0.2826
27356W        W43830   9.691  17.513  15.272  0.1175  0.1966 -0.2032
27357W        W43831   5.525   2.861  12.313  0.1234  0.0937 -0.2213
27358W        W43832  14.611  10.853   4.612  0.1777 -0.1346 -0.2307
27359W        W43833  15.187   6.843  16.251  0.0420  0.6822  0.0368
27360W        W43834   0.040   6.140   2.113  0.2679 -0.0682  0.0392
27361W        W43835   7.008  15.959   3.044 -0.1495  0.2339  0.2753
27362W        W43836  17.653   8.021   2.572  0.0956 -0.1954  0.0416
27363W        W43837   5.208  15.416   0.233 -0.0199 -0.1596 -0.1039
27364W        W43838  13.433  16.799  15.379 -0.3517 -0.2251 -0.0533
27365W        W43839  15.174   3.057  15.984 -0.0460  0.1694 -0.0010
27366W        W43840   8.615  11.409  14.215  0.4421 -0.2723  0.0010
27367W        W43841   5.534   5.965   2.402 -0.1408  0.3952  0.0768
27368W        W43842  16.841   6.019  15.791 -0.0931 -0.2439  0.1500
27369W        W43843  10.403   9.027   4.674 -0.2230 -0.0388 -0.1060
27370W        W43844  18.024   1.381  11.448  0.0335  0.2639 -0.2012
27371W        W43845   8.895   0.220  12.321 -0.2724  0.2680 -0.2612
27372W        W43846  10.906  10.869  12.042 -0.0557 -0.1148 -0.2553
27373W        W43847   6.751  10.943  16.176 -0.1946  0.1384  0.2044
27374W        W43848  12.104   0.938  15.938 -0.1707  0.1144 -0.2409
27375W        W43849  14.675  17.525   0.151 -0.0775  0.1918  0.0022
27376W        W43850   8.356  17.746   3.808 -0.2667 -0.0537 -0.2714
27377W        W43851  14.021   8.298   2.001  0.0780 -0.0669  0.4456
27378W        W43852   7.304  11.953  12.792  0.0224 -0.0463  0.0151
27379W        W43853  11.533  16.681  11.904  0.1057  0.1346 -0.0971
27380W        W43854   6.168  14.232  11.608 -0.2304 -0.1054  0.1034
27381W        W43855  16.257  12.218   2.639 -0.1697  0.2158 -0.1820
27382W        W43856  11.067   2.709  16.104 -0.0853  0.0394 -0.0587
27383W        W43857  12.413   6.909  15.024 -0.0119  0.1739  0.1848
27384W        W43858  16.220  17.043   2.913  0.0365  0.2955  0.0953
27385W        W43859   5.749   7.502  14.820 -0.0380 -0.2240 -0.0864
27386W        W43860  13.640   7.139  13.470  0.2752  0.0579 -0.2646
27387W        W43861  15.613  15.719   6.086  0.2068  0.2161 -0.0828
27388W        W43862   9.003   6.911   0.105 -0.0216 -0.2054  0.0349
27389W        W43863   8.516  12.478   4.436  0.2756 -0.0871  0.0881
27390W        W43864  16.027   6.579  12.850  0.2200 -0.1700  0.0200
27391W        W43865   9.525  15.455  13.114  0.0784 -0.1772 -0.0408
27392W        W43866   2.560   4.989  16.248 -0.1036 -0.2009  0.1878
27393W        W43867  16.720  11.362  12.142 -0.2048 -0.0919 -0.1917
27394W        W43868   8.034   4.866  11.296 -0.1380 -0.0188  0.0651
27395W        W43869  14.324  11.209  12.441  0.0260  0.4133 -0.4219
27396W        W43870  12.675   5.920  12.881  0.0596 -0.3395  0.1228
27397W        W43871  15.604  10.039   0.813 -0.0889 -0.0852  0.0101
27398W        W43872  16.584   4.621   5.526  0.0964 -0.0503  0.0739
27399W        W43873  14.885   1.897  11.905  0.2555  0.1513 -0.1347
27400W        W43874  18.195  13.733  14.275 -0.1454 -0.1266  0.4288
27401W        W43875  16.556  16.648  10.605  0.2064 -0.1757  0.1051
27402W        W43876  11.340   7.279   0.596  0.1840 -0.0354 -0.0441
27403W        W43877  16.349  10.438   4.175  0.0560 -0.0190  0.0639
27404W        W43878  13.525  10.749   0.660  0.0123 -0.0511  0.0588
27405W        W43879   2.957   8.322   5.343  0.2709 -0.2104  0.3359
27406W        W43880   4.157   3.566   5.814  0.0907 -0.2295  0.0053
27407W        W43881   7.257   3.383   3.324 -0.0240  0.1678  0.0315
27408W        W43882   8.161  13.670   5.056  0.2274  0.1731 -0.2007
27409W        W43883   9.169   8.018  12.306  0.2769  0.3559  0.4611
27410W        W43884  11.180  13.055   1.082 -0.0533 -0.1522  0.0692
27411W        W43885   1.052   2.405   4.642  0.1956 -0.2081  0.0433
27412W        W43886  13.860   1.788   3.117 -0.2054 -0.2545 -0.2964
27413W        W43887  12.432  10.137  15.303  0.0622  0.0708 -0.0879
27414W        W43888   9.875  16.624   3.630 -0.1810 -0.2432 -0.2046
27415W        W43889   9.871   7.401   0.451 -0.2549  0.0228 -0.0105
27416W        W43890   4.759   1.245   0.880  0.0717 -0.0717  0.0949
27417W        W43891   7.934  15.935   2.236  0.1008 -0.4204 -0.1812
27418W        W43892  13.180   2.409   1.952 -0.1263 -0.0588 -0.0131
27419W        W43893  11.670   4.444   1.096  0.0633 -0.3395  0.2614
27420W        W43894   0.299   2.465   2.800  0.0523  0.2807 -0.0805
27421W        W43895   5.942  14.631  15.481 -0.0563  0.0322  0.1262
27422W        W43896  10.667   9.462   9.676  0.0101  0.2660 -0.0471
27423W        W43897  11.095   2.101  15.478 -0.2344 -0.0740 -0.3119
27424W        W43898  15.927   5.935   5.563 -0.1080  0.6395 -0.0862
27425W        W43899  11.869   9.819  10.746  0.3688  0.2210  0.0064
27426W        W43900   2.410  13.406   1.130  0.2228  0.1292 -0.3192
27427W        W43901   5.491   3.596   4.925  0.1070 -0.0932  0.0694
27428W        W43902  14.277   8.889   1.836  0.0468 -0.0411  0.1004
27429W        W43903   1.445  12.664  14.035 -0.2016 -0.0841  0.3396
27430W        W43904  10.875  12.166   1.318 -0.1383  0.1950 -0.2549
27431W        W43905  15.115  14.535  14.295 -0.2885  0.2776 -0.0208
27432W        W43906  12.054   6.912  15.807  0.5341 -0.2624  0.0072
27433W        W43907   1.732   3.023  12.142  0.5665  0.2411 -0.1670
27434W        W43908  12.582  13.043  12.137  0.0726 -0.1333  0.1037
27435W        W43909  16.724   2.795   3.532  0.3504  0.2590  0.0872
27436W        W43910  15.637  17.961   2.685 -0.0838  0.0611  0.0385
27437W        W43911  10.490   2.638   3.681 -0.5531 -0.1151 -0.0056
27438W        W43912  13.517   7.496  14.835 -0.1459  0.2343 -0.3080
27439W        W43913   8.263  13.153   5.563 -0.0969 -0.1092  0.3439
27440W        W43914   1.101  14.162  11.361  0.1504 -0.2687 -0.0155
27441W        W43915  14.717  16.517   3.144  0.1777  0.1609  0.1179
27442W        W43916  12.632   9.015   1.328 -0.2024  0.1008 -0.1495
27443W        W43917   9.044  16.439   6.350  0.0849 -0.0998 -0.0277
27444W        W43918   5.853   6.292   0.355 -0.0966  0.0417 -0.0978
27445W        W43919  13.338   4.853  10.896  0.1280 -0.1175 -0.1820
27446W        W43920   4.656   8.915  10.818  0.0013  0.1553  0.4884
27447W        W43921   1.877  17.958   3.832 -0.2545  0.1143  0.0581
27448W        W43922  16.853   1.834  14.434  0.4776 -0.2161 -0.4087
27449W        W43923  11.456   1.182   1.201  0.1587  0.0659  0.0006
27450W        W43924   3.420  11.667   1.088 -0.0246  0.1256  0.1240
27451W        W43925   2.762  10.288  11.557  0.2254  0.1351  0.0333
27452W        W43926  16.942   7.150   0.446 -0.1691  0.1543  0.0488
27453W        W43927   8.381  14.681   4.673 -0.0415 -0.0203 -0.0114
27454W        W43928  14.673   9.850  15.047  0.2622  0.0624  0.3762
27455W        W43929  12.719  17.079  15.918  0.1522  0.0147 -0.1811
27456W        W43930   0.144   6.558   5.320 -0.0177  0.1227  0.2801
27457W        W43931  17.794   3.291   2.310  0.0417 -0.3489  0.2827
27458W        W43932   0.953  13.171  14.920 -0.0886  0.2384 -0.1094
27459W        W43933   5.595  12.879   4.997  0.1641  0.1331 -0.1261
27460W        W43934   3.911  10.539   3.544  0.2705  0.1872  0.0015
27461W        W43935  15.190   5.068  13.151 -0.2840 -0.0154 -0.1023
27462W        W43936  12.619   8.449   2.688 -0.0898  0.0128  0.0830
27463W        W43937  14.569   5.900  12.877 -0.1795 -0.2002  0.0762
27464W        W43938   1.138   9.113   3.291  0.1123 -0.0500  0.0884
27465W        W43939   8.739   0.575  14.981 -0.1120  0.1551  0.0311
27466W        W43940   7.050  18.076   4.269  0.0384  0.1440 -0.0876
27467W        W43941   5.526   8.270  14.987 -0.0812  0.1163  0.0200
27468W        W43942   7.674  11.509  11.537  0.1791 -0.0766 -0.0187
27469W        W43943  12.315   2.790   4.224 -0.0728  0.3912  0.0200
27470W        W43944   0.135  13.380  13.230 -0.1442  0.3783 -0.0700
27471W        W43945   1.733   4.807  15.818 -0.1270 -0.0722 -0.2633
27472W        W43946   5.791   4.135  12.873  0.5573 -0.2199 -0.2375
27473W        W43947   8.110  14.023  12.401 -0.1662 -0.3504  0.0221
27474W        W43948   4.703   6.524  14.771  0.0657 -0.0264 -0.0103
27475W        W43949   3.399  12.502   6.160  0.2868 -0.0541 -0.0364
27476W        W43950   7.919   3.707   2.742  0.0922  0.1157  0.4051
27477W        W43951   3.819  16.252   3.910  0.0617  0.0499 -0.0434
27478W        W43952   4.923   1.791   2.300 -0.0688  0.1821  0.0709
27479W        W43953  10.121  16.226   0.210 -0.2560  0.3911 -0.2751
27480W        W43954   5.001   1.436  15.241 -0.1604  0.3965  0.0574
27481W        W43955   1.555  15.008   1.992  0.2538  0.0818 -0.1102
27482W        W43956  12.571  10.508   3.747  0.1357 -0.0287 -0.1043
27483W        W43957  14.455  14.964   2.045  0.0610 -0.0176  0.0894
27484W        W43958   4.133  13.989   2.327 -0.0278 -0.0591 -0.1332
27485W        W43959  18.206  10.247   3.739 -0.1419 -0.1988  0.1196
27486W        W43960  17.706   1.524   5.699 -0.2901 -0.0355  0.0659
27487W        W43961  14.722   1.964  11.445 -0.2344 -0.2389 -0.0125
27488W        W43962   8.364   6.469  10.363  0.0894 -0.0714  0.1522
27489W        W43963  17.328   8.875   3.070 -0.2981 -0.3304 -0.1122
27490W        W43964   0.365  16.340   2.073 -0.1521  0.0370  0.2130
27491W        W43965  11.171   6.356   0.564 -0.4045  0.1130 -0.1599
27492W        W43966   4.686  15.606  15.393  0.1116  0.1631  0.2210
27493W        W43967   3.614  14.184  14.477  0.2765 -0.2008  0.0060
27494W        W43968   5.891  17.427  12.291 -0.2092 -0.1704  0.1655
27495W        W43969  18.021   0.760   4.720 -0.3256  0.4103  0.0539
27496W        W43970   3.839  10.083  10.956  0.0770  0.2008 -0.0389
27497W        W43971   0.783  10.702   2.860 -0.0006  0.0740 -0.2624
27498W        W43972   3.271  17.896  13.215  0.1293 -0.1075  0.1853
27499W        W43973  16.823  10.556  13.189  0.1983  0.0724  0.0258
27500W        W43974  12.762   3.028  15.920  0.1302 -0.1513  0.3676
27501W        W43975   2.156   9.779   6.189 -0.0177 -0.0067 -0.0044
27502W        W43976   7.251  15.497  10.573  0.2519 -0.0330 -0.0528
27503W        W43977  14.852  10.061   1.748  0.0214 -0.1760 -0.1740
27504W        W43978  15.813   9.880  15.068 -0.1609 -0.2575 -0.1930
27505W        W43979  10.908  12.239  16.107  0.2667  0.0349 -0.0497
27506W        W43980  17.462   8.054  13.113  0.2060  0.2728 -0.0467
27507W        W43981  15.110  16.638   1.259 -0.0324 -0.0785  0.3273
27508W        W43982   0.537   6.596   3.446  0.1460  0.0481  0.1057
27509W        W43983   7.233   5.223  11.739 -0.0618 -0.2167  0.0767
27510W        W43984   3.517  17.100  15.234  0.1078  0.1541 -0.1514
27511W        W43985  16.927  10.807   4.882 -0.1342  0.2591 -0.1052
27512W        W43986  15.710   6.985   0.340 -0.3944  0.0415 -0.2193
27513W        W43987  17.921   5.391   4.056 -0.0860  0.1702  0.1349
27514W        W43988  10.885   3.455   3.128  0.2055  0.0639  0.1111
27515W        W43989   5.605   7.563   2.278 -0.1472 -0.2115 -0.0263
27516W        W43990  13.152   2.908  14.584 -0.0537  0.1011  0.0632
27517W        W43991  13.525   9.053  15.376 -0.1783  0.1821  0.0062
27518W        W43992   2.608  14.432   5.822  0.4706 -0.0307  0.1396
27519W        W43993   1.592  14.624   1.184  0.0547  0.2322  0.1315
27520W        W43994  13.213  18.141   1.508 -0.0772 -0.1221 -0.4731
27521W        W43995   6.344  18.003   1.610  0.0025 -0.1862  0.0148
27522W        W43996   7.204  14.475   3.148 -0.1572  0.2209  0.0548
27523W        W43997  13.296  12.882   0.841  0.0351  0.0653  0.0052
27524W        W43998  15.751  12.984   0.336 -0.1187  0.2051 -0.1819
27525W        W43999  17.741   7.337   0.439  0.1424  0.0072 -0.2710
27526W        W44000   0.116  12.870   2.267  0.1393  0.0807  0.0511
27527W        W44001   8.008   4.546  11.628  0.0273  0.3856 -0.0134
27528W        W44002   2.413  12.444  12.745 -0.2717 -0.1137 -0.4119
27529W        W44003   4.731   8.269   4.904  0.3158  0.0059  0.1218
27530W        W44004   7.286   5.091   0.329  0.0198 -0.0996  0.1595
27531W        W44005   6.041  13.362  13.859  0.1020 -0.0797 -0.1964
27532W        W44006   4.832   5.066   6.138 -0.0564 -0.6016 -0.0533
27533W        W44007  14.757  11.001   4.046  0.1370  0.0919  0.2880
27534W        W44008   3.983   2.591  13.614 -0.0035  0.0405  0.2066
27535W        W44009   3.426   1.231   2.065  0.2110  0.0033  0.0533
27536W        W44010  15.372  10.325  11.215 -0.0913  0.0078  0.0653
27537W        W44011  13.771  11.429   4.995  0.1348 -0.0103  0.2858
27538W        W44012  13.552  17.419   3.354 -0.0003  0.2457 -0.0312
27539W        W44013  16.786  14.933   4.632 -0.2608  0.0002 -0.3419
27540W        W44014  15.063   0.672   3.908  0.0630  0.0204  0.4706
27541W        W44015   7.643  17.858   0.942 -0.2316 -0.0109 -0.1806
27542W        W44016  13.088   2.966   2.179 -0.1405 -0.1513 -0.1224
27543W        W44017   1.036   8.568  12.289 -0.4284 -0.1513 -0.3053
27544W        W44018   8.220  11.367  15.613  0.3242  0.2211 -0.1030
27545W        W44019   3.340   5.341   2.170 -0.1074 -0.1597 -0.1537
27546W        W44020  10.752   6.650   2.412 -0.3488 -0.0707 -0.2423
27547W        W44021  10.273  18.006   2.102 -0.2087  0.3882 -0.1961
27548W        W44022   2.140  13.700  13.996 -0.1850  0.0505  0.2115
27549W        W44023   9.218  11.193   3.601  0.0685  0.2189  0.0350
27550W        W44024  16.942  14.404  15.577  0.0537  0.1087 -0.0998
27551W        W44025   4.390  13.998   4.322  0.1383 -0.3003  0.0614
27552W        W44026  14.772   6.021  14.781 -0.1585 -0.3333  0.0896
27553W        W44027  10.891   4.528   3.106 -0.0522  0.0475  0.2201
27554W        W44028   1.849   3.602   3.444  0.1502 -0.0698  0.2754
27555W        W44029  14.749  12.985  11.925  0.1065  0.0805  0.1630
27556W        W44030  12.231   5.229  15.661  0.1772 -0.2845  0.0585
27557W        W44031   2.365   9.916   0.131 -0.0435 -0.0012 -0.0787
27558W        W44032   1.580  14.685  13.772  0.3560 -0.1629 -0.1993
27559W        W44033  14.591   8.069  11.289  0.1037 -0.3609  0.1476
27560W        W44034   2.994   4.140   4.124 -0.2196  0.1083 -0.6860
27561W        W44035  10.545  14.664  13.432 -0.0804  0.0361 -0.2705
27562W        W44036   6.486  15.266   4.495 -0.1921 -0.0262 -0.2389
27563W        W44037  14.758   0.833   0.678 -0.1208 -0.2497 -0.1941
27564W        W44038  14.506   9.288   3.932  0.0539  0.2943  0.0846
27565W        W44039   3.499  11.058   4.904  0.1795 -0.2712 -0.1913
27566W        W44040   0.766  11.197   1.972 -0.0000 -0.1479 -0.1642
27567W        W44041   6.116  12.546  12.397  0.2324 -0.0011 -0.1028
27568W        W44042   9.903   1.019   2.062 -0.0112 -0.1048  0.1038
27569W        W44043  15.459  15.508  13.867 -0.1099 -0.0569  0.0006
27570W        W44044  11.034   1.566  12.611  0.0550 -0.1795  0.1354
27571W        W44045   0.137   3.462   3.476  0.0006 -0.1285 -0.0176
27572W        W44046  10.579   8.113   2.587  0.0553  0.0177 -0.0937
27573W        W44047   6.168   4.069   1.968  0.2220  0.1377  0.2364
27574W        W44048  12.559  15.622   5.052 -0.0197  0.0256 -0.1100
27575W        W44049   3.526   5.397   1.708 -0.0384 -0.1095  0.1500
27576W        W44050   9.653   6.297   0.130 -0.0211  0.0941  0.1481
27577W        W44051   2.983   8.698   5.647 -0.1020 -0.0209  0.2256
27578W        W44052   3.252  10.862  14.190 -0.0735 -0.0394  0.2327
27579W        W44053  16.258  12.468   5.211  0.1714 -0.2039 -0.2852
27580W        W44054   0.124   3.870  11.638  0.0524 -0.2955 -0.0258
27581W        W44055  15.090   2.957   4.076 -0.0392 -0.1333  0.0608
27582W        W44056   9.451  11.003   2.894 -0.2598  0.2415 -0.3246
27583W        W44057  10.122   2.660  16.032 -0.1629  0.2305  0.0901
27584W        W44058  17.479  17.413  13.700 -0.1963 -0.0981  0.4685
27585W        W44059  11.318  10.786   4.892 -0.1634  0.0460 -0.2161
27586W        W44060   9.481  12.122   1.364  0.2747 -0.1284  0.4411
27587W        W44061   2.386  17.040   5.570  0.0986  0.2329 -0.0356
27588W        W44062  13.083   0.051  13.615  0.0135  0.0762 -0.2021
27589W        W44063  13.364  17.323  11.835 -0.1616  0.2297 -0.0916
27590W        W44064  10.031   8.908  14.773 -0.0269  0.0661  0.0997
27591W        W44065  16.027  11.299   1.020  0.0128 -0.2547  0.0158
27592W        W44066  17.162  15.230   2.226 -0.2765  0.0063  0.0373
27593W        W44067   4.749   6.180   3.594  0.1071  0.0653 -0.0788
27594W        W44068  13.224   8.440   1.591 -0.0841 -0.0390 -0.0511
27595W        W44069   1.455  14.133   1.032  0.0257 -0.1304  0.2639
27596W        W44070   9.823  11.299  15.032  0.1250 -0.1585  0.0080
27597W        W44071   3.789   8.256  12.303  0.0940  0.2350 -0.2660
27598W        W44072   3.126  10.665   4.790  0.4595 -0.0081 -0.1955
27599W        W44073   1.623  12.112  13.774 -0.1492  0.0519  0.0083
27600W        W44074   9.760   2.484  14.958 -0.4270  0.1318 -0.1040
27601W        W44075  12.273  16.875   0.125  0.4597 -0.1135 -0.1569
27602W        W44076  12.315  17.802   5.762  0.0149 -0.0936  0.0353
27603W        W44077   9.215   5.532   1.974  0.0503 -0.1042  0.1557
27604W        W44078   1.459  15.861  15.517  0.1497 -0.0518 -0.0051
27605W        W44079   5.199  16.536   3.344  0.0227 -0.3894 -0.1752
27606W        W44080  10.778   6.932   1.974 -0.2118 -0.4020 -0.0634
27607W        W44081   5.635   5.040   3.014 -0.0688  0.3202 -0.3962
27608W        W44082   8.947   9.303   2.847  0.2172 -0.2940 -0.2293
27609W        W44083   5.970   7.636   4.667  0.1581 -0.0000 -0.3105
27610W        W44084   0.537  10.927   4.869 -0.1595  0.1603  0.2533
27611W        W44085  11.617   0.313  11.846 -0.0029 -0.0236  0.0606
27612W        W44086   3.077  13.875  12.906 -0.0558  0.2254 -0.0637
27613W        W44087   1.676   4.128  15.087  0.1740 -0.5147 -0.0119
27614W        W44088  15.649   8.934  11.254  0.1440 -0.2171  0.0755
27615W        W44089  13.891   8.160   4.713  0.2780 -0.3522 -0.1342
27616W        W44090   3.806   0.151   0.832  0.1075  0.0734 -0.0632
27617W        W44091  10.395   6.456  13.405 -0.0496 -0.1142 -0.0821
27618W        W44092  14.048  10.330  11.078  0.2225 -0.1687 -0.0236
27619W        W44093   4.833   8.648   3.337  0.0888  0.0026 -0.5110
27620W        W44094  10.370   8.663  10.682 -0.1232  0.0807 -0.1215
27621W        W44095  15.123   5.541   2.635 -0.2929 -0.0944  0.1258
27622W        W44096  11.891   6.202   3.213 -0.1849  0.2278 -0.3093
27623W        W44097   1.889  17.181   5.884 -0.3302  0.1637  0.2712
27624W        W44098  12.740  15.723  14.181 -0.1317 -0.0309  0.1902
27625W        W44099  12.323   8.836   4.041 -0.1171 -0.1161  0.1981
27626W        W44100   6.003  15.422  13.539  0.1140 -0.1729  0.0550
27627W        W44101   3.629   3.380   1.302 -0.1419  0.2558  0.1220
27628W        W44102   8.664   6.818   5.314  0.1554 -0.0361  0.1067
27629W        W44103  11.391  16.455   4.816 -0.2505  0.0773 -0.0613
27630W        W44104  17.118   2.009  14.034  0.1537 -0.1004  0.2740
27631W        W44105  18.263  14.780   6.080 -0.0749  0.1486 -0.0594
27632W        W44106   8.900  15.644  12.454  0.2808  0.1041  0.1079
27633W        W44107   9.210   1.960  13.002 -0.3226 -0.3342 -0.2699
27634W        W44108  11.020  17.676  15.427  0.3533  0.1173 -0.1108
27635W        W44109  17.074  13.774  13.372 -0.0065  0.2015 -0.3070
27636W        W44110   9.052   7.509   2.417 -0.0752  0.1192 -0.0241
27637W        W44111  17.930  10.955   0.363  0.0091  0.2973 -0.1741
27638W        W44112   3.188   4.106  14.185  0.1201  0.0496  0.2037
27639W        W44113  15.858   2.430  15.912 -0.0810  0.0089 -0.2851
27640W        W44114  13.624  12.891   3.308 -0.4129  0.0675  0.2980
27641W        W44115   8.680   1.643   3.769 -0.2659 -0.1155 -0.1169
27642W        W44116   1.466   3.917  13.314 -0.2629  0.0298 -0.0400
27643W        W44117   8.218   7.394  14.379 -0.0130  0.1314  0.1883
27644W        W44118  17.965   8.852  11.978 -0.1193  0.1961 -0.0669
27645W        W44119  17.093  17.561  14.469  0.0266  0.0085  0.0861
27646W        W44120   1.602  10.916   3.593 -0.1027  0.0528 -0.0786
27647W        W44121   2.123   5.005   0.158 -0.0824 -0.2119  0.2328
27648W        W44122  17.896   1.944   4.123  0.1285  0.0550 -0.0035
27649W        W44123  11.106  17.644   4.636 -0.1620 -0.1794 -0.1660
27650W        W44124   0.210  13.184  11.957  0.0875  0.1478 -0.0305
27651W        W44125  10.563   3.822   0.348  0.2048 -0.2567 -0.2222
27652W        W44126   6.800   3.521  14.260  0.1116  0.2541  0.1616
27653W        W44127  14.964   9.130  12.105  0.0327 -0.1137  0.0957
27654W        W44128   4.189  15.161   1.034  0.0070 -0.1085  0.0778
27655W        W44129  16.449  13.406   2.324  0.0135  0.1025 -0.3320
27656W        W44130   8.275   7.785  14.747  0.2183 -0.4442  0.2635
27657W        W44131   9.196  11.453  12.222  0.2740  0.1059  0.3189
27658W        W44132  13.815   8.794   2.009 -0.0106  0.4404 -0.1812
27659W        W44133   4.346   6.137  14.464 -0.0178  0.2402  0.2169
27660W        W44134   6.784  12.617   1.871 -0.0856  0.2053  0.0551
27661W        W44135   9.210  13.189   0.072  0.0074  0.1759 -0.1835
27662W        W44136   8.014  10.453   4.924 -0.0399 -0.3069 -0.0390
27663W        W44137   7.204  11.942   3.014 -0.1416  0.3808 -0.0139
27664W        W44138   3.827   1.052  12.300 -0.1761 -0.1184  0.0041
27665W        W44139   0.628  13.507  15.631  0.1483 -0.2033 -0.0750
27666W        W44140   9.893   9.807  13.653 -0.0743 -0.0318 -0.1889
27667W        W44141   9.679  10.650   2.545 -0.2695 -0.1871 -0.0112
27668W        W44142  17.118  14.770   2.483 -0.0173 -0.1393  0.0613
27669W        W44143   6.036   0.527   6.530 -0.4633 -0.0013 -0.1410
27670W        W44144  17.683   3.826   3.523  0.0151  0.0033 -0.1045
27671W        W44145   4.258   0.914   3.269 -0.0600  0.2611  0.0128
27672W        W44146  15.396  10.844  15.919 -0.2043 -0.2213 -0.5317
27673W        W44147   7.451   6.045  12.161  0.0270  0.0425  0.2426
27674W        W44148   8.961  13.532   4.099 -0.1028  0.0225 -0.3046
27675W        W44149   8.806   8.511   5.904 -0.0531 -0.0794  0.1286
27676W        W44150  15.416   2.542   2.006  0.3936 -0.1612  0.1287
27677W        W44151   4.579  17.459   0.040  0.0926  0.1912 -0.0482
27678W        W44152   0.893   0.987  16.107  0.1151  0.0827  0.3857
27679W        W44153   0.477   2.309  16.061 -0.3800  0.1068 -0.1098
27680W        W44154  15.052   5.628  12.857  0.3290 -0.0640 -0.2602
27681W        W44155  16.631   9.803   3.279 -0.0856 -0.0395  0.2364
27682W        W44156  17.385   4.452   1.186 -0.2944 -0.2799  0.1740
27683W        W44157  15.144  12.190  11.821  0.0462  0.2431 -0.0131
27684W        W44158   4.446   5.257   1.918  0.2156  0.1710  0.1169
27685W        W44159   4.872   8.966  16.199 -0.3220 -0.2927  0.1477
27686W        W44160   4.351   6.457  13.481  0.0585  0.1045  0.0255
27687W        W44161  11.576   6.829  13.450  0.0513  0.0229  0.3595
27688W        W44162  18.208  14.773   4.255  0.0511 -0.1301 -0.1493
27689W        W44163  13.227   1.575   2.459 -0.0664 -0.1442 -0.0545
27690W        W44164  16.786   1.280   4.636  0.1131 -0.0628 -0.0046
27691W        W44165   8.709   3.964  14.556 -0.1990  0.0274 -0.0374
27692W        W44166  11.187  14.902  15.768 -0.1517  0.5191  0.3178
27693W        W44167   1.151  17.031   3.989  0.1756  0.2568 -0.1018
27694W        W44168   4.184  12.210   1.979 -0.3961 -0.2888 -0.2161
27695W        W44169   8.485   1.650  13.168 -0.1307  0.0172 -0.0378
27696W        W44170   3.351  14.679   2.710 -0.0036  0.2446  0.2583
27697W        W44171   3.987   0.121  15.143  0.2222 -0.2279  0.0307
27698W        W44172   5.239  11.030   4.217  0.2690 -0.0455  0.0167
27699W        W44173  15.319   9.733   1.496 -0.0186 -0.1073  0.1120
27700W        W44174  11.747  15.090   5.373  0.2473  0.0067 -0.1190
27701W        W44175  12.898   7.361   2.191  0.0407 -0.0947  0.0146
27702W        W44176   7.288  14.402  13.678 -0.3999  0.0388  0.1589
27703W        W44177  16.592   9.002  12.129  0.0572 -0.0710  0.0225
27704W        W44178   7.676   0.796  14.494  0.0791  0.1680  0.1126
27705W        W44179  12.860   9.982  13.487  0.1024 -0.0158  0.1535
27706W        W44180  13.721   7.125   1.378 -0.1794  0.3173 -0.1887
27707W        W44181   3.811  10.165  11.528 -0.1557 -0.2346 -0.2321
27708W        W44182  10.017   9.320   2.590  0.0576 -0.2572 -0.0903
27709W        W44183  16.747  15.862  16.147 -0.0279 -0.2844 -0.0251
27710W        W44184  17.689   9.322   4.555 -0.0382 -0.0496 -0.1970
27711W        W44185   1.479   3.902  11.630  0.0576 -0.1838 -0.1840
27712W        W44186   1.886   5.773  15.119 -0.1838  0.0437  0.2331
27713W        W44187   2.351   1.753   2.757 -0.1477  0.1204 -0.0852
27714W        W44188  18.177   1.809   1.058 -0.2112 -0.0571  0.0556
27715W        W44189  15.507  18.133  13.316 -0.1917 -0.0796 -0.2763
27716W        W44190  13.292  12.927   4.136  0.1658  0.2141  0.0669
27717W        W44191  12.741   7.363   4.840 -0.1656 -0.1147  0.2537
27718W        W44192  13.175   7.076   4.806 -0.1000 -0.1497 -0.2605
27719W        W44193  10.696   1.110  15.590 -0.1166  0.0387  0.1391
27720W        W44194  13.624   0.039   4.551 -0.3237 -0.0445 -0.0934
27721W        W44195   8.265   8.808   2.106 -0.0668 -0.1340 -0.0094
27722W        W44196   1.547  18.375  12.849 -0.0168 -0.0850  0.1106
27723W        W44197   5.297   0.098   5.154  0.0347 -0.0828  0.0611
27724W        W44198   7.295   9.518  13.310  0.0513 -0.1178  0.1782
27725W        W44199  10.286  15.932   4.999 -0.0643 -0.3194 -0.0230
27726W        W44200   0.229   2.076  14.875 -0.0502 -0.2169 -0.2330
27727W        W44201  18.365  17.973   3.927 -0.1606 -0.5059  0.2176
27728W        W44202  14.513  10.181   3.028 -0.1143  0.0604 -0.1978
27729W        W44203  13.602   8.237   5.713 -0.3759  0.0950 -0.1474
27730W        W44204  13.137  15.302   2.178  0.0893 -0.1150 -0.1448
27731W        W44205   8.911   6.552  13.431  0.2764  0.1742  0.0339
27732W        W44206   7.955   8.404   2.172 -0.1880 -0.0651 -0.0040
27733W        W44207  14.158  17.192  13.988  0.4431  0.1037  0.1333
27734W        W44208   5.276   1.461  13.695  0.1217 -0.1049  0.2206
27735W        W44209  16.471  10.451  14.710 -0.2327 -0.3267 -0.0614
27736W        W44210   5.995   5.869   4.075 -0.0830 -0.1553 -0.0633
27737W        W44211   1.404   1.193  15.518  0.0089  0.0156  0.0628
27738W        W44212   2.184  14.585  15.979  0.2713 -0.1047 -0.1301
27739W        W44213   9.592  13.354  13.067 -0.0354 -0.0611 -0.0437
27740W        W44214  10.247   6.073   3.961  0.0309 -0.1679  0.0638
27741W        W44215  14.923  11.803   3.016 -0.1355 -0.2500  0.2329
27742W        W44216  11.263   1.624   2.841  0.1616 -0.0035  0.0922
27743W        W44217   1.897   5.697   4.768  0.1123 -0.0870  0.0955
27744W        W44218  13.998  13.710   1.998  0.4570 -0.1020 -0.1010
27745W        W44219  14.147   5.499   3.955  0.0726  0.3413  0.1005
27746W        W44220   3.872   2.774   3.180  0.0556  0.0574  0.1599
27747W        W44221   7.489  14.503  15.040 -0.2302 -0.2401 -0.1585
27748W        W44222  15.389   4.680   4.475  0.0227 -0.1371  0.0926
27749W        W44223  16.631  12.531   3.915  0.0686 -0.0245 -0.1307
27750W        W44224  14.229   7.032   1.566 -0.0273 -0.2473  0.1635
27751W        W44225  12.735   4.528  14.082  0.0102  0.0149  0.2026
27752W        W44226   8.188  13.079   3.747 -0.0369 -0.2874  0.2180
27753W        W44227  18.370  17.760  13.102 -0.0151  0.3584  0.0898
27754W        W44228  11.414  10.699  15.585 -0.0044 -0.2997  0.0289
27755W        W44229   6.202  11.599  11.668 -0.1126 -0.0390 -0.1074
27756W        W44230   9.599   8.859  12.377  0.3253  0.1720  0.0136
27757W        W44231   4.415  14.913  12.908 -0.0006 -0.0079  0.1949
27758W        W44232  15.385  16.617   2.566  0.3633  0.3087 -0.2767
27759W        W44233  16.336  16.737  11.475  0.1072  0.1140 -0.0001
27760W        W44234  16.086   1.290  11.687 -0.1772  0.4411  0.2249
27761W        W44235   9.856   3.835   4.047  0.0205 -0.2528 -0.0410
27762W        W44236  11.586   1.617  14.482 -0.1970  0.0081 -0.1329
27763W        W44237  10.204   4.177   3.971  0.1712  0.1689  0.1303
27764W        W44238   2.718   5.863   5.183  0.1682 -0.0654  0.0390
27765W        W44239   4.504   6.928  14.467  0.2089 -0.2142 -0.0240
27766W        W44240   9.624   8.693  15.580  0.1120  0.1828  0.0839
27767W        W44241  18.222   4.635  16.321  0.3535  0.1078 -0.0962
27768W        W44242  17.876   7.896   3.497 -0.1249  0.1267  0.0398
27769W        W44243  13.549   4.085   4.813 -0.1815  0.1424  0.2314
27770W        W44244  12.963   1.157  12.463 -0.0617  0.0088 -0.1811
27771W        W44245   6.269   1.403   4.686 -0.2621 -0.1707 -0.2061
27772W        W44246   2.904  12.298   3.286 -0.2201  0.0640 -0.3813
27773W        W44247  10.642  14.272  12.704  0.0183  0.0764 -0.3059
27774W        W44248   3.272  13.767  16.093 -0.2472  0.1510 -0.1070
27775W        W44249  16.821   0.215   1.873  0.2943 -0.0107 -0.0379
27776W        W44250  17.396   7.136   2.089 -0.1840  0.1503 -0.1984
27777W        W44251   9.307   5.931  12.468 -0.0178  0.4030 -0.0627
27778W        W44252  12.944  15.965  13.805  0.2899  0.1214  0.2049
27779W        W44253   4.597   9.217  11.706  0.0831  0.1395  0.3353
27780W        W44254   8.589  12.403  13.289 -0.0824 -0.1337  0.0545
27781W        W44255   6.274   8.256   2.298  0.3161 -0.1837 -0.1967
27782W        W44256  16.014  10.846   4.212  0.0917  0.2482 -0.3486
27783W        W44257  13.936   8.385   0.241 -0.1336  0.0192 -0.1047
27784W        W44258  17.185  13.818   3.807  0.0865  0.3599  0.0080
27785W        W44259   6.556   5.761  12.565 -0.1619 -0.3296  0.1923
27786W        W44260   4.099  12.986   5.531  0.2257  0.0050 -0.1419
27787W        W44261  11.434   9.001  12.824  0.4190 -0.2070  0.1614
27788W        W44262  11.066  10.265  15.621 -0.3548 -0.1025  0.0493
27789W        W44263  10.790   7.373  13.402 -0.2084 -0.3397 -0.0311
27790W        W44264   6.822  12.384   5.817  0.1372 -0.0706  0.4655
27791W        W44265   8.710   5.190  14.336 -0.4740 -0.2402  0.1575
27792W        W44266   2.674  17.110   4.936 -0.2488  0.2530  0.1153
27793W        W44267   6.028  12.634   3.686 -0.3381  0.0292  0.0891
27794W        W44268  17.087   1.767   0.767  0.3000 -0.0937 -0.2522
27795W        W44269   1.614   5.957  13.582 -0.1709 -0.1679  0.0561
27796W        W44270   1.256  13.968  14.971 -0.3106  0.1917 -0.1284
27797W        W44271   8.471  17.203  12.180 -0.2310  0.0571 -0.3405
27798W        W44272  11.026  10.023  11.132 -0.1599 -0.0054  0.0605
27799W        W44273  11.141  12.007  15.063 -0.3610  0.1545 -0.1132
27800W        W44274  16.321  11.596  14.093 -0.3061 -0.1610  0.0208
27801W        W44275  10.692   4.238  14.276  0.1798 -0.2982  0.2685
27802W        W44276  17.162   0.075   4.881 -0.1669  0.0339 -0.1270
27803W        W44277   4.076  15.074   4.577  0.4047  0.0216 -0.0807
27804W        W44278  10.046  11.944   1.985  0.0016  0.0695 -0.2443
27805W        W44279   4.973   2.518   5.190 -0.0621 -0.0338  0.1835
27806W        W44280   0.694  10.776   0.926  0.0443 -0.3853 -0.2647
27807W        W44281  17.194   6.554  13.408 -0.0832  0.2337 -0.3592
27808W        W44282   6.525   8.548   1.591 -0.1785  0.0312 -0.0359
27809W        W44283  10.976  13.072  10.408 -0.0376 -0.0780  0.5243
27810W        W44284   1.438  13.093  15.138  0.0277 -0.1517  0.2206
27811W        W44285   3.125  14.969   3.009 -0.1857 -0.2295  0.1574
27812W        W44286  11.281  12.014  11.195 -0.0463 -0.3089  0.3392
27813W        W44287   7.682   4.657   3.181  0.0056  0.2656 -0.0889
27814W        W44288  17.884  14.405  14.754 -0.2388 -0.1295 -0.1804
27815W        W44289  11.195   1.135  13.717 -0.2070  0.3103 -0.1695
27816W        W44290   6.322   8.934  14.854  0.0372  0.2205  0.2814
27817W        W44291  11.445  15.748  11.425  0.1781 -0.1782 -0.2998
27818W        W44292  14.619  13.800  12.226  0.1251  0.0268  0.1942
27819W        W44293   3.017  16.700  13.998  0.2076  0.1769  0.2733
27820W        W44294   9.985   1.385   2.401  0.2798 -0.1265  0.0752
27821W        W44295   8.782   1.948   5.978  0.3813  0.1436 -0.2345
27822W        W44296  10.375  11.048   2.444 -0.4820 -0.1935  0.1765
27823W        W44297   5.620  18.325  15.963  0.1450  0.1974  0.2643
27824W        W44298   9.256  15.142   4.347 -0.2119  0.3840 -0.0843
27825W        W44299  15.879  15.291  15.669 -0.2115  0.1971  0.0932
27826W        W44300  10.757  17.265  15.778  0.0591 -0.3128  0.0962
27827W        W44301   3.525  16.060   4.982 -0.1689  0.0270 -0.3571
27828W        W44302   5.322   0.924   4.724 -0.3233 -0.0881 -0.0133
27829W        W44303  11.116   6.115   3.404  0.1059  0.0747  0.0258
27830W        W44304   7.319   1.741  14.485  0.2882  0.1854 -0.0478
27831W        W44305  12.427  17.379  16.276 -0.0806  0.1607 -0.2739
27832W        W44306  18.025   2.686  11.989  0.3001 -0.0408 -0.0190
27833W        W44307  16.770   8.292   1.440  0.2628 -0.2441 -0.1061
27834W        W44308   4.041   7.162  11.804 -0.2534 -0.0838 -0.3921
27835W        W44309  18.216   9.301  12.935 -0.2608  0.4058 -0.2735
27836W        W44310   6.024   2.105   3.068  0.1286  0.0427 -0.0270
27837W        W44311   3.037   3.655  12.756 -0.1983 -0.3897 -0.1251
27838W        W44312   8.961   7.102   2.710 -0.1766  0.0262 -0.1916
27839W        W44313   7.518  16.310  15.104  0.3670 -0.1766 -0.1035
27840W        W44314  18.346   5.014  14.726 -0.0916 -0.1341  0.2501
27841W        W44315   0.653   4.556  13.305 -0.4195  0.0738  0.1230
27842W        W44316   3.929   3.108   0.329 -0.0422  0.3276 -0.0162
27843W        W44317  16.858   2.457   1.926  0.1278 -0.0974  0.0117
27844W        W44318   5.208   7.452  13.783 -0.0252 -0.0329 -0.2942
27845W        W44319  12.063   7.686  13.176 -0.1048  0.3229 -0.2769
27846W        W44320  13.180   4.733   5.185  0.0096 -0.1641  0.1043
27847W        W44321  11.315   2.163   0.935  0.1408  0.2690 -0.0712
27848W        W44322   9.350  13.517   2.785 -0.0323 -0.2509 -0.1413
27849W        W44323  14.302   9.762   5.138  0.0708 -0.0431  0.1841
27850W        W44324   6.706   3.925  15.691  0.1348  0.0619 -0.1699
27851W        W44325  15.618   4.702  14.807  0.0731 -0.4218  0.1096
27852W        W44326   1.440  16.692   4.938  0.1430 -0.0056 -0.0549
27853W        W44327  11.813   9.207  12.338  0.2020  0.1311  0.0749
27854W        W44328   6.459   4.604  10.043 -0.1573  0.2922 -0.1011
27855W        W44329   0.358  11.830  15.448  0.0534 -0.2940  0.0735
27856W        W44330  16.806   5.702   0.522 -0.2631  0.0448  0.1783
27857W        W44331  13.445  12.192  11.714 -0.0649  0.1467 -0.1441
27858W        W44332   3.878   5.580  13.781 -0.1154  0.2253  0.1180
27859W        W44333  10.102   6.785   0.971 -0.0789  0.4424  0.0089
27860W        W44334  14.819  16.312  11.960  0.1559 -0.2662 -0.1181
27861W        W44335  11.943  10.103  14.176 -0.0996  0.2153 -0.0003
27862W        W44336  17.819   5.212   2.339 -0.0425 -0.3862  0.0188
27863W        W44337   2.443   0.639   0.040  0.0926  0.0093 -0.1880
27864W        W44338   1.211  12.929  13.229  0.1228 -0.0547  0.2452
27865W        W44339  11.100  15.139  15.332 -0.0895 -0.0632  0.1835
27866W        W44340   3.774   7.571  14.298  0.0257  0.0063  0.1408
27867W        W44341  12.512   3.888  11.771 -0.0397  0.1161 -0.3012
27868W        W44342  10.430  15.176  14.092 -0.0365  0.0107  0.0342
27869W        W44343   5.279  11.011  16.142 -0.1930 -0.0512 -0.5690
27870W        W44344   5.084   9.784  13.841  0.0056  0.1604 -0.0984
27871W        W44345   1.044  18.327   1.000  0.2751  0.0828  0.1267
27872W        W44346   3.156   0.816   5.312  0.0633  0.2199  0.0529
27873W        W44347   1.097  10.905   0.594 -0.0782 -0.1733 -0.1652
27874W        W44348   8.487   9.453   5.409 -0.0753 -0.1399  0.1356
27875W        W44349   1.142  18.085   2.360  0.3661  0.1188 -0.1341
27876W        W44350   5.105   5.367   0.860  0.1057  0.1578 -0.0864
27877W        W44351   8.479   1.897  15.300 -0.1640 -0.0935  0.0960
27878W        W44352  12.248   8.006  15.429  0.0605  0.0908  0.1797
27879W        W44353   6.611  13.041   2.404 -0.1378  0.1160  0.0888
27880W        W44354  15.831   7.957   1.822 -0.0896  0.2405  0.1591
27881W        W44355  12.507   5.059   3.177 -0.0402 -0.1852 -0.0015
27882W        W44356   8.123  12.075  12.331 -0.1591  0.3560 -0.0461
27883W        W44357   7.080  17.923   5.168  0.0533 -0.0177 -0.2044
27884W        W44358   2.314   6.552   5.515  0.1295  0.1477  0.0683
27885W        W44359  11.312  16.071   3.158  0.2158 -0.1796 -0.0175
27886W        W44360   6.169  14.741  12.332 -0.0023 -0.2691 -0.3753
27887W        W44361   6.042  15.544  15.489  0.0830 -0.1205  0.0917
27888W        W44362   6.648  16.339   4.956 -0.0291 -0.0266  0.0554
27889W        W44363  15.672   3.768  15.842  0.3244  0.0475  0.3183
27890W        W44364  15.586   0.084   2.602  0.1538  0.0974 -0.1821
27891W        W44365  11.687   2.627  13.044 -0.0899 -0.2285  0.1436
27892W        W44366  13.779   7.098   5.552  0.3424 -0.0080  0.2376
27893W        W44367   5.997  13.658   1.974 -0.0736 -0.1211 -0.1291
27894W        W44368   4.942  13.916  16.113  0.1538  0.1463 -0.1217
27895W        W44369   1.494   0.775   1.368 -0.1225 -0.2023 -0.1936
27896W        W44370  13.129  11.128  11.289 -0.1541  0.1354 -0.3675
27897W        W44371   4.858   0.673   4.464 -0.1977 -0.3445 -0.2160
27898W        W44372   5.689  15.470   1.409 -0.2945  0.0071 -0.2147
27899W        W44373   3.404  13.457   2.484  0.1517  0.0574  0.1363
27900W        W44374  11.406   2.662   0.130 -0.1145 -0.1036  0.2153
27901W        W44375   5.876  12.983  12.160  0.1173  0.1102 -0.0563
27902W        W44376  15.556  13.526  13.415 -0.6095  0.2732  0.2823
27903W        W44377   5.559   6.621  12.770  0.1060 -0.2357  0.2311
27904W        W44378   3.061   4.137   1.474  0.5240  0.0522  0.0312
27905W        W44379  12.448   3.199   3.852  0.0094 -0.2162 -0.2053
27906W        W44380  12.113  10.930  16.298 -0.0449  0.4178  0.3044
27907W        W44381   6.742  11.318   0.182 -0.0863 -0.0276  0.0209
27908W        W44382   8.992  15.318   4.724  0.0157 -0.0622  0.2520
27909W        W44383   9.273   2.948   0.850 -0.1033  0.1135  0.2776
27910W        W44384   4.586   3.892  13.284 -0.2586 -0.0822 -0.1892
27911W        W44385   5.669  14.448  15.907 -0.4313 -0.4048  0.1554
27912W        W44386   2.931  16.880   1.747 -0.1703 -0.2553  0.0546
27913W        W44387   9.103   2.335   5.370 -0.0669 -0.2125  0.0659
27914W        W44388   8.706  14.626  13.445 -0.0302 -0.2610  0.0276
27915W        W44389  13.932  16.061  14.390  0.1588  0.1076  0.0300
27916W        W44390  13.769   7.705  15.978 -0.0019 -0.3867  0.1063
27917W        W44391   5.403  10.590  15.888  0.1479 -0.0940 -0.0893
27918W        W44392   6.177  16.211  12.896 -0.2447 -0.3676 -0.0896
27919W        W44393   1.625   1.044   5.563  0.0548  0.0327  0.1600
27920W        W44394   7.216   0.116   3.953  0.0398 -0.0685 -0.1245
27921W        W44395   6.245   6.172  13.183  0.0055 -0.0542  0.0032
27922W        W44396  12.184  16.218  14.434  0.2990 -0.0472  0.2029
27923W        W44397   9.090  13.163  12.782 -0.2116 -0.1963 -0.1640
27924W        W44398   4.000   1.906   2.392  0.1679 -0.2505  0.0491
27925W        W44399  10.830  10.829  10.824 -0.2137  0.4272 -0.2106
27926W        W44400  15.878   5.278   1.590 -0.0729 -0.2111  0.2451
27927W        W44401   1.275   9.970   4.271 -0.0888  0.1271  0.1129
27928W        W44402   2.386   2.274  15.659  0.0834  0.3703  0.3094
27929W        W44403  10.388  15.283  12.734 -0.0210 -0.0590  0.0520
27930W        W44404   1.515  10.102  11.975 -0.1080 -0.1207  0.2476
27931W        W44405  14.465  11.785   2.160 -0.3285  0.0234  0.3743
27932W        W44406   8.857  13.470   4.710 -0.1273 -0.2913 -0.0463
27933W        W44407  13.281   8.702  14.675  0.0512  0.0384 -0.0162
27934W        W44408   8.367   2.283   5.915 -0.2374 -0.2544 -0.1906
27935W        W44409   5.071  10.276   5.381 -0.0637  0.1723 -0.0736
27936W        W44410   4.317  14.642   0.933  0.3746 -0.3340 -0.0369
27937W        W44411   1.423  12.788   3.606  0.1593 -0.0120  0.3170
27938W        W44412   2.249   1.751  12.946  0.1688  0.0672  0.0832
27939W        W44413   9.948  13.129  11.655  0.1812  0.0844 -0.1864
27940W        W44414   6.512   4.086   2.648 -0.0116 -0.0213 -0.0412
27941W        W44415  11.046   6.312  14.596  0.1882 -0.0595  0.3547
27942W        W44416   9.233  10.857   0.012  0.2491 -0.0193  0.0327
27943W        W44417  13.395  11.408   3.046 -0.0904  0.1556  0.0127
27944W        W44418  12.948  15.761  15.494 -0.1460  0.0638 -0.0463
27945W        W44419  15.194  12.695   1.747 -0.3271 -0.1408 -0.2281
27946W        W44420  16.146  12.555   1.514 -0.1330 -0.0358 -0.1396
27947W        W44421   5.111  15.091   6.479  0.0223 -0.0151  0.1292
27948W        W44422  12.411  10.451   1.328  0.3189 -0.1039 -0.2398
27949W        W44423   9.624  12.404   5.081  0.1257 -0.2457  0.1359
27950W        W44424  16.360  18.134   1.147 -0.2850  0.2726 -0.0706
27951W        W44425  17.337   4.448   1.749  0.0121 -0.0611  0.1473
27952W        W44426  17.931   7.790  12.401  0.0683  0.2697  0.3141
27953W        W44427   5.477   2.581   2.290  0.0928  0.2870 -0.2274
27954W        W44428  14.419   6.634   4.813  0.2131  0.1356  0.0674
27955W        W44429  12.053   5.170   3.720  0.1943  0.1618 -0.1155
27956W        W44430   4.299   2.358   1.729 -0.0861 -0.1839  0.3564
27957W        W44431  14.174   6.994   2.038 -0.0775 -0.1045  0.0277
27958W        W44432   1.347   0.756  13.833 -0.1681  0.0280  0.0419
27959W        W44433   4.237   5.230   4.600  0.6670  0.0355 -0.1173
27960W        W44434   5.668   3.962  15.093  0.3443  0.1525  0.3788
27961W        W44435   9.174  11.440  11.703 -0.2009 -0.2364  0.0032
27962W        W44436   5.714   2.050   1.456  0.1410 -0.0861  0.2078
27963W        W44437  13.787  15.377   3.774 -0.2130 -0.1333 -0.4169
27964W        W44438   1.482   3.051  13.754 -0.1740  0.1376  0.1250
27965W        W44439   8.836  16.656  15.254 -0.1937  0.1386 -0.1342
27966W        W44440   9.590   3.970  12.722 -0.0165  0.2854  0.0574
27967W        W44441   3.409   1.768  13.722 -0.0042  0.0071  0.0697
27968W        W44442  11.280  16.404   4.335 -0.0799 -0.0278  0.2899
27969W        W44443  18.254   2.522   5.136  0.1638 -0.2128 -0.1827
27970W        W44444   6.464   0.671   1.871  0.1287 -0.1210 -0.1616
27971W        W44445   7.579   9.349  14.218 -0.3984  0.1828  0.0743
27972W        W44446  13.756   7.960   3.617 -0.3863  0.1230  0.1014
27973W        W44447  17.656   0.101   4.655 -0.3357 -0.1374 -0.1302
27974W        W44448  11.565  12.578  12.290 -0.1354  0.1246 -0.1724
27975W        W44449   6.434   7.920  15.114 -0.1302 -0.0850 -0.2279
27976W        W44450   3.345  12.782  15.487  0.1970  0.1771 -0.1071
27977W        W44451   7.967  17.820   6.574 -0.3233 -0.0778  0.3953
27978W        W44452   2.206   4.178  12.237 -0.0738 -0.1882  0.0946
27979W        W44453  10.657   7.783  12.541 -0.1392 -0.1019 -0.0659
27980W        W44454   7.816  17.557   3.750  0.0163 -0.1064 -0.2977
27981W        W44455   5.738   4.965  13.474 -0.0069 -0.2600  0.1536
27982W        W44456   0.812  10.119   4.151  0.2017  0.3068 -0.0918
27983W        W44457  14.125   4.399   5.465 -0.1803 -0.0977 -0.0998
27984W        W44458  15.063   4.010   2.663 -0.1729  0.1536 -0.2345
27985W        W44459  16.604   6.396   4.491  0.1284 -0.0999  0.0281
27986W        W44460  14.333   8.048   4.573  0.0713  0.0466  0.3440
27987W        W44461  14.657   3.583  12.897  0.1285 -0.1610 -0.2057
27988W        W44462  14.357   9.473  13.348 -0.0715  0.0034 -0.1940
27989W        W44463   5.979   0.764  13.620 -0.2109  0.3484  0.1009
27990W        W44464   6.255  17.094   2.776  0.0511 -0.0953  0.0884
27991W        W44465  14.588   2.534   1.249  0.1638  0.2912 -0.3727
27992W        W44466   5.608  13.006   1.711 -0.0178  0.0457  0.1520
27993W        W44467  11.058   4.551  11.102  0.1475 -0.0571  0.1348
27994W        W44468  16.682   5.092  14.344  0.0900  0.3112  0.0621
27995W        W44469   4.500  13.384   5.530  0.0034 -0.0866 -0.0840
27996W        W44470  15.998  12.760  14.274 -0.1789 -0.0654  0.0323
27997W        W44471   4.883   7.836   3.896 -0.0931 -0.0046  0.1104
27998W        W44472  13.590   5.865  10.423 -0.2856 -0.0207 -0.1087
27999W        W44473   2.713  15.070   3.327  0.0615  0.1614 -0.0290
28000W        W44474   6.478  16.009   0.429 -0.4063 -0.1595 -0.3975
28001W        W44475   8.848  12.413  13.744 -0.0394 -0.2248  0.2969
28002W        W44476  17.488   0.648   1.885  0.2159 -0.4204  0.1852
28003W        W44477  10.734  12.291  15.618  0.0785  0.1075 -0.1766
28004W        W44478   5.419   7.530  12.821  0.4276 -0.1327  0.2408
28005W        W44479   8.335   3.261   0.552  0.5180 -0.1368 -0.1902
28006W        W44480  15.304  15.612  14.343 -0.1439  0.0765 -0.1857
28007W        W44481  17.792  15.129  16.012  0.0178  0.2847  0.0612
28008W        W44482  14.257   2.324  15.586 -0.0695  0.4766 -0.0174
28009W        W44483   7.447   9.889   2.101 -0.0440  0.2490  0.3977
28010W        W44484  12.425   9.711   5.402  0.3018 -0.0014  0.0163
28011W        W44485  10.344   2.445  14.870  0.0301 -0.0255 -0.3117
28012W        W44486   6.374   2.234  14.304 -0.1553 -0.1199 -0.2207
28013W        W44487   1.170   7.659  15.962 -0.1636  0.1711 -0.3212
28014W        W44488   3.332  14.544   4.841 -0.0344  0.0536  0.0436
28015W        W44489   0.038   3.985   6.061  0.0678 -0.0926  0.4682
28016W        W44490   0.006  13.305   5.178 -0.1040  0.0686 -0.1544
28017W        W44491  13.342   7.703   0.857 -0.1345 -0.0876 -0.0958
28018W        W44492   7.130  15.670   2.515  0.2515 -0.1255  0.2433
28019W        W44493   6.672   5.972   0.254 -0.1018 -0.5854  0.4041
28020W        W44494   3.666  18.020  12.612 -0.4538  0.0282 -0.1373
28021W        W44495  15.808   5.127  10.713 -0.1798  0.2312 -0.1355
28022W        W44496  13.990  18.193  13.901  0.0938 -0.0541  0.2291
28023W        W44497   7.614  14.205  14.679 -0.1858 -0.0712 -0.2070
28024W        W44498  11.819   5.849   0.330  0.1747  0.1412 -0.0398
28025W        W44499   7.269  12.633  13.169  0.2386 -0.2976 -0.0515
28026W        W44500  13.618  14.109   0.113 -0.0480 -0.1726  0.0298
28027W        W44501  13.262  14.062  13.484  0.2743  0.0560  0.0468
28028W        W44502  12.249  15.542   4.062 -0.0767  0.0145 -0.0180
28029W        W44503   5.862   7.060  12.489  0.1820  0.1761 -0.0309
28030W        W44504   9.788   2.173   1.270 -0.0124  0.0778 -0.2074
28031W        W44505   7.884   3.336  14.743  0.1755  0.3209 -0.0699
28032W        W44506  12.493  11.367   4.266  0.1283  0.0335  0.3866
28033W        W44507   8.715   0.912  15.984 -0.0694 -0.2619  0.0007
28034W        W44508  10.639  17.594  13.151 -0.2105  0.3837  0.2230
28035W        W44509   0.794  12.957   1.645  0.0894 -0.0143 -0.2356
28036W        W44510   3.301   8.834  14.096 -0.1969  0.1330 -0.0932
28037W        W44511   7.410   8.448  11.889 -0.0741  0.1468  0.1606
28038W        W44512  17.695   9.468  13.953 -0.2116 -0.3609  0.2647
28039W        W44513  12.790   4.212  11.373 -0.2273 -0.3032  0.3679
28040W        W44514   8.763   1.117  11.765 -0.0773 -0.1154  0.2364
28041W        W44515   9.634   4.739  12.254  0.2559 -0.2517  0.3128
28042W        W44516   9.871  15.226  12.870  0.1511  0.0634 -0.0506
28043W        W44517   5.103  12.223   0.884  0.3137  0.1298 -0.1276
28044W        W44518  13.192   7.392  13.573 -0.3491  0.0279  0.0655
28045W        W44519   8.019  18.013   3.527 -0.1212 -0.0217  0.3050
28046W        W44520  13.754  14.348   3.626  0.1732 -0.0838 -0.0911
28047W        W44521   3.818  14.897   0.885 -0.1429 -0.1824 -0.0066
28048W        W44522  14.905  15.486   5.380 -0.0245 -0.0429  0.1930
28049W        W44523  13.788   6.175  15.506 -0.1746  0.1350 -0.1305
28050W        W44524   2.802  16.675   4.732 -0.0569  0.0141  0.0499
28051W        W44525  11.737  13.097  15.435 -0.1035  0.3117 -0.0850
28052W        W44526  14.398   9.446  13.837  0.2304 -0.2041  0.0781
28053W        W44527   4.368   8.677  15.477  0.1537 -0.0926  0.0316
28054W        W44528  16.042  15.028  12.392 -0.2101  0.0433 -0.1858
28055W        W44529   6.222  17.385   1.065  0.4432 -0.0626 -0.0407
28056W        W44530  16.076   3.003   2.649  0.1751  0.5306  0.0228
28057W        W44531  16.288   3.074  12.597  0.1150  0.1044  0.2246
28058W        W44532   4.723   4.316  13.930  0.0463  0.1196 -0.2143
28059W        W44533  12.573  14.182   1.409 -0.1204 -0.0299 -0.0245
28060W        W44534   8.318  16.346  13.838  0.2743  0.1438 -0.2349
28061W        W44535  16.048   7.732  15.954  0.1152  0.1097  0.2252
28062W        W44536  15.378  15.686   0.044  0.0510  0.1728 -0.1269
28063W        W44537   2.370  14.178   0.901  0.1355 -0.0894 -0.0747
28064W        W44538   6.657  13.570  11.456  0.1705  0.0204  0.2424
28065W        W44539  10.925   6.180  11.888  0.1497 -0.2088  0.2177
28066W        W44540  10.236   6.792  15.584  0.2914  0.1256  0.2991
28067W        W44541   6.377   2.169   0.773  0.1263  0.0683  0.2313
28068W        W44542   8.588  10.878   4.624 -0.1079 -0.1008  0.1839
28069W        W44543   1.008   3.530   4.386 -0.3385 -0.0941  0.3993
28070W        W44544  17.880   2.385   4.727  0.1930  0.0774  0.1499
28071W        W44545  12.606  16.587  16.202  0.2913  0.2872 -0.3123
28072W        W44546   9.238  11.779   2.610 -0.2939  0.2865 -0.0543
28073W        W44547  17.410  15.927  14.815  0.1133 -0.0522 -0.3358
28074W        W44548   6.738   7.664   4.975  0.0582  0.1999 -0.0691
28075W        W44549   3.121   7.722  16.018  0.0784 -0.1087  0.2747
28076W        W44550   9.826   0.124  12.381 -0.3569  0.2528  0.0474
28077W        W44551   4.466   8.220   2.490 -0.1887 -0.2071  0.2582
28078W        W44552   8.643  14.153   6.159  0.0542 -0.0549  0.1017
28079W        W44553  10.328  17.907  14.612  0.2798  0.0137  0.0362
28080W        W44554  17.214  15.702  16.317 -0.3197 -0.0779 -0.0366
28081W        W44555  13.273  10.423  14.614  0.3359  0.6320 -0.2559
28082W        W44556  16.719   9.090  13.827  0.2066  0.1938 -0.1116
28083W        W44557  11.883   0.019   2.764 -0.5492 -0.0423 -0.3375
28084W        W44558   0.223   8.070  13.977 -0.3703 -0.0953  0.3298
28085W        W44559   7.364   6.411  11.450 -0.0995 -0.1202 -0.0398
28086W        W44560  11.808   7.379  14.029  0.0555  0.2351 -0.1516
28087W        W44561  11.234  11.475   0.092  0.0402 -0.2928 -0.0410
28088W        W44562   3.814   1.706   3.810  0.4900  0.0607  0.0931
28089W        W44563   1.932   7.981  15.147 -0.1301  0.0952  0.0682
28090W        W44564  14.314  10.588   2.838  0.1004  0.0692  0.1018
28091W        W44565   8.919  14.029   2.131 -0.0504  0.1277 -0.2288
28092W        W44566   2.980   5.834   3.930 -0.0311 -0.1487  0.2210
28093W        W44567  14.957   9.637  10.744  0.3253  0.1459 -0.0741
28094W        W44568  13.687  10.057   1.700 -0.1006 -0.0922 -0.2132
28095W        W44569   1.648  14.879   2.608  0.0366 -0.0255  0.4575
28096W        W44570  12.956  10.129   3.061 -0.0860  0.4177  0.4063
28097W        W44571   6.915  15.696   5.669  0.1568 -0.1371  0.5370
28098W        W44572   7.853  16.638   1.721  0.0197 -0.1532  0.0306
28099W        W44573   8.304  14.465  11.382 -0.3157 -0.4902  0.1828
28100W        W44574   5.449   0.394   5.631  0.0063 -0.1078  0.2920
28101W        W44575   5.321   6.613  13.822 -0.1218  0.0709  0.0072
28102W        W44576  10.030  17.119  15.063  0.3348 -0.0888 -0.0867
28103W        W44577   4.646  15.701  14.907 -0.0410 -0.2566 -0.0164
28104W        W44578  15.047   3.435  12.009  0.0276 -0.0396 -0.1243
28105W        W44579  16.041  12.426  13.685  0.2866 -0.2889  0.0099
28106W        W44580  15.292  15.401  14.781  0.0077 -0.0753 -0.1410
28107W        W44581   3.146   1.605  16.056  0.1221  0.1519 -0.1981
28108W        W44582  11.069   3.911  13.096 -0.1478 -0.0991  0.1496
28109W        W44583  10.265   1.758  15.580 -0.0916 -0.1395  0.1298
28110W        W44584   6.061   0.342   5.661 -0.0552  0.2618 -0.1395
28111W        W44585   3.783  15.386   4.774  0.0145  0.5016  0.0770
28112W        W44586  17.629  10.569   3.538  0.4639  0.0333  0.1350
28113W        W44587  15.866  11.933   2.987 -0.0617  0.2232 -0.1580
28114W        W44588   9.970  15.962  15.646 -0.0308  0.0036 -0.0959
28115W        W44589  12.080   1.232  11.169 -0.0685  0.1805  0.1714
28116W        W44590  13.621   2.078   2.698  0.3813 -0.0804 -0.0670
28117W        W44591   9.996  10.398  12.654 -0.1804  0.1593  0.1927
28118W        W44592   1.730   6.131   0.624  0.0358  0.1535 -0.4393
28119W        W44593  11.488   7.122  16.136 -0.0531 -0.0926  0.2443
28120W        W44594  17.792  13.324   4.608  0.0041 -0.1543  0.4290
28121W        W44595   6.723  12.304   1.372 -0.1148 -0.0425 -0.0223
28122W        W44596  13.786  12.969   3.780 -0.0283 -0.1162 -0.0807
28123W        W44597   4.159  11.478  13.899 -0.4047 -0.2942 -0.1058
28124W        W44598   1.047   0.376   3.002 -0.0564 -0.0389 -0.1306
28125W        W44599  16.072   3.650  10.143  0.1076 -0.1847 -0.0392
28126W        W44600   0.052   7.830  12.089  0.2156 -0.0214  0.0882
28127W        W44601  13.246   0.938   1.684 -0.4956 -0.0925  0.2117
28128W        W44602   4.865  17.037   3.382 -0.1238 -0.2720  0.0889
28129W        W44603   3.166  13.918   2.694  0.2734  0.0855  0.1437
28130W        W44604  15.197  12.152   5.041 -0.1252  0.0097 -0.0307
28131W        W44605  13.350  15.290   4.617  0.0239  0.0063  0.1826
28132W        W44606   9.006  18.088  13.883 -0.1182  0.0775 -0.2629
28133W        W44607   3.136  18.175  12.579  0.0701 -0.1458 -0.1091
28134W        W44608  15.326  14.597   0.893  0.0376  0.1171  0.2174
28135W        W44609   9.352   9.857   5.169 -0.3041  0.2342  0.1939
28136W        W44610   5.370   0.611   3.762 -0.0418 -0.4373  0.0708
28137W        W44611  15.525  10.752  11.602  0.0468 -0.0016 -0.1028
28138W        W44612   2.622   7.889   5.568  0.0225  0.2327 -0.0984
28139W        W44613  15.012  12.530   3.392  0.1625 -0.2341  0.1344
28140W        W44614   3.595  14.457   5.676  0.1372  0.2237  0.0671
28141W        W44615  18.166   9.494  15.010  0.1750 -0.0352 -0.0762
28142W        W44616  14.660  15.694   3.412 -0.0962 -0.0679  0.0766
28143W        W44617   2.357   5.560  13.334 -0.1940 -0.1333  0.3482
28144W        W44618   2.018   3.587   5.214  0.0184  0.0387 -0.0540
28145W        W44619  18.327   0.340   0.008 -0.1867 -0.1188 -0.0002
28146W        W44620   0.705   4.998   1.783 -0.0180  0.1347  0.0179
28147W        W44621   9.524  16.239   1.125  0.0428  0.1194 -0.1588
28148W        W44622   7.146  13.090  15.996 -0.0095  0.0887 -0.0590
28149W        W44623   0.749  14.625   5.849 -0.0777  0.1617  0.0619
28150W        W44624   1.364   7.896   5.234 -0.0189 -0.1087 -0.0902
28151W        W44625   2.615   3.834  13.174 -0.2969 -0.4140  0.1850
28152W        W44626  16.316   0.809  12.618  0.0988  0.2895  0.3005
28153W        W44627  14.427  10.697  15.281 -0.0555 -0.1702  0.1417
28154W        W44628   7.223  15.677  16.332  0.0377 -0.2131  0.0382
28155W        W44629   6.701  15.811  16.298  0.2117  0.0204 -0.0045
28156W        W44630  10.436   6.930   3.414 -0.2638  0.2176  0.0360
28157W        W44631   6.355  10.190  11.322  0.1679  0.4797  0.2670
28158W        W44632   4.839  14.839   4.753 -0.0660  0.2293  0.2293
28159W        W44633   8.341   7.728   2.483  0.3538  0.1266  0.0045
28160W        W44634  10.093   5.767  14.178 -0.3594  0.1415 -0.3080
28161W        W44635  11.832   0.608  12.353 -0.2217  0.2703  0.0733
28162W        W44636   3.628   4.971  15.013 -0.1971  0.0667 -0.3268
28163W        W44637  10.782  17.513   1.562 -0.0069 -0.0113  0.0036
28164W        W44638   6.035   6.877   0.531 -0.0885 -0.0141  0.2045
28165W        W44639  13.591  13.766   2.494  0.0136  0.0550  0.1673
28166W        W44640  12.400  12.640   2.827  0.0094  0.2728  0.2765
28167W        W44641   8.887   9.762   0.763  0.1608 -0.0723 -0.0778
28168W        W44642   7.281  10.760   0.944 -0.1059  0.0809  0.3356
28169W        W44643   3.450   9.705  12.341 -0.4032 -0.0714 -0.0667
28170W        W44644   9.596   6.725  16.232 -0.0327  0.1817  0.0569
28171W        W44645   2.102   6.700  13.317 -0.0703 -0.1389 -0.0256
28172W        W44646   0.163   5.366  15.477 -0.0230 -0.3448  0.2380
28173W        W44647   9.240   8.033   0.414 -0.1118  0.0970 -0.2214
28174W        W44648  11.721   0.230   3.280 -0.0320 -0.1772 -0.0461
28175W        W44649  16.698  14.023  14.548 -0.0607  0.0582  0.0583
28176W        W44650   8.909  14.495   3.771  0.2636 -0.3273  0.1633
28177W        W44651   7.600   6.177   0.347 -0.2056  0.1702 -0.3416
28178W        W44652   3.025  16.671   3.711  0.0578  0.0630  0.1427
28179W        W44653  12.016   8.302  13.792 -0.0138 -0.0638 -0.1659
28180W        W44654   7.044   5.050  11.245  0.4453 -0.1028  0.4382
28181W        W44655   8.068   5.933  13.031  0.0582 -0.0496  0.0285
28182W        W44656   4.534   5.490  13.672  0.2586 -0.0114  0.2722
28183W        W44657   1.370   0.048   4.846 -0.1938  0.2255 -0.0130
28184W        W44658  11.323  15.466  12.286 -0.3221  0.0099 -0.0544
28185W        W44659   1.466   9.644  11.780 -0.0368  0.0611 -0.2217
28186W        W44660   1.407  14.934  14.225  0.3308  0.1072  0.0718
28187W        W44661   5.070  10.272  14.193 -0.1280 -0.2284  0.0479
28188W        W44662  16.556   8.524   3.919 -0.0028  0.0297  0.0632
28189W        W44663   7.838   5.544   1.862 -0.1706  0.0680 -0.1855
28190W        W44664   2.934   4.864   2.711  0.2901 -0.1427  0.1394
28191W        W44665  10.258   5.082   2.260  0.0481  0.2650  0.2508
28192W        W44666   6.467  13.567   2.009  0.2403 -0.1411  0.0856
28193W        W44667   5.395   3.633   3.990  0.0358  0.0289  0.1042
28194W        W44668  17.922  13.327   5.935 -0.2480 -0.1583 -0.1068
28195W        W44669   8.622   9.104  11.342  0.0466 -0.0374 -0.1170
28196W        W44670   1.684   9.586   2.120 -0.0528 -0.0838  0.1236
28197W        W44671  10.458   1.853  11.779  0.5333 -0.4404 -0.4132
28198W        W44672  10.851   5.754   2.685 -0.1066  0.1422 -0.0787
28199W        W44673  11.680   7.210  15.572  0.2617  0.1356 -0.2410
28200W        W44674   6.108   1.554   2.783  0.0593 -0.1709  0.1134
28201W        W44675   6.252   7.664  16.028 -0.1987  0.2410  0.1687
28202W        W44676   8.261   2.773   0.630  0.0663 -0.1987  0.0318
28203W        W44677   6.031   1.777  15.394 -0.0788 -0.1297 -0.0707
28204W        W44678   6.103   5.008   4.258  0.0738  0.1610 -0.2287
28205W        W44679   3.733   1.651  13.346 -0.1659  0.0437 -0.1541
28206W        W44680  15.250   0.490   5.792 -0.0893  0.1325 -0.0536
28207W        W44681  15.505   5.383  12.870  0.0808 -0.0933 -0.0874
28208W        W44682  10.334  15.254   5.434 -0.0440 -0.1440 -0.2298
28209W        W44683  15.541  13.645  15.266 -0.1173  0.1927  0.1165
28210W        W44684  11.818  14.338  14.074  0.0383 -0.0334  0.3373
28211W        W44685   3.258   7.304   0.899 -0.4103  0.1347  0.2008
28212W        W44686   2.071  12.396  11.620  0.2400  0.4091  0.0984
28213W        W44687   0.615  13.472   5.999  0.0327  0.0056 -0.4386
28214W        W44688   6.863  16.001  13.668 -0.2930 -0.2103 -0.0655
28215W        W44689   7.571  16.274  13.129  0.2174  0.0059  0.1629
28216W        W44690   4.512  17.445  14.163 -0.1628 -0.0031  0.1024
28217W        W44691   1.554  16.985  12.297  0.2299  0.1514 -0.0580
28218W        W44692  11.786   5.177  13.158  0.1538 -0.0550  0.2227
28219W        W44693   7.294   7.903  12.621 -0.0121  0.1129 -0.0207
28220W        W44694   1.002  15.058   1.949 -0.0306 -0.1231 -0.0595
28221W        W44695   0.526  11.245   0.941  0.3596 -0.1056  0.2297
28222W        W44696   2.640   2.027  14.908 -0.3263  0.1161 -0.2004
28223W        W44697  10.882  11.947   2.250  0.2772 -0.3388 -0.2727
28224W        W44698   6.826  14.822  13.558  0.1163 -0.1167 -0.0189
28225W        W44699  15.980   8.831   3.426  0.2200  0.2075  0.0872
28226W        W44700   7.938  14.163   5.419  0.0938  0.1687 -0.0652
28227W        W44701   0.254   5.400   4.331  0.1651 -0.0754 -0.1412
28228W        W44702   9.290  17.635   3.471  0.0353 -0.1689 -0.1006
28229W        W44703   9.164  14.832   0.672 -0.1634 -0.2277 -0.4136
28230W        W44704  13.812  13.982   4.074 -0.0700 -0.1161  0.0795
28231W        W44705  16.113   5.776  11.937 -0.0432 -0.3486 -0.1062
28232W        W44706  13.658   3.062  11.482 -0.0377 -0.2078 -0.2449
28233W        W44707  17.270   5.862   4.444  0.0695 -0.1331 -0.0627
28234W        W44708   2.679  13.904   2.744 -0.1325  0.0335  0.0564
28235W        W44709   5.652   9.537   5.314 -0.2456 -0.1129  0.0744
28236W        W44710  13.473  14.689   4.493 -0.0830 -0.2653  0.4004
28237W        W44711   7.114  12.117  13.306  0.1832 -0.0253 -0.1297
28238W        W44712  14.730   8.479   2.932  0.2239  0.2387  0.1586
28239W        W44713  16.109   7.415  14.408 -0.0809 -0.2617 -0.3577
28240W        W44714  11.902   8.855  10.857  0.0924  0.2193 -0.1030
28241W        W44715   9.753   8.883   0.543  0.0402  0.3213  0.3033
28242W        W44716  15.585  11.563   0.891 -0.1357 -0.3364 -0.0635
28243W        W44717  17.109   1.795   0.258 -0.0192  0.0421  0.1480
28244W        W44718   7.808   3.171  13.630  0.1423  0.0062  0.0188
28245W        W44719   1.599   8.105  11.219  0.2331  0.1503  0.1913
28246W        W44720   1.410   5.573  15.503  0.2241  0.0774 -0.0318
28247W        W44721   3.646   5.982   1.735  0.0851 -0.2265  0.0207
28248W        W44722  10.630   8.027   0.235 -0.1768 -0.1770  0.0733
28249W        W44723   8.458  10.668  15.179  0.1035 -0.2786 -0.3668
28250W        W44724   8.556  10.309   1.552 -0.0771  0.0151 -0.1490
28251W        W44725  15.144  16.443   0.775  0.0185 -0.3303 -0.1738
28252W        W44726   1.314  15.317   2.260 -0.0058 -0.2130  0.0469
28253W        W44727   0.080   5.529  14.789  0.1382  0.0661 -0.2795
28254W        W44728   0.587   2.240  15.223  0.1165  0.0510  0.0749
28255W        W44729   4.338  14.191  14.582 -0.0649 -0.1798 -0.0131
28256W        W44730   7.669  16.321   5.838  0.0260 -0.1164  0.1211
28257W        W44731   2.407   3.545  15.643 -0.0267 -0.0145 -0.0340
28258W        W44732  13.996  10.049  15.345  0.2635  0.2431  0.4471
28259W        W44733   5.256   0.875   1.206  0.1585 -0.1223  0.0324
28260W        W44734   7.281  16.851   2.934  0.2079 -0.1017 -0.0133
28261W        W44735   8.933   7.769   1.644  0.2436 -0.1994  0.0699
28262W        W44736  18.165  17.593   1.029  0.0213 -0.0702 -0.0965
28263W        W44737   1.920  10.661  12.649 -0.0435 -0.1601  0.2026
28264W        W44738  13.444  15.598   3.278  0.1852  0.0485  0.2036
28265W        W44739  15.476   2.606  13.575  0.0762  0.1571  0.0628
28266W        W44740  12.874  17.263  13.739  0.3382  0.1113  0.2457
28267W        W44741  11.478  12.342  10.858 -0.2247 -0.0566 -0.2375
28268W        W44742  10.296   4.392  12.980 -0.0854  0.0769 -0.1807
28269W        W44743   1.855  10.448   3.376 -0.1658 -0.2298 -0.1815
28270W        W44744  12.969  10.793  13.845  0.0502  0.0262 -0.1870
28271W        W44745   0.589  14.043   5.089 -0.1277  0.1768  0.1482
28272W        W44746  11.633  14.378   4.081 -0.1145 -0.0343 -0.2281
28273W        W44747   5.020   4.712   5.775 -0.0276 -0.0703 -0.2017
28274W        W44748  15.027  11.836   4.598 -0.0570 -0.3798  0.0788
28275W        W44749  10.199  10.214  12.160 -0.3104  0.2400  0.0846
28276W        W44750   9.540   2.697   1.546 -0.3700 -0.0518 -0.4194
28277W        W44751   9.452  14.464   2.561  0.1239 -0.2189 -0.2920
28278W        W44752  18.148   5.497  16.042 -0.0276  0.0809  0.0944
28279W        W44753  17.370  10.046   5.261  0.0205  0.0960 -0.0240
28280W        W44754   0.241  10.265  15.713  0.0432  0.1452  0.1032
28281W        W44755   4.411   6.181   0.323 -0.0285  0.2164 -0.0585
28282W        W44756   5.234  10.567   4.023  0.2758 -0.0055  0.2175
28283W        W44757  15.477  10.213  13.564  0.1170  0.2495 -0.1001
28284W        W44758  14.599   0.281  12.877 -0.0312 -0.0656 -0.1157
28285W        W44759   4.031  16.826   5.523 -0.1225  0.1434  0.0516
28286W        W44760   4.274   2.616   3.712 -0.1022 -0.0800 -0.2083
28287W        W44761  11.581   8.972   4.809 -0.2394 -0.0005  0.0975
28288W        W44762   4.576  15.242   6.320  0.0480 -0.2862 -0.3695
28289W        W44763  15.929  18.200  11.575  0.2085  0.3557  0.2006
28290W        W44764   9.837   6.409  13.537 -0.1224 -0.2404 -0.0192
28291W        W44765  15.539   0.012   5.750  0.1067 -0.2142 -0.1310
28292W        W44766  16.894  16.128  15.030 -0.0740 -0.0951 -0.1340
28293W        W44767   6.154  11.945   3.965  0.0541 -0.0540  0.2898
28294W        W44768  17.910  14.462   5.351 -0.2602 -0.2190 -0.0440
28295W        W44769  17.145   2.671   3.320 -0.1092  0.0536 -0.2846
28296W        W44770  15.412  12.821   0.894 -0.0949  0.1097  0.0692
28297W        W44771   8.857  12.131   5.209  0.2709 -0.1699  0.0987
28298W        W44772  15.772   4.378  13.725  0.2844 -0.0684 -0.0065
28299W        W44773   4.666  10.470   5.225  0.1389 -0.0279  0.0672
28300W        W44774   6.195  17.049  12.215  0.2226  0.2891  0.2827
28301W        W44775   4.755   1.596   2.893  0.1513  0.0049 -0.0541
28302W        W44776  16.184   8.858   4.068 -0.2135  0.1250 -0.0847
28303W        W44777   2.870  13.797   5.096 -0.0300 -0.2684  0.0547
28304W        W44778  10.752   4.206  14.848  0.0381 -0.0898 -0.0549
28305W        W44779   6.023   3.081  13.914 -0.3613  0.0642  0.2268
28306W        W44780   9.745  16.660  12.955  0.0521 -0.3029  0.1709
28307W        W44781  11.313   5.076  14.943 -0.2204 -0.0650 -0.0575
28308W        W44782  12.434  12.713  11.049  0.0380  0.0904  0.2497
28309W        W44783  15.958   9.544  12.911 -0.0046 -0.0921  0.2358
28310W        W44784   5.332  10.148  15.691  0.0236  0.0956  0.3365
28311W        W44785  15.790  14.549   2.477  0.0140  0.2108 -0.0878
28312W        W44786   5.026   2.196  14.772  0.1670 -0.2145 -0.1864
28313W        W44787   1.736   9.867   4.438  0.0595  0.0332 -0.2871
28314W        W44788  11.596  16.770  12.388  0.1498 -0.0436 -0.0728
28315W        W44789   8.408   8.281   2.309 -0.0164  0.1782 -0.3499
28316W        W44790  12.912  15.310  13.902 -0.1885  0.1244  0.2049
28317W        W44791   4.727  12.052  16.128  0.0450  0.1235  0.0978
28318W        W44792   2.052  11.539  15.440 -0.0171  0.0543  0.1016
28319W        W44793   3.466  17.791   3.099 -0.1125  0.0103  0.2284
28320W        W44794  18.264   6.036  14.765  0.2535  0.1609 -0.0687
28321W        W44795  16.956   6.525  15.952 -0.2838  0.0746  0.1337
28322W        W44796  16.946   2.436  15.249  0.0443 -0.0061 -0.1982
28323W        W44797  16.539   0.130  13.974  0.1054 -0.0191  0.1747
28324W        W44798  17.319   6.862   0.181  0.0537  0.1978 -0.0522
28325W        W44799   5.244  12.464   4.174  0.2337  0.1502  0.2693
28326W        W44800   4.899  12.430  12.191 -0.0060  0.2774  0.3230
28327W        W44801  16.386   8.757  12.533  0.0624  0.1404  0.1584
28328W        W44802  18.144  17.118   4.120 -0.0363  0.1916 -0.1087
28329W        W44803  13.314  10.471   0.322 -0.3494  0.1406  0.3019
28330W        W44804   7.457   7.299   2.446  0.2450  0.1624 -0.1993
28331W        W44805   5.251   2.022   1.875  0.1095 -0.0878  0.2356
28332W        W44806   7.975   4.631  14.376 -0.0361  0.3736 -0.1336
28333W        W44807  12.556   1.854  15.337 -0.0793 -0.0328 -0.0356
28334W        W44808   8.870   7.573  11.460  0.0175  0.0426 -0.0455
28335W        W44809  11.181  11.793  12.067 -0.0385  0.0559  0.1263
28336W        W44810   7.983  12.351   4.467  0.0575 -0.1509  0.0932
28337W        W44811  15.381   9.083  16.259  0.1142 -0.1449 -0.0995
28338W        W44812   8.718   3.431   3.651  0.2207 -0.0111 -0.0947
28339W        W44813  13.647  11.218  15.579 -0.2421 -0.2754  0.0257
28340W        W44814  17.407   2.841   4.182  0.3162  0.0934 -0.2469
28341W        W44815   6.895  10.374   3.357 -0.0158 -0.0262  0.2432
28342W        W44816   4.943  10.581   1.355  0.0403  0.5313 -0.0018
28343W        W44817  14.508   0.832   2.180 -0.2740 -0.2419  0.1156
28344W        W44818   8.398   2.684  11.032 -0.1873 -0.0075 -0.1289
28345W        W44819  10.636   4.721  14.476  0.2157  0.3436 -0.0658
28346W        W44820   7.710  10.738   2.511 -0.0556 -0.0754  0.1304
28347W        W44821   8.200   6.385  10.875  0.2837 -0.0155 -0.0145
28348W        W44822  16.549   0.043   0.222 -0.1734  0.0273 -0.2570
28349W        W44823  12.042   8.374  12.465 -0.3446  0.0850 -0.3601
28350W        W44824  14.750   8.348   4.428  0.1067  0.1746  0.1426
28351W        W44825  13.693   7.508  14.321  0.1669  0.1551 -0.1212
28352W        W44826  15.270  17.598  15.951 -0.2323 -0.1284 -0.1459
28353W        W44827   2.324  15.191   2.941 -0.3396  0.1869  0.1511
28354W        W44828   2.009   3.043  13.691 -0.2594  0.1545  0.0030
28355W        W44829  12.237  13.216  15.414  0.1131 -0.2148 -0.0079
28356W        W44830   2.561   5.357  14.334  0.1896 -0.0894  0.0462
28357W        W44831   9.194  17.836  15.262 -0.0010 -0.2366  0.2187
28358W        W44832   4.863  17.674   3.751  0.1818  0.2332  0.0619
28359W        W44833  12.390   1.644   3.558  0.1065  0.1560  0.3121
28360W        W44834   0.661   9.171   3.284 -0.0394  0.1689 -0.1725
28361W        W44835   2.041   8.613   5.260  0.1039  0.2978  0.1941
28362W        W44836  11.109  16.963  11.869  0.1263 -0.0091  0.2416
28363W        W44837   4.778   7.642   3.374  0.0968  0.1641 -0.0403
28364W        W44838   8.047   7.514   3.941 -0.0518  0.0301 -0.2242
28365W        W44839   9.011   8.044  14.091 -0.0314 -0.2231 -0.0029
28366W        W44840   8.834   9.150   0.222  0.3101  0.0977 -0.2665
28367W        W44841   2.547   9.691   4.105  0.1993  0.1735 -0.2176
28368W        W44842   9.098  10.007   0.366 -0.2784  0.2249  0.3795
28369W        W44843  18.386  16.650  13.990  0.0244 -0.0441 -0.0832
28370W        W44844   3.487   4.093   0.510  0.0966  0.3563 -0.2320
28371W        W44845   5.899  13.180   2.078  0.2573 -0.2463  0.1224
28372W        W44846   1.013   6.894   1.802  0.1012 -0.1968  0.0427
28373W        W44847   8.872   7.400  16.252 -0.2976 -0.2681  0.2956
28374W        W44848  10.188  13.668   4.037 -0.2914  0.1730 -0.1906
28375W        W44849  15.757  12.958   6.074  0.1332  0.2823  0.0550
28376W        W44850   1.919  13.940   1.184  0.3746 -0.1977  0.1397
28377W        W44851   8.087  10.322  12.373 -0.2229 -0.0539  0.3803
28378W        W44852   8.173  14.653  14.675  0.1483 -0.0525  0.0725
28379W        W44853   2.141   9.118   0.217 -0.2656 -0.1665  0.1142
28380W        W44854   5.823  18.213  11.991  0.0154 -0.2715 -0.0917
28381W        W44855   8.803   7.972   2.468  0.1691  0.2792 -0.2702
28382W        W44856   6.700   6.882  12.693  0.0292 -0.1073  0.3301
28383W        W44857   2.514   0.929  14.098  0.1807  0.3544  0.0192
28384W        W44858   9.410  11.272   4.690  0.0602  0.1394 -0.2714
28385W        W44859  14.241  17.572  12.135  0.1097  0.1460 -0.0866
28386W        W44860   2.168   5.655   3.817  0.2930 -0.3473 -0.1703
28387W        W44861  12.022   5.581   2.522  0.0386 -0.0483 -0.0436
28388W        W44862   4.792   1.319  12.776  0.3026  0.2493  0.0643
28389W        W44863   7.802  18.135   1.730  0.0056 -0.2279  0.1912
28390W        W44864   2.134  11.017  15.770  0.1659 -0.0305 -0.0130
28391W        W44865  16.032   0.270  12.440  0.0225 -0.0948  0.2953
28392W        W44866  13.406  16.039   4.229 -0.0962 -0.3026 -0.1773
28393W        W44867   4.582   4.963  12.249 -0.2085  0.0724 -0.2083
28394W        W44868  10.737  18.160   1.835 -0.0759  0.0286  0.0372
28395W        W44869  11.003   0.296   4.878  0.0969  0.1899 -0.2155
28396W        W44870  17.408  11.017  15.338 -0.1189  0.0997  0.0716
28397W        W44871  17.066   9.438  15.133  0.3211 -0.3928  0.1789
28398W        W44872  13.008  17.561  13.350 -0.2255 -0.0689 -0.1602
28399W        W44873  13.525   7.206  12.480 -0.0625  0.2365  0.0764
28400W        W44874  14.636   9.557   3.521 -0.0939  0.1271  0.1219
28401W        W44875  11.944   8.305   1.785 -0.0198 -0.0405 -0.0230
28402W        W44876   9.083  15.533  12.911  0.1597  0.0109 -0.0265
28403W        W44877  16.849   3.859  13.636  0.2541 -0.1114  0.0348
28404W        W44878   1.633   5.404   1.747 -0.0516  0.1146  0.0019
28405W        W44879  15.925  16.058   2.002 -0.1115 -0.2125  0.0085
28406W        W44880   5.276  13.259  11.618  0.1696  0.0482 -0.4066
28407W        W44881  10.924   9.169  15.087 -0.1720  0.2227 -0.1295
28408W        W44882   2.339  16.152   3.601  0.0037  0.2297 -0.1404
28409W        W44883   1.485   2.017   3.724  0.0715  0.0346 -0.0740
28410W        W44884  15.393  15.557   1.106 -0.3201 -0.0276 -0.0130
28411W        W44885  12.034  13.883  14.264 -0.1425 -0.4518 -0.1756
28412W        W44886   0.622  17.009   4.040  0.1561 -0.1851 -0.0560
28413W        W44887   3.997   3.239  16.079 -0.0156 -0.4305 -0.3626
28414W        W44888   5.072   5.572  14.778  0.2280  0.1167  0.0465
28415W        W44889  17.435   0.611  13.077  0.0431  0.1232  0.0948
28416W        W44890  11.342   8.954   2.570  0.0744  0.4785 -0.0814
28417W        W44891   6.966  16.673  12.548 -0.2344  0.1374 -0.4117
28418W        W44892   7.334  17.445   1.278  0.5386 -0.4216  0.3359
28419W        W44893  13.922   6.467   4.792  0.0152 -0.2433  0.2356
28420W        W44894  16.886   7.580   1.156  0.0397  0.2452 -0.0237
28421W        W44895   6.436  11.210   0.825  0.0244 -0.0306  0.1018
28422W        W44896   5.195   2.692   4.751 -0.1823  0.3764 -0.0395
28423W        W44897  11.955  14.718  13.677  0.1407 -0.0568 -0.0536
28424W        W44898  11.078   3.076  13.776  0.0907  0.1745  0.1513
28425W        W44899  14.320   2.008   1.679  0.3016 -0.1847 -0.2651
28426W        W44900   7.782   3.234  12.299 -0.0604 -0.0105 -0.0184
28427W        W44901  15.167  11.945  15.532  0.3990 -0.0937 -0.0492
28428W        W44902  13.552  17.437   3.833  0.1829 -0.0566 -0.0376
28429W        W44903  11.469  15.125  16.138  0.1346  0.2768 -0.2115
28430W        W44904  12.583   9.984  15.892  0.3401  0.0455  0.1852
28431W        W44905   8.160   5.876  15.856 -0.1370 -0.2353 -0.2113
28432W        W44906  12.414   6.781   9.996  0.0725  0.0329 -0.2146
28433W        W44907   3.456   8.276   5.495 -0.0937 -0.3109  0.1058
28434W        W44908  11.545   8.214   1.428  0.2882 -0.0531  0.0238
28435W        W44909   7.249   7.452  12.431 -0.2994 -0.0815  0.1524
28436W        W44910   0.896   1.635   0.915 -0.2536  0.1943  0.1010
28437W        W44911  13.560   5.995   2.837 -0.2174 -0.2068  0.2138
28438W        W44912  13.112   0.846   0.698 -0.3554  0.2039  0.1181
28439W        W44913  13.479   1.145  13.314 -0.0320  0.1174  0.2230
28440W        W44914   6.725   4.671   0.610  0.1265  0.3167  0.0055
28441W        W44915   7.385   2.084   3.542  0.0056 -0.0513 -0.1600
28442W        W44916   0.796  16.273   0.237  0.1579  0.2137  0.1017
28443W        W44917   5.867  12.512   4.812 -0.1210  0.1091  0.1611
28444W        W44918  14.701   8.304   0.667  0.0308 -0.2174 -0.2156
28445W        W44919   0.745   1.995   2.042  0.2584  0.2133  0.0315
28446W        W44920  17.368   4.450  12.508  0.1855  0.1042  0.0586
28447W        W44921   8.092   1.890   0.281 -0.0358 -0.0690  0.1312
28448W        W44922  17.637   1.230   4.181 -0.2889  0.2480  0.2384
28449W        W44923  14.235  14.166  14.336  0.3856 -0.1764  0.1849
28450W        W44924   6.910  12.254   4.820  0.0059  0.6164 -0.1850
28451W        W44925  17.678  11.621  13.117 -0.2005  0.3302  0.0192
28452W        W44926   6.685   1.015   5.392  0.2087 -0.1239  0.2176
28453W        W44927  18.232   3.770  14.894  0.0793 -0.2901  0.0506
28454W        W44928   8.374  15.629   2.622  0.3733 -0.0028 -0.2078
28455W        W44929  16.506   4.642  11.185  0.0239  0.3016  0.4422
28456W        W44930   9.640  18.198  13.633  0.1735 -0.0992  0.0970
28457W        W44931   8.182   7.465  13.858 -0.1879  0.2223  0.1147
28458W        W44932   9.613  15.228  12.040 -0.1143 -0.1641 -0.1248
28459W        W44933  17.346  10.240  15.725 -0.0897  0.0839 -0.4349
28460W        W44934   2.193  10.119  13.666 -0.1607 -0.0504 -0.3166
28461W        W44935   7.432   2.082  13.929  0.1272  0.0806 -0.1341
28462W        W44936  12.192   2.866   5.198 -0.0832  0.1053  0.5941
28463W        W44937   8.892  18.261  14.443  0.1799  0.2419  0.2814
28464W        W44938   6.463  13.750  13.642  0.0780 -0.2936 -0.0598
28465W        W44939  13.883   4.619   4.452  0.1958  0.1476 -0.0003
28466W        W44940   0.879  16.980  14.333 -0.1397 -0.0379  0.3659
28467W        W44941   1.277  13.339  12.724  0.1537  0.0285 -0.0282
28468W        W44942   5.997   9.715  14.574  0.0711  0.0919  0.1328
28469W        W44943   2.926  10.816  12.472 -0.1093 -0.4240 -0.0431
28470W        W44944  11.654  14.308   1.782  0.0809  0.1594 -0.0831
28471W        W44945   5.296  14.397   5.347 -0.0921 -0.0615 -0.1662
28472W        W44946  15.267   6.133  12.666  0.1915 -0.1118  0.0422
28473W        W44947  14.454   6.806  11.043 -0.0146  0.2088  0.1065
28474W        W44948   7.685  13.382   0.473  0.1454 -0.2225  0.1473
28475W        W44949   4.479   4.355   0.746  0.1048 -0.1374  0.1857
28476W        W44950   5.073  14.485   3.998  0.1475  0.1827 -0.4574
28477W        W44951   2.443  15.840  12.824 -0.0155 -0.1589  0.0996
28478W        W44952   0.876   7.357  13.892  0.1724 -0.1101  0.1806
28479W        W44953   8.576  10.113  12.396  0.1366  0.2959  0.0417
28480W        W44954  11.070   4.608  14.188  0.0194 -0.0230  0.0147
28481W        W44955  10.696  13.512   1.635  0.0070 -0.0648 -0.1689
28482W        W44956   4.247  12.275   4.622  0.0524  0.0854 -0.1810
28483W        W44957   3.164  15.883  14.414  0.1774  0.3410 -0.2066
28484W        W44958   4.930   0.036  14.919  0.0099  0.2698  0.3749
28485W        W44959  10.609  15.140   0.819 -0.0700 -0.2817 -0.4367
28486W        W44960   4.604   6.572  12.287  0.0500  0.1386  0.1999
28487W        W44961  16.413   0.669  14.617 -0.1589  0.0843 -0.0027
28488W        W44962  12.100   3.520   4.037 -0.0435 -0.2080 -0.1962
28489W        W44963   8.692   4.759  15.707  0.1146  0.0055 -0.0282
28490W        W44964  11.416   8.171  13.104  0.1843 -0.1276 -0.1172
28491W        W44965  13.247  14.820   2.138  0.1538  0.0030 -0.0335
28492W        W44966  17.906  10.120   5.405  0.1160  0.3341 -0.2301
28493W        W44967   6.721  15.302  12.118  0.0250 -0.2093  0.1254
28494W        W44968   6.542   0.943  13.675 -0.2783 -0.1179 -0.2230
28495W        W44969   9.513  13.704   3.338  0.0833  0.0586 -0.0214
28496W        W44970   0.266   6.213  11.151 -0.0765  0.0487 -0.1532
28497W        W44971   2.398   5.620   6.091  0.1215  0.0864  0.1398
28498W        W44972  12.981  14.777  13.864 -0.1016 -0.2390  0.0668
28499W        W44973   6.027  17.119  13.447  0.1015 -0.2090 -0.0883
28500W        W44974  15.600   5.668  15.077  0.1884  0.3766 -0.0410
28501W        W44975  14.001   7.659   2.623 -0.1652 -0.0132  0.0383
28502W        W44976   3.187  16.508  13.177 -0.1570 -0.1850  0.1617
28503W        W44977   8.977   5.990   2.856  0.0180 -0.1892 -0.1289
28504W        W44978  13.650   0.816  13.901  0.2906  0.0647 -0.0975
28505W        W44979   4.697  12.047   4.138 -0.1485 -0.1930  0.1335
28506W        W44980  17.473  12.411   0.898 -0.0880 -0.3774 -0.2970
28507W        W44981  10.587   1.962  13.991 -0.1181 -0.0966 -0.2810
28508W        W44982   1.578   8.346  15.159  0.3556 -0.1365 -0.1418
28509W        W44983   4.182   7.385  14.541  0.1002 -0.1877  0.0806
28510W        W44984   8.309   4.271  14.657 -0.2673  0.0285  0.0657
28511W        W44985  11.954   1.535   4.445 -0.0537  0.0483  0.1420
28512W        W44986  16.629  10.178  12.895 -0.1669  0.2091  0.2855
28513W        W44987   8.135  17.825   1.923 -0.2461 -0.1161  0.2191
28514W        W44988   1.716   5.734   5.685  0.0383  0.0200  0.5099
28515W        W44989   5.788  11.510   2.352  0.2506  0.0297  0.2143
28516W        W44990   3.134   6.130   0.451  0.0647  0.1243 -0.2153
28517W        W44991   1.482   1.490   1.699  0.0383  0.0286 -0.1563
28518W        W44992  10.772   4.549   0.873  0.0089  0.4294  0.0946
28519W        W44993  14.767  16.240   3.542  0.2703 -0.1707 -0.0028
28520W        W44994   6.378   5.932  16.093  0.0124  0.1913 -0.1176
28521W        W44995  12.663  10.999  13.057  0.3533 -0.1553 -0.0392
28522W        W44996   7.219   8.409  14.586 -0.1413 -0.0532  0.0242
28523W        W44997   8.978   9.486   4.555 -0.3208  0.2496 -0.2873
28524W        W44998   5.525   3.412   5.389  0.2061 -0.0537  0.2344
28525W        W44999  11.567   7.748  14.377  0.0491 -0.2766  0.0772
28526W        W45000   5.217  13.490   1.029 -0.0041 -0.0100  0.1024
28527W        W45001  12.167   0.878   4.571 -0.0840  0.1701  0.0166
28528W        W45002  16.551  17.050  15.796 -0.0740 -0.0119  0.0756
28529W        W45003   8.195  10.703  13.103 -0.2648 -0.2102  0.1767
28530W        W45004  17.275  13.523   1.957 -0.0343 -0.0222  0.2398
28531W        W45005   4.369   7.955   1.993 -0.1187  0.0117  0.2439
28532W        W45006   8.978  11.708   3.561  0.1661  0.1969  0.0017
28533W        W45007  13.366  11.629   3.540  0.1928  0.0303 -0.2331
28534W        W45008  18.105   4.219  11.884  0.0684  0.1865 -0.0639
28535W        W45009   5.279  11.787   3.285 -0.1214 -0.1087 -0.2664
28536W        W45010   6.952   6.684   2.909 -0.2790  0.1774 -0.2058
28537W        W45011   1.563  17.146   5.189  0.2682  0.2948 -0.0213
28538W        W45012   8.465  16.935  13.557  0.0053  0.2402  0.1121
28539W        W45013   0.107  11.824   3.391  0.0108 -0.0593  0.2572
28540W        W45014  14.069   8.067   1.125 -0.0213  0.0834  0.2371
28541W        W45015  13.156   4.184  15.236 -0.2773  0.0410 -0.0160
28542W        W45016   2.098  14.147   2.281  0.2310 -0.5303 -0.2002
28543W        W45017  14.276   8.400  12.528  0.2390  0.1201  0.1549
28544W        W45018  11.366   9.977   1.528 -0.0990 -0.0464 -0.1231
28545W        W45019   0.793   7.137   0.849 -0.0446  0.2058  0.0896
28546W        W45020  16.701   2.681  14.814  0.1105 -0.0603  0.1166
28547W        W45021  15.016   3.049  15.463  0.1845 -0.2715 -0.1080
28548W        W45022   0.801   5.014  13.617 -0.0461  0.0954  0.0951
28549W        W45023  12.773   9.784  11.230 -0.0380  0.3995 -0.2090
28550W        W45024   1.943  15.991   2.194 -0.1498  0.0559 -0.0903
28551W        W45025  11.155   3.467  14.662  0.3049 -0.0821 -0.0204
28552W        W45026  10.411  15.522  12.130  0.3112 -0.2477  0.2496
28553W        W45027  17.743   2.134  15.328 -0.0820  0.0765 -0.0685
28554W        W45028  12.382   6.912  13.451 -0.1633 -0.0040  0.1715
28555W        W45029  16.370  12.231   0.166 -0.0739 -0.0870  0.3039
28556W        W45030  12.632  15.904   4.250 -0.1007 -0.2659 -0.1243
28557W        W45031   2.337   1.576   6.371 -0.1661 -0.0828 -0.4450
28558W        W45032  18.200  13.599   5.610 -0.0578  0.0269 -0.5544
28559W        W45033  18.356   0.634   1.475 -0.2062 -0.2114 -0.2730
28560W        W45034  11.395  16.086   3.618  0.3247  0.2294  0.1617
28561W        W45035   2.373  15.718   5.706  0.1244 -0.2045  0.2304
28562W        W45036   2.111   0.086   0.824  0.0752  0.1697 -0.0852
28563W        W45037  14.681   0.577   2.586 -0.5369  0.0281 -0.2064
28564W        W45038  15.639   2.221  11.765 -0.1977  0.1803  0.2495
28565W        W45039   9.269   1.917   6.031 -0.0644  0.3423  0.2347
28566W        W45040   7.078  11.315  11.690  0.1029  0.0755  0.1183
28567W        W45041   2.349   1.709   2.199 -0.0888  0.1605 -0.2360
28568W        W45042  17.887  17.125  13.131  0.3619 -0.1597 -0.2628
28569W        W45043  16.357   7.154   3.884 -0.0009  0.0348 -0.0549
28570W        W45044   4.465   1.095   2.839  0.3467  0.2020 -0.0232
28571W        W45045  13.006   8.428   2.116 -0.0541 -0.2661 -0.1667
28572W        W45046   9.126   7.945  16.246 -0.0228 -0.1058  0.1242
28573W        W45047   8.388   7.504  11.404  0.0305  0.0256  0.2037
28574W        W45048  11.251   6.506  12.096 -0.3019 -0.0250  0.0382
28575W        W45049  12.993   3.413   0.411 -0.0056 -0.0760 -0.1387
28576W        W45050  15.821   1.685  11.858 -0.0421  0.0068  0.1674
28577W        W45051   3.695  15.108   1.798  0.6580  0.0276  0.1620
28578W        W45052   3.380   3.272   0.067 -0.1864 -0.0388  0.1228
28579W        W45053   8.649  10.494   3.227  0.0267  0.2414  0.2522
28580W        W45054   7.201   2.477   4.619 -0.0617 -0.1453 -0.3029
28581W        W45055   0.598  11.484   1.409 -0.0180 -0.2938  0.1408
28582W        W45056  12.078  12.762  12.459  0.0352  0.2822 -0.1987
28583W        W45057   5.257   6.241   2.097 -0.2462 -0.1917 -0.1925
28584W        W45058  17.456   0.673   4.678  0.1123 -0.1206 -0.2445
28585W        W45059  14.029  18.236   4.172 -0.0230 -0.1302 -0.0554
28586W        W45060  14.417  12.646   4.784  0.1369 -0.0201 -0.0334
28587W        W45061  16.459   4.688  12.115  0.1347 -0.3122  0.1260
28588W        W45062   7.199   4.640  13.568  0.0527  0.0872 -0.1004
28589W        W45063   3.971   6.425  15.981  0.3454 -0.3465 -0.1795
28590W        W45064   6.981  17.617   0.421 -0.2352 -0.1457 -0.1029
28591W        W45065   9.243   4.519   2.511 -0.1275 -0.0300  0.0048
28592W        W45066   2.383  15.632   6.241  0.1699  0.3809  0.1314
28593W        W45067   6.617   7.337  10.781 -0.1034 -0.0576  0.1390
28594W        W45068   9.541   0.417  13.329  0.2708  0.1890  0.1437
28595W        W45069   2.647   7.800   3.883 -0.1017 -0.1395 -0.1580
28596W        W45070  11.996   4.997  14.660  0.2069 -0.1432 -0.4901
28597W        W45071   6.531  13.144  14.083  0.2531 -0.1365 -0.0031
28598W        W45072   5.049   4.813  12.244  0.1132  0.1529  0.1223
28599W        W45073  13.185   0.580   2.123 -0.0078  0.2441  0.2130
28600W        W45074   2.575   6.342   2.724 -0.3680  0.1407 -0.0470
28601W        W45075  12.287  17.533   5.286 -0.2790 -0.0947  0.1269
28602W        W45076  13.852  12.903  15.249  0.1488  0.0919 -0.1393
28603W        W45077  13.352   6.069  15.886 -0.2545 -0.2968 -0.0537
28604W        W45078   4.534  14.140   0.199 -0.0155  0.0345  0.0144
28605W        W45079   0.601  10.368  13.734 -0.1822 -0.0120 -0.1210
28606W        W45080  11.169  15.062  14.843 -0.3468  0.0774 -0.2664
28607W        W45081   4.008   2.490  12.683  0.0272  0.2992 -0.1365
28608W        W45082   4.380  13.394   3.603  0.1297  0.3764 -0.2760
28609W        W45083  15.567  14.289   5.906  0.1635 -0.4249 -0.2265
28610W        W45084   2.521  12.971   1.405 -0.0927  0.0185  0.0677
28611W        W45085   8.818   1.236   4.682 -0.3122  0.0754 -0.5208
28612W        W45086   1.257   2.584  13.568  0.0445 -0.0715  0.2585
28613W        W45087  14.736   3.692   2.693  0.0301  0.4120 -0.1145
28614W        W45088  14.228   9.874  13.643  0.0544 -0.1623 -0.2951
28615W        W45089  13.986   0.906  13.475  0.3240  0.2035  0.0918
28616W        W45090   0.152  18.371  13.090  0.1116  0.1929  0.0838
28617W        W45091   5.249   4.127   2.513  0.1588  0.0626  0.0921
28618W        W45092  13.285   0.475   0.063 -0.0075  0.1176  0.2957
28619W        W45093   9.157   8.294   2.408 -0.1559  0.2396  0.4384
28620W        W45094  13.945  11.211  14.802  0.0664  0.0174 -0.3253
28621W        W45095   1.792   8.006   1.661 -0.0081 -0.0160 -0.0350
28622W        W45096  16.730   1.895  12.110  0.0613 -0.0961  0.0732
28623W        W45097  15.584  16.901   0.006 -0.0450 -0.0184  0.0505
28624W        W45098   3.779  17.324   2.361  0.0395  0.2061 -0.0970
28625W        W45099  14.493   0.571   1.191 -0.0610 -0.1461  0.0795
28626W        W45100   5.578   2.737  14.098  0.0223 -0.1052 -0.1044
28627W        W45101   8.152   5.724   9.905 -0.0575 -0.0916  0.4562
28628W        W45102  13.844   6.133   2.317  0.0902  0.3786 -0.3388
28629W        W45103   5.261   1.806  14.088 -0.1381  0.0219  0.2439
28630W        W45104  13.706   8.477  14.301 -0.1574  0.0426 -0.1117
28631W        W45105   2.385   8.607  12.017 -0.0392 -0.1492  0.2123
28632W        W45106   8.561  14.883  11.497  0.0826  0.6168  0.3540
28633W        W45107  17.336  16.643   4.081  0.0285  0.0965 -0.0539
28634W        W45108   8.371  13.547   3.801  0.1277 -0.3449 -0.0632
28635W        W45109  13.828  13.726   2.899  0.1064 -0.2787 -0.1963
28636W        W45110  16.874   8.858  10.751  0.0341 -0.1319  0.0073
28637W        W45111   2.511   8.875  13.988 -0.0833 -0.0352  0.0611
28638W        W45112  17.595  13.980   4.588  0.2234 -0.1738 -0.1107
28639W        W45113   5.424   2.035  12.889 -0.1606  0.1997  0.1400
28640W        W45114   2.745   0.923   0.901  0.0230 -0.0531 -0.0556
28641W        W45115  16.634  13.778  12.082  0.0819 -0.3136  0.3525
28642W        W45116   1.054  15.126   0.098 -0.0241  0.2285 -0.1301
28643W        W45117  18.012   3.158   4.322 -0.0704  0.3461 -0.1499
28644W        W45118   0.764  14.955   4.971  0.0435 -0.1441 -0.0077
28645W        W45119   2.741   9.717   6.229 -0.0485  0.1400 -0.0125
28646W        W45120  12.775   7.062   9.807  0.0920 -0.2592 -0.2325
28647W        W45121   8.366  15.192   4.712  0.0595  0.1773  0.0895
28648W        W45122   3.421  15.964   2.734 -0.1250 -0.0199 -0.0213
28649W        W45123  13.206  17.425  11.201 -0.0214  0.1228  0.2598
28650W        W45124  15.908  11.432  13.849  0.0557 -0.0663 -0.1873
28651W        W45125  10.886   2.857   3.724 -0.1241 -0.2476 -0.3085
28652W        W45126   4.914   5.135  14.172 -0.2535  0.3418 -0.2891
28653W        W45127  15.950   5.032  11.260  0.2480  0.1561 -0.1313
28654W        W45128   0.977  13.148  15.812  0.1654 -0.0670 -0.0930
28655W        W45129  11.746   4.460   3.249  0.1209  0.1468 -0.0751
28656W        W45130  16.028  11.342   4.282  0.1830  0.0527 -0.3098
28657W        W45131   9.998   3.937  15.085 -0.1092 -0.1199 -0.4141
28658W        W45132  11.505   7.148   4.790  0.1514  0.0708 -0.0028
28659W        W45133  10.530  10.188  16.225  0.1393  0.1409 -0.0057
28660W        W45134  15.840   2.686  13.143 -0.2392  0.1182  0.1132
28661W        W45135   6.162  14.530  12.891  0.2035  0.1051  0.0014
28662W        W45136  15.346   4.190  13.397 -0.3075 -0.1155  0.0545
28663W        W45137   3.443  14.281   2.960  0.3435 -0.1781 -0.1682
28664W        W45138  11.478   0.054  11.419 -0.0674 -0.0339  0.2542
28665W        W45139   8.901  17.932  14.781  0.0716 -0.2067 -0.2782
28666W        W45140   1.691  13.978   3.594  0.1428 -0.1840 -0.0012
28667W        W45141  12.607   1.926  11.270  0.1137 -0.0381 -0.4808
28668W        W45142  10.489  17.419  14.671 -0.0195  0.0637  0.2106
28669W        W45143   8.069   6.729  14.855 -0.4470  0.1611 -0.0713
28670W        W45144   0.998   7.194   2.606  0.0772 -0.1858  0.1220
28671W        W45145  10.731  16.292   4.171 -0.0260  0.1002 -0.0520
28672W        W45146   7.466   9.122   0.540  0.0502  0.2264  0.1993
28673W        W45147  12.421   1.597  13.529 -0.1151 -0.0109 -0.1739
28674W        W45148   7.380   3.815   2.891  0.0535  0.2528 -0.0855
28675W        W45149  16.048   6.835   3.376  0.1848 -0.1253 -0.1980
28676W        W45150  16.477  11.254   1.289 -0.0827 -0.0297 -0.0360
28677W        W45151   8.439  10.275  11.986 -0.1905 -0.2586 -0.1584
28678W        W45152   6.738  18.238   0.927 -0.0741 -0.1005 -0.0880
28679W        W45153   1.262  17.517   0.058 -0.2261 -0.0585 -0.3248
28680W        W45154   6.970  10.872   3.056  0.0546  0.1136 -0.0339
28681W        W45155  18.214   7.078   1.195  0.1069 -0.0376  0.0561
28682W        W45156  12.807  15.607  14.831  0.0073 -0.1325 -0.0357
28683W        W45157   1.143  14.380   1.287 -0.3236 -0.1032 -0.2810
28684W        W45158  10.760   2.292   2.764  0.2007  0.1200  0.0682
28685W        W45159   4.756  13.801   2.481 -0.0104  0.2023  0.1734
28686W        W45160   0.032  10.012   4.132  0.0920 -0.2242  0.1815
28687W        W45161   5.450   5.080  15.448 -0.2335  0.2183 -0.0483
28688W        W45162   2.430  11.932   1.579 -0.1437  0.0858  0.1371
28689W        W45163   2.562  13.186  12.483  0.0162 -0.1137 -0.1149
28690W        W45164  16.540  17.024   5.682  0.0712 -0.1453 -0.1837
28691W        W45165   8.326  15.478  14.039  0.1697 -0.3873  0.0650
28692W        W45166  14.905  13.409  12.307 -0.1887  0.2561 -0.0357
28693W        W45167   3.523   4.132  13.827  0.0689  0.0906  0.2711
28694W        W45168   2.388  12.742   4.759 -0.0183  0.5291 -0.0861
28695W        W45169  12.405   4.505   1.405 -0.3617 -0.1588  0.0902
28696W        W45170   6.418  13.136   4.305  0.0318 -0.0845 -0.0210
28697W        W45171  17.862   8.566  12.532 -0.0522  0.1246  0.0896
28698W        W45172   9.957   5.219  13.874 -0.3830  0.0448 -0.0656
28699W        W45173  11.700  11.132   6.152  0.7928  0.0945  0.1190
28700W        W45174   8.310   2.907   2.727  0.0153 -0.1522 -0.0103
28701W        W45175  18.194  11.666  12.381 -0.0276  0.2858  0.3860
28702W        W45176  13.678   1.658   4.208 -0.1260  0.0754 -0.1894
28703W        W45177   4.333  14.203   6.606  0.0687 -0.1620  0.3704
28704W        W45178   5.049   4.992   3.044 -0.3120  0.4279  0.0209
28705W        W45179   9.067  12.361   1.616 -0.0498 -0.0111 -0.3545
28706W        W45180  13.922  13.665   1.032 -0.3139 -0.0267 -0.0238
28707W        W45181  17.264   2.028   1.699  0.0941  0.1565  0.0546
28708W        W45182   4.405   5.913   0.820  0.0065 -0.1801 -0.0302
28709W        W45183   3.099  16.903  14.481 -0.0687  0.3203  0.1880
28710W        W45184   1.744  15.209   4.151  0.0573 -0.1425 -0.2647
28711W        W45185   3.486   8.547   2.594  0.0607  0.3646 -0.1234
28712W        W45186   4.193  14.986  15.050 -0.0322 -0.0142 -0.3548
28713W        W45187  13.946  11.508  13.416  0.3281 -0.0739 -0.2218
28714W        W45188   3.480   3.456   4.228  0.1857 -0.2400  0.0476
28715W        W45189  17.892   3.954   6.047 -0.2538  0.0810  0.2337
28716W        W45190  16.404   5.385   1.641 -0.2855  0.2115  0.1328
28717W        W45191   6.949   3.340   1.251 -0.1592  0.2623 -0.0588
28718W        W45192  17.626   4.971  13.407  0.2038 -0.2898  0.1293
28719W        W45193   5.146  11.256   2.532  0.0972  0.2929  0.0125
28720W        W45194  10.561   5.533  15.152  0.2127  0.0138 -0.2213
28721W        W45195   0.416   0.581   1.652 -0.1235 -0.3387  0.2066
28722W        W45196   9.485   1.245   3.336 -0.0225 -0.0769 -0.1028
28723W        W45197  11.290   1.247   0.694 -0.1414 -0.1816  0.0078
28724W        W45198  15.277   1.023   3.521 -0.0036  0.1026 -0.2483
28725W        W45199  12.754   8.725  14.245 -0.0661 -0.2759 -0.0109
28726W        W45200  17.656  11.370  12.605 -0.1865  0.0080  0.0214
28727W        W45201   7.303  16.719   5.903 -0.2372  0.1985  0.1793
28728W        W45202  11.962   9.921   0.246 -0.0573  0.1642 -0.1193
28729W        W45203   3.814  15.427   4.187  0.0695  0.0747 -0.3464
28730W        W45204  10.852   4.839   3.582  0.3385  0.1577 -0.0580
28731W        W45205   1.509  11.067   1.517  0.1960  0.2120  0.0046
28732W        W45206  11.128  14.943  13.526 -0.0504 -0.1379 -0.0138
28733W        W45207  18.050  16.270  13.533  0.1998 -0.0219  0.1093
28734W        W45208   8.881  14.397  13.962 -0.1363 -0.0291  0.1712
28735W        W45209  15.098  13.212  12.922  0.0531  0.0716  0.1582
28736W        W45210  13.117   7.002  12.295  0.1969 -0.3632  0.1444
28737W        W45211  10.657   7.433  11.840 -0.0990  0.2171  0.0194
28738W        W45212   5.501   8.548   1.479  0.0227 -0.1651  0.3961
28739W        W45213   9.707   9.318   0.298 -0.2113 -0.0870 -0.3629
28740W        W45214   7.723  14.107   1.211 -0.0974 -0.4106  0.2903
28741W        W45215   5.923  11.158   0.809  0.3112  0.0020  0.0507
28742W        W45216   6.888  11.549   0.925 -0.0344  0.2847  0.1397
28743W        W45217  14.460  10.139  15.442  0.2057  0.2104  0.0466
28744W        W45218   9.495   6.955  12.506  0.2198 -0.1227  0.1137
28745W        W45219   1.370  12.053   1.161  0.1319 -0.1218 -0.0863
28746W        W45220  14.345   0.478  13.351  0.2640 -0.1076 -0.0240
28747W        W45221   2.742  17.650   1.273  0.1091  0.4217 -0.1535
28748W        W45222   1.614   3.124  12.785  0.0230 -0.2612  0.0572
28749W        W45223  15.998   0.878  16.339  0.1046  0.0277  0.2121
28750W        W45224   5.900  10.535   1.739 -0.1120  0.1975  0.0561
28751W        W45225  13.563  10.522   4.928 -0.2813  0.2105  0.1760
28752W        W45226   1.813  11.741  16.270 -0.0442 -0.1218 -0.2046
28753W        W45227   9.697   0.095  15.003 -0.0928  0.3050  0.1975
28754W        W45228  12.560   2.421   5.536 -0.0210 -0.0048 -0.2283
28755W        W45229  18.246  15.954  15.334  0.0375  0.2156  0.0748
28756W        W45230   4.198  17.682  15.527 -0.3687 -0.1068  0.0374
28757W        W45231  14.254  11.684  11.796  0.1585  0.4036  0.0234
28758W        W45232  14.617   5.612  11.479  0.0682  0.0586 -0.1651
28759W        W45233   9.103  16.058   3.801 -0.0012 -0.0362 -0.0784
28760W        W45234  10.168  14.674  16.155 -0.1462 -0.0571  0.0688
28761W        W45235  12.483  16.265  13.082  0.1469 -0.0769 -0.0611
28762W        W45236   8.524   1.195  12.996  0.2035  0.0738 -0.1001
28763W        W45237   2.405  14.032  12.084  0.1167 -0.1502 -0.0943
28764W        W45238  11.421  18.086   5.630 -0.3020 -0.1411  0.2827
28765W        W45239   8.638  14.232  15.269  0.0163  0.0986  0.1173
28766W        W45240   6.936   4.378   3.237 -0.2025  0.2372  0.3593
28767W        W45241   8.450  16.877   3.527  0.0552  0.1798 -0.2065
28768W        W45242   4.934  11.999   5.553 -0.0495  0.0924  0.0873
28769W        W45243   7.769   9.929  10.065  0.2451  0.0213  0.1520
28770W        W45244  12.058   1.213  16.342  0.2253  0.3033 -0.1258
28771W        W45245   2.792  10.980   1.198  0.4018 -0.2240  0.1973
28772W        W45246  16.724  13.492  14.519  0.0227  0.1910 -0.0263
28773W        W45247   1.839   0.843   4.142  0.1565  0.5219 -0.1922
28774W        W45248   3.400   9.208   2.578  0.1898  0.0139 -0.0183
28775W        W45249   9.691  10.271  15.189 -0.0197  0.1769 -0.1778
28776W        W45250  12.701  13.097  14.357  0.3906 -0.1451 -0.0370
28777W        W45251  16.141   3.824   2.903  0.0926 -0.1002  0.2002
28778W        W45252  16.141   6.404   4.712 -0.2612 -0.2561 -0.0659
28779W        W45253  16.253  17.816   0.736 -0.3322 -0.0093 -0.0456
28780W        W45254  10.833   2.263   1.286 -0.0386 -0.1041  0.0684
28781W        W45255  11.769   9.814   3.237 -0.0376 -0.2477  0.2878
28782W        W45256   2.685  17.967   0.319  0.0766  0.3044 -0.3679
28783W        W45257   7.326  14.602  12.242  0.0818  0.0785  0.1422
28784W        W45258   4.548   7.319  11.629 -0.2231  0.0805  0.0664
28785W        W45259   8.264  16.927  15.269 -0.0830 -0.0644 -0.0231
28786W        W45260  11.389  17.805   3.121 -0.0971  0.0495 -0.0114
28787W        W45261   8.339  16.835   1.333 -0.1997  0.1989 -0.0971
28788W        W45262  14.904   4.582   3.188 -0.1546 -0.0726 -0.1468
28789W        W45263   0.033   7.513   1.179  0.0290  0.1802  0.0840
28790W        W45264   6.406   0.925  15.733 -0.0056 -0.1812  0.2490
28791W        W45265   4.730   3.469   1.921 -0.0157  0.0130 -0.2132
28792W        W45266  17.270  10.358  11.834 -0.1084 -0.0835  0.1892
28793W        W45267  14.756   2.033   2.580 -0.0901  0.0943 -0.3009
28794W        W45268  13.130  14.315   3.489  0.1019  0.0369  0.0957
28795W        W45269  16.196  14.461  15.993  0.1337  0.4169  0.0358
28796W        W45270   9.275   3.430  13.324  0.0177  0.2679  0.0578
28797W        W45271  12.229   9.332   4.156  0.0795 -0.0956 -0.1585
28798W        W45272   6.302   3.994   4.748 -0.1644  0.5647 -0.0130
28799W        W45273  17.546  14.231  15.663 -0.3555 -0.1592  0.2119
28800W        W45274  17.869   2.682   5.472 -0.4011 -0.0022 -0.2937
28801W        W45275  14.600   1.317   3.944 -0.2405  0.2130  0.1237
28802W        W45276  11.501   8.548   1.007 -0.0801 -0.2341 -0.1068
28803W        W45277   9.657  17.876  13.198 -0.4655  0.0403  0.1007
28804W        W45278  18.059  14.207   4.858  0.1154  0.1593  0.2431
28805W        W45279   8.951  16.053   0.281 -0.0585  0.0020  0.2279
28806W        W45280   3.553   0.418  14.707 -0.0845 -0.3651 -0.0386
28807W        W45281  13.211   3.018   4.263 -0.0581 -0.3799  0.0097
28808W        W45282   1.461  12.190   0.561  0.1652  0.2355 -0.0241
28809W        W45283  10.808   9.055   2.075  0.0889  0.0194  0.1198
28810W        W45284  17.924  12.878   3.500 -0.2624  0.0893  0.1819
28811W        W45285   8.552   4.721  11.367 -0.1213  0.1505  0.3013
28812W        W45286   5.671  17.523  13.884 -0.0946  0.0481  0.0305
28813W        W45287   5.265   4.171  15.812 -0.2069 -0.2207  0.0548
28814W        W45288   6.885   3.097   0.734  0.3034 -0.0413  0.1847
28815W        W45289  12.136   1.986   0.344  0.1251  0.0306 -0.0450
28816W        W45290  14.855  15.220  15.087 -0.2390 -0.2451  0.3613
28817W        W45291  11.607  13.261   1.735 -0.2163  0.0246 -0.1931
28818W        W45292   6.656   5.062   1.716  0.2265  0.0545  0.1396
28819W        W45293   6.165   3.444  13.319 -0.0072  0.1127  0.2238
28820W        W45294   9.050  13.888  16.049  0.0645 -0.0208  0.2654
28821W        W45295   5.437  15.040   4.760  0.0684 -0.0595  0.0495
28822W        W45296   7.406   8.005   1.753 -0.2608 -0.2736 -0.3385
28823W        W45297  18.162   8.189  12.354 -0.2148  0.1810 -0.1506
28824W        W45298   3.255  12.135   1.413  0.0637 -0.0385 -0.1853
28825W        W45299  16.309   7.753   0.222 -0.0307  0.2730 -0.1418
28826W        W45300   5.866  11.285  16.339  0.1493 -0.0308  0.2017
28827W        W45301   2.331  11.954   2.588  0.1066 -0.2647 -0.1383
28828W        W45302  14.933   3.464  15.157 -0.0836  0.2789  0.2636
28829W        W45303  13.727   7.928  14.736 -0.3559  0.0125  0.0406
28830W        W45304   6.216   4.120   0.129 -0.0849  0.0623  0.2145
28831W        W45305   6.922   7.581   0.156  0.0318 -0.1577 -0.1471
28832W        W45306  10.386   6.129   1.474  0.1149 -0.0493  0.1994
28833W        W45307   9.286   9.713   3.111  0.1164 -0.1892  0.0262
28834W        W45308   9.676   8.155   0.908 -0.3786 -0.1531 -0.2313
28835W        W45309   0.464   5.950  15.111 -0.1613 -0.1447  0.0403
28836W        W45310   9.859  15.367   5.182  0.0337  0.1419  0.1122
28837W        W45311   7.367   2.074   4.890  0.0199 -0.0073 -0.1117
28838W        W45312   7.000  15.032   4.563  0.2483  0.0486 -0.1880
28839W        W45313  17.881   3.699   4.314  0.1613 -0.0617  0.0837
28840W        W45314   5.834  12.617  15.452  0.2582 -0.1210 -0.0530
28841W        W45315  13.787   8.114   1.595 -0.0644 -0.3557  0.0357
28842W        W45316  16.959  11.297   2.725 -0.1278  0.0181  0.3088
28843W        W45317  12.059  16.904   1.106  0.1390  0.1353  0.1918
28844W        W45318  14.087   7.468   0.688  0.0678  0.0198  0.0665
28845W        W45319  17.212  14.601  11.340  0.2686 -0.0862 -0.2820
28846W        W45320  11.010  16.342   0.289  0.0443 -0.1067  0.1365
28847W        W45321  13.832   3.314   2.654 -0.3893  0.0706 -0.1116
28848W        W45322  13.387  14.964   6.418 -0.1987 -0.2422 -0.3118
28849W        W45323   1.930  13.979   5.376  0.0612 -0.0551  0.1274
28850W        W45324  15.355   9.873  11.812  0.2596  0.0826 -0.2990
28851W        W45325   0.733   9.229   5.147  0.0528  0.1066 -0.0383
28852W        W45326  11.896   8.714   1.348  0.2713  0.0364  0.1791
28853W        W45327  18.388   8.870  16.136  0.1898 -0.5649  0.3995
28854W        W45328   8.196  14.181   0.909  0.2644 -0.1374  0.0285
28855W        W45329  14.875  10.859  16.032  0.1174  0.2322 -0.0219
28856W        W45330   5.655  16.603   4.653 -0.2653  0.1484  0.0883
28857W        W45331  14.652  16.967   2.031  0.1121  0.4149 -0.2567
28858W        W45332  13.965  17.109   3.130  0.1358 -0.2917 -0.2058
28859W        W45333  14.438  12.479   3.226 -0.1012 -0.3205  0.3775
28860W        W45334   0.810   2.273   4.153  0.0065 -0.0225  0.0540
28861W        W45335   2.207  13.819   3.026  0.1826  0.0747 -0.1727
28862W        W45336  17.445   8.843   0.818 -0.0736 -0.0706 -0.2683
28863W        W45337   7.982   9.688   3.750  0.0006 -0.1325  0.1086
28864W        W45338   6.858   3.326   4.719  0.0223  0.1374 -0.1477
28865W        W45339   6.029   7.283   2.843 -0.2262 -0.0186 -0.0329
28866W        W45340  15.339   3.715  11.647  0.2662  0.0888  0.1781
28867W        W45341   4.338   4.415  14.773  0.0499 -0.2013  0.0188
28868W        W45342   2.689   5.110   3.771 -0.1993 -0.1529 -0.1464
28869W        W45343   4.724   6.569   4.441  0.1374  0.1979  0.0685
28870W        W45344   8.221  10.870   4.087 -0.0321 -0.0109 -0.1678
28871W        W45345  15.826  12.397  13.148  0.0131  0.0536 -0.2208
28872W        W45346  18.372  11.335  15.122 -0.1421 -0.0941 -0.0952
28873W        W45347  14.012   1.763   5.479 -0.1247  0.0756  0.1544
28874W        W45348  13.346   0.985   2.787  0.2833  0.0168 -0.4560
28875W        W45349   4.998  14.076   1.637  0.3670  0.1213 -0.0718
28876W        W45350   1.176   5.543  14.641 -0.1223 -0.1997  0.0217
28877W        W45351  12.385  10.018   0.487 -0.0223  0.0422  0.2408
28878W        W45352   3.898  11.691   3.906  0.1202 -0.0990  0.0416
28879W        W45353   8.883  10.377  15.232  0.0808 -0.1308 -0.0202
28880W        W45354  13.368  16.826  12.839 -0.0898 -0.0793 -0.0005
28881W        W45355  10.868  16.035   1.585  0.2663 -0.1930 -0.0029
28882W        W45356  14.778   3.986  11.788 -0.0376 -0.3624  0.0054
28883W        W45357   9.981   4.849   1.844 -0.1462  0.4501  0.1752
28884W        W45358   6.091  11.616  15.284 -0.0097  0.0023  0.4502
28885W        W45359   7.488   4.795  14.114  0.4301  0.0288  0.4413
28886W        W45360   8.292  11.515   1.103 -0.1412  0.5628 -0.1732
28887W        W45361  17.470  14.111  14.759 -0.1880 -0.1388  0.1178
28888W        W45362  12.724  12.388  15.536 -0.0461  0.0943 -0.1613
28889W        W45363   8.822   5.364   1.634 -0.1652 -0.0134 -0.1200
28890W        W45364  10.575   4.005  12.422  0.0065 -0.0237 -0.0875
28891W        W45365  11.737   1.863  11.884 -0.0202 -0.4444  0.0915
28892W        W45366   7.371  11.270  14.792  0.1856 -0.0852  0.0706
28893W        W45367  11.666  16.494   5.408 -0.0171 -0.1984  0.2688
28894W        W45368  16.552   6.484  14.662 -0.1023  0.1171 -0.1825
28895W        W45369   4.458  12.210  12.390  0.1109  0.3488 -0.1888
28896W        W45370   5.983   0.844  15.235 -0.1715  0.0128  0.1330
28897W        W45371  14.868  15.786   2.796 -0.0863  0.0902 -0.0509
28898W        W45372  10.821  14.603  14.429 -0.4944 -0.3918  0.0380
28899W        W45373   8.892  12.816  16.163 -0.0935 -0.1006 -0.1081
28900W        W45374  13.910  11.855  12.077  0.0970 -0.2114 -0.0987
28901W        W45375   7.089   3.424   2.820  0.1837  0.0888  0.1949
28902W        W45376   9.737   3.228  11.632 -0.0467  0.1387 -0.0471
28903W        W45377   4.350   8.907  12.606  0.1287  0.0103 -0.4996
28904W        W45378   9.029  13.004   0.736  0.2524 -0.0316 -0.0141
28905W        W45379  11.334   0.361   0.609 -0.0484 -0.1035 -0.0612
28906W        W45380   1.400  18.040   1.934 -0.2618 -0.2769 -0.0069
28907W        W45381   3.371   7.887  14.899  0.0622  0.2133  0.0652
28908W        W45382   4.814   9.838  15.816 -0.0454  0.1010  0.1429
28909W        W45383  15.167   1.309   2.260 -0.4930  0.1489  0.1760
28910W        W45384  16.406   1.831   2.721  0.0829 -0.1662  0.1683
28911W        W45385  15.781   0.135  14.365  0.3132  0.2229 -0.0750
28912W        W45386   9.450   0.969   1.118 -0.2169  0.1367 -0.0634
28913W        W45387   6.643   1.859   1.123 -0.0813 -0.1939  0.0642
28914W        W45388   5.116  11.911   4.968  0.1790  0.0590  0.0339
28915W        W45389   6.662  17.372   5.008 -0.1291  0.0008  0.0398
28916W        W45390   5.246   4.302  12.063  0.1593  0.0229 -0.0300
28917W        W45391   6.850   6.001  11.402  0.1641  0.0510  0.2506
28918W        W45392   0.407   9.892  13.648  0.0332  0.0304 -0.1393
28919W        W45393   1.752  14.896  14.558  0.2216  0.1398  0.2067
28920W        W45394  13.223   6.250  11.552 -0.0521 -0.1154 -0.1365
28921W        W45395  16.907   8.301  14.090  0.3354 -0.1308  0.1377
28922W        W45396   2.998  10.996   5.171 -0.2353 -0.0807 -0.2193
28923W        W45397  18.040   6.488  14.777 -0.1189  0.2265  0.0580
28924W        W45398   4.179  17.545  16.102  0.0426 -0.1193 -0.0155
28925W        W45399   9.189  11.406   3.103  0.0609  0.0398  0.0739
28926W        W45400   0.172   7.640   4.100 -0.0337  0.1050 -0.0242
28927W        W45401  17.231  11.404   1.071 -0.0760 -0.1051 -0.1132
28928W        W45402   9.625  17.464   0.234 -0.2412 -0.0712  0.2628
28929W        W45403   3.640   9.803   0.322 -0.0134  0.1417 -0.0782
28930W        W45404   0.879  11.600  15.419  0.1526 -0.3091  0.2676
28931W        W45405   7.741   4.130  12.346 -0.5346  0.0106  0.2461
28932W        W45406   0.927   0.644   4.065 -0.0188 -0.0875 -0.0319
28933W        W45407   2.974   2.180   0.447  0.1471 -0.0036 -0.2109
28934W        W45408  10.879   5.871   0.656  0.0953  0.2106  0.0319
28935W        W45409   0.890   0.628  12.091 -0.0699  0.0203 -0.2570
28936W        W45410   8.284  15.640  14.603 -0.1161  0.2674 -0.0516
28937W        W45411   0.132   0.186   3.685 -0.2705 -0.1221  0.0703
28938W        W45412   7.736   8.863  14.283  0.1144  0.1046  0.1618
28939W        W45413   5.642   5.146  12.180  0.1473  0.1233 -0.0094
28940W        W45414  17.236   4.610   3.019 -0.0984 -0.1743 -0.2546
28941W        W45415  11.241   9.818   2.323  0.1226 -0.1338 -0.0230
28942W        W45416   9.780  14.599  15.487  0.2431 -0.0054 -0.0216
28943W        W45417   5.243   0.092   4.099 -0.3959  0.3930 -0.0511
28944W        W45418   0.989   0.793   0.493  0.0661  0.0899  0.1305
28945W        W45419   1.307  10.207   0.033  0.0655 -0.0959  0.1914
28946W        W45420  10.789   4.409  12.825  0.1258  0.1801  0.1377
28947W        W45421   7.222   4.414   5.588 -0.1883 -0.0322 -0.1553
28948W        W45422  14.315   2.029  15.975 -0.1014 -0.2461 -0.1162
28949W        W45423   4.072  15.806  11.972 -0.0914 -0.0742  0.1192
28950W        W45424   8.054   2.266   5.484  0.0720  0.3179  0.1430
28951W        W45425  15.585   5.480   2.325 -0.0400  0.0279 -0.2234
28952W        W45426   5.396   7.166  14.146 -0.0960 -0.1244  0.0306
28953W        W45427   2.283  14.998   0.512  0.0924  0.0960 -0.0426
28954W        W45428  12.531   8.207   5.161  0.2500  0.1813 -0.2993
28955W        W45429  15.974  16.498  14.827  0.0941 -0.0633  0.0566
28956W        W45430  16.859  13.161  12.740 -0.3789  0.1028 -0.1529
28957W        W45431  11.408   9.003   1.284  0.0135  0.0795  0.0391
28958W        W45432  13.814   7.342  11.317  0.1442  0.0759 -0.2984
28959W        W45433   6.399  18.250   3.253 -0.0338 -0.0545 -0.0958
28960W        W45434  17.572  10.377   0.748 -0.0660  0.0228  0.0156
28961W        W45435   4.966   7.063  14.586  0.2737  0.1978 -0.4552
28962W        W45436   7.861   7.972   4.228  0.2630  0.2726 -0.0136
28963W        W45437  14.654   2.477   0.145 -0.2516  0.0038 -0.1425
28964W        W45438  10.412   0.876   0.485  0.3061 -0.0030 -0.0364
28965W        W45439  14.508  17.951   1.763  0.1131  0.0054 -0.1970
28966W        W45440   7.958  10.592  14.359 -0.2340  0.0755 -0.0236
28967W        W45441   0.562   3.753   2.861 -0.2955 -0.1443  0.2569
28968W        W45442   8.327  12.775  12.274 -0.3129 -0.0323  0.0114
28969W        W45443   4.607  10.422  13.379  0.0715 -0.0121 -0.0862
28970W        W45444   8.187  12.639   1.692 -0.2347  0.2475  0.1995
28971W        W45445   3.768   1.039  15.777 -0.2805 -0.0672  0.0042
28972W        W45446  17.956   2.763  12.824  0.0338 -0.0035 -0.0053
28973W        W45447   3.726  12.292   0.520 -0.2400 -0.1452  0.1792
28974W        W45448  18.315  16.116  13.923  0.2024 -0.0236  0.0307
28975W        W45449   1.763   0.948  14.776 -0.5301  0.5641  0.0537
28976W        W45450  13.221   0.002   3.484  0.2104  0.1517 -0.0702
28977W        W45451   4.863   3.910  13.728  0.2096  0.1883  0.5396
28978W        W45452   9.558   4.384  11.423 -0.0166 -0.1095 -0.0622
28979W        W45453   6.365  12.293  11.996 -0.0570 -0.1442 -0.0870
28980W        W45454  12.897  16.811   4.434 -0.2916  0.0669  0.3322
28981W        W45455  17.623   3.983  14.221  0.1195 -0.0170 -0.2306
28982W        W45456  11.240  15.098  13.089  0.0839  0.0114 -0.0187
28983W        W45457  13.826  11.116  10.017 -0.1527  0.1570  0.0741
28984W        W45458   0.097  14.061   3.928  0.0069 -0.1414 -0.1542
28985W        W45459   8.947  12.383  11.650  0.1060 -0.2613 -0.1138
28986W        W45460  16.948   0.730  13.307 -0.1611  0.1900 -0.0237
28987W        W45461   7.440  15.901   2.172  0.1511  0.0378 -0.0027
28988W        W45462  11.781   1.160  14.561 -0.1074 -0.0151 -0.0178
28989W        W45463   6.874  11.173  15.696 -0.2661 -0.1927  0.0565
28990W        W45464   7.546  10.737   5.021  0.1308 -0.1030 -0.2370
28991W        W45465  16.147   8.338  13.048  0.1917  0.1435  0.0422
28992W        W45466   5.078   1.555   0.659  0.1411  0.0103  0.3698
28993W        W45467   9.220   9.929  16.055 -0.2023  0.4104 -0.1226
28994W        W45468   6.557  14.937   0.053 -0.2405  0.0521  0.2930
28995W        W45469   8.402   4.109   0.139  0.1946 -0.0924 -0.0919
28996W        W45470  16.829   8.397  11.678  0.0205 -0.0730 -0.3199
28997W        W45471  14.256   1.833  12.512  0.0869  0.0680  0.1325
28998W        W45472   9.523  10.422  13.142 -0.3067  0.3306 -0.0866
28999W        W45473   2.781   1.751   1.290  0.1960 -0.1398 -0.0659
29000W        W45474   5.295   8.616   0.417 -0.0614  0.1095  0.0197
29001W        W45475  12.090  13.978  11.290  0.0094  0.1336 -0.1180
29002W        W45476  15.838  14.712  13.644 -0.3092  0.2255 -0.1364
29003W        W45477  10.993   7.982  15.835  0.0283 -0.1630  0.0839
29004W        W45478  16.711  16.094   2.362  0.0297 -0.1425 -0.3596
29005W        W45479  15.201  16.432  14.060  0.5480  0.1913 -0.0098
29006W        W45480   4.423   0.866   4.717  0.1139  0.2646  0.3367
29007W        W45481   2.134  16.367   1.850  0.2773  0.5067 -0.1000
29008W        W45482  12.255   2.393   1.907 -0.3690  0.1113 -0.2835
29009W        W45483   1.114   4.459   3.847 -0.1267  0.1138  0.0802
29010W        W45484  15.460   9.411  14.765 -0.0223  0.0037  0.1178
29011W        W45485   1.732  11.279   0.082  0.0053 -0.0630 -0.0073
29012W        W45486  13.333   1.976   5.018  0.1959 -0.0443  0.0809
29013W        W45487   7.820  17.018   3.877 -0.0726 -0.1665 -0.1139
29014W        W45488  12.101   9.665   4.564 -0.0883 -0.1057  0.0065
29015W        W45489  16.824   1.661   1.225  0.2784 -0.0968  0.0072
29016W        W45490  11.630  16.760  12.996 -0.1037 -0.0578  0.0331
29017W        W45491  14.769   6.646  14.490 -0.0354 -0.0934  0.0318
29018W        W45492   3.780   8.063   4.287 -0.3180 -0.1738  0.2996
29019W        W45493  17.529   2.272   4.328  0.0981 -0.0036 -0.2258
29020W        W45494  17.852   2.593  15.243 -0.2350 -0.1052  0.2438
29021W        W45495  16.763  16.854   2.853 -0.2462 -0.0333 -0.0346
29022W        W45496  17.226  18.239   4.435  0.1563  0.0635 -0.0036
29023W        W45497  11.298   2.869  14.800  0.1096  0.0465  0.1655
29024W        W45498   1.380   2.889  15.187 -0.1010 -0.3452  0.2228
29025W        W45499   5.706  11.449  14.901 -0.1791 -0.0996  0.2868
29026W        W45500   2.197  13.731   0.769  0.1382  0.2212 -0.0648
29027W        W45501  15.843   3.373  10.453  0.2193 -0.1111  0.1382
29028W        W45502   8.012   8.265   3.850 -0.2141  0.1244 -0.0866
29029W        W45503  10.433   1.908   4.207  0.1823 -0.0463  0.2484
29030W        W45504   7.768  16.320   1.302  0.1953  0.3146  0.1062
29031W        W45505  17.180  10.296  14.638  0.1197  0.1299 -0.1273
29032W        W45506   7.190   1.445   2.406 -0.2246 -0.1103 -0.0016
29033W        W45507   7.795  16.406  15.943 -0.4469 -0.2080 -0.2386
29034W        W45508  16.750  13.558   1.845 -0.0597 -0.4671 -0.1533
29035W        W45509  18.201   2.363   2.661  0.0671  0.1821  0.0784
29036W        W45510  12.707  14.736  14.632 -0.0467 -0.2359  0.2050
29037W        W45511   9.351  18.266  12.620  0.2700 -0.1868  0.1736
29038W        W45512  14.466  17.022   4.576  0.2790 -0.2234 -0.2598
29039W        W45513   3.315  15.184   2.166 -0.3324 -0.3924  0.1205
29040W        W45514   4.946   2.004   4.755  0.0325 -0.1615 -0.3548
29041W        W45515   5.303  16.164  15.831  0.2972 -0.2498  0.0838
29042W        W45516  14.049   5.232   1.947 -0.2803  0.1558 -0.0783
29043W        W45517   5.431   9.840   3.357 -0.3214 -0.3223 -0.1140
29044W        W45518  10.289  10.519  13.043 -0.3536  0.2087  0.1121
29045W        W45519  14.906   6.848  11.270  0.1839  0.2236 -0.3451
29046W        W45520   0.328   7.624  13.594  0.2177  0.1240  0.1689
29047W        W45521  10.236  14.373   1.882  0.3898  0.0927 -0.1539
29048W        W45522  12.713  11.257  10.950  0.3158 -0.0543  0.0547
29049W        W45523  16.474   3.642  12.728  0.2280 -0.3090 -0.1180
29050W        W45524  10.970   3.273   1.618  0.0561 -0.2967 -0.0160
29051W        W45525   2.840   5.282   1.354 -0.0874 -0.0281  0.1627
29052W        W45526  12.320  12.042  11.243 -0.2998  0.2521 -0.1428
29053W        W45527  12.550  11.903   0.580  0.2098  0.4082 -0.2227
29054W        W45528   3.070   1.712  14.265  0.4087  0.0880 -0.3341
29055W        W45529   1.873  17.047   6.383 -0.1507 -0.0910  0.3099
29056W        W45530   9.347   3.986  13.164 -0.0084  0.0636  0.2194
29057W        W45531  14.551  11.326  14.509  0.0212  0.0911  0.0818
29058W        W45532   7.360  14.274  14.274  0.2347 -0.2830  0.2746
29059W        W45533   8.674  13.717  15.476  0.1358 -0.3186  0.4194
29060W        W45534   9.905  16.779  12.449 -0.1049 -0.2905  0.2078
29061W        W45535  13.506   9.067  13.679  0.0305 -0.1606  0.1740
29062W        W45536   8.533  13.903   0.580 -0.0070  0.1069  0.1736
29063W        W45537   2.362  16.709   5.156 -0.1515  0.0723  0.0611
29064W        W45538   8.953   6.506   2.759  0.1261 -0.2872  0.3809
29065W        W45539  17.746   9.147  13.050  0.2904  0.1532 -0.1442
29066W        W45540   3.218   6.196   4.265 -0.4116 -0.1430  0.1059
29067W        W45541   1.256  13.772   2.508  0.0920 -0.0722  0.1570
29068W        W45542  14.004   0.146   5.955 -0.1070  0.0225 -0.0215
29069W        W45543   3.007   8.880   3.408 -0.1116  0.0731 -0.2222
29070W        W45544   0.375   3.787   5.714  0.2187  0.2218 -0.0874
29071W        W45545  11.767   2.388   5.700  0.0967  0.1960 -0.0233
29072W        W45546  15.019  17.218  13.578  0.1270 -0.1113 -0.1298
29073W        W45547   9.696   4.380  15.397 -0.4816  0.2911  0.3499
29074W        W45548   0.841   8.067   2.181 -0.1713  0.2351  0.1911
29075W        W45549   4.930   0.317  16.218 -0.1407  0.0858  0.2212
29076W        W45550   4.883  12.745   5.093  0.1983 -0.0313  0.0617
29077W        W45551  10.358   8.750  13.430  0.1460 -0.2881 -0.1210
29078W        W45552   1.069   1.056   3.636 -0.0406  0.0129 -0.2398
29079W        W45553   4.657   7.921  13.515 -0.1412  0.3662 -0.1567
29080W        W45554   3.713   0.977   6.275 -0.1370  0.1024 -0.1074
29081W        W45555   4.254   2.399  15.585  0.2133  0.1681  0.1409
29082W        W45556   0.112   9.963  10.877 -0.2930 -0.1460  0.1138
29083W        W45557   0.546   9.421  11.973  0.0504  0.0306  0.2028
29084W        W45558   2.043  18.008  12.503 -0.0446 -0.0002  0.0688
29085W        W45559  11.404  12.983  15.813  0.0635  0.1177 -0.1220
29086W        W45560  12.482   1.360  11.431 -0.1354  0.1236 -0.1011
29087W        W45561  16.833  12.811  13.686  0.0028 -0.0349  0.2298
29088W        W45562   3.958   6.032  14.810  0.1909  0.0741 -0.0923
29089W        W45563   0.626  10.373   4.525  0.0804  0.1612  0.0618
29090W        W45564  15.769  15.338   1.854  0.4076  0.1907  0.1922
29091W        W45565  10.286   5.887  16.339 -0.2737 -0.2596  0.0195
29092W        W45566  13.739  14.496   4.981 -0.2668 -0.0973  0.0492
29093W        W45567   2.194   7.747   0.063  0.1298  0.2158  0.1240
29094W        W45568   8.876  13.109  14.570 -0.4729 -0.1413 -0.0063
29095W        W45569   0.090  10.856  12.328 -0.2544  0.0109  0.1697
29096W        W45570   9.259   5.794   4.223  0.2134 -0.5030  0.0908
29097W        W45571   3.286  15.613   2.397  0.0566  0.1708  0.1401
29098W        W45572   2.568   9.486   0.323 -0.4888  0.1680 -0.0565
29099W        W45573   4.399  15.714   5.004 -0.1133 -0.3560 -0.1059
29100W        W45574  13.934  17.706  14.006 -0.0326 -0.0066  0.0824
29101W        W45575   6.192   3.835   0.590 -0.0207  0.0221 -0.2039
29102W        W45576   1.837   6.743  12.023 -0.1037  0.4045 -0.3499
29103W        W45577  10.192  11.966   5.867  0.2980  0.0235  0.0809
29104W        W45578   7.736  11.152  13.774 -0.0688 -0.0003 -0.1780
29105W        W45579  10.590  15.864  14.974  0.0580 -0.1140 -0.1256
29106W        W45580  18.244  13.632   3.677 -0.0301  0.1752  0.3461
29107W        W45581  12.328  15.080   3.554 -0.0422 -0.2791 -0.0773
29108W        W45582  17.795   9.627  12.341  0.0873 -0.0896 -0.4347
29109W        W45583   5.515   8.915  14.249  0.1030 -0.0914 -0.2407
29110W        W45584   6.813   8.807   4.791  0.0989 -0.1990 -0.1705
29111W        W45585  12.286   6.952   1.329  0.1581 -0.1421  0.1268
29112W        W45586  13.195   1.086   2.331  0.0566  0.0984 -0.0948
29113W        W45587   0.282   2.141   2.346  0.0896 -0.2064 -0.0791
29114W        W45588  11.968  10.360  16.218  0.0732 -0.4375  0.1166
29115W        W45589  13.296   9.984   4.873 -0.0196  0.2716  0.4528
29116W        W45590  13.308   2.080   0.565 -0.3751 -0.1934 -0.1699
29117W        W45591  14.227   5.896  15.010 -0.3817  0.2662  0.0211
29118W        W45592  15.843   9.596  16.011 -0.2094 -0.0117 -0.0016
29119W        W45593  13.427   7.571  16.283 -0.3360  0.0294  0.2610
29120W        W45594   0.129   9.318   0.454 -0.0700 -0.2163  0.1231
29121W        W45595   3.771  13.585   1.131  0.2552  0.0104 -0.0091
29122W        W45596  17.327  14.717   0.754 -0.1499 -0.0067 -0.0296
29123W        W45597  13.279   3.026  15.440  0.3512  0.1100 -0.1595
29124W        W45598   3.981  15.980   1.922 -0.0568 -0.1604 -0.3689
29125W        W45599   0.722   2.113  12.437 -0.0203  0.2362  0.0220
29126W        W45600   4.533   8.375   0.750 -0.0365 -0.1303 -0.1489
29127W        W45601  11.083  16.611  13.215 -0.4561 -0.4378  0.2878
29128W        W45602   2.946   3.223  14.806 -0.1061  0.1522 -0.0524
29129W        W45603  14.907  15.147  12.081  0.2542 -0.0857 -0.0969
29130W        W45604   1.637   0.362   3.540  0.3031  0.2367 -0.0102
29131W        W45605  13.575   1.019   3.368 -0.0674 -0.1164 -0.1244
29132W        W45606   0.942  10.484  12.371 -0.0504 -0.0639  0.1283
29133W        W45607   9.825   8.405   4.017  0.1522  0.0414 -0.0822
29134W        W45608   7.469  16.779  12.609 -0.2469  0.2704  0.0644
29135W        W45609  17.508   5.808   2.185 -0.0602  0.1001  0.0146
29136W        W45610  17.219  13.137   0.546  0.1173  0.0018  0.1152
29137W        W45611  12.620  11.893   4.797  0.1082  0.0170 -0.1606
29138W        W45612  10.792  13.262   2.085 -0.0884 -0.0331  0.0773
29139W        W45613  14.371   8.220   5.048  0.2190 -0.0002  0.0838
29140W        W45614  15.803  14.969   5.626  0.0976  0.0833 -0.3500
29141W        W45615   7.420   3.643   0.136  0.2315 -0.3588 -0.2303
29142W        W45616   9.492  18.103   0.868  0.0548 -0.0226 -0.0924
29143W        W45617   6.996   6.642  12.245 -0.1899  0.0001  0.2232
29144W        W45618   0.178   6.923  12.069 -0.2587 -0.0194  0.1668
29145W        W45619   7.525  13.959  13.776  0.0570  0.2710 -0.3847
29146W        W45620   8.765  15.166   1.548  0.2479 -0.3857 -0.4509
29147W        W45621  12.639  17.285  14.709 -0.0780 -0.1256  0.0789
29148W        W45622   1.017   7.620   1.398 -0.1353 -0.0954 -0.2484
29149W        W45623   3.764   9.255  15.015 -0.1983 -0.0175  0.2524
29150W        W45624  17.245   3.991   0.542  0.1528  0.1280 -0.1977
29151W        W45625   8.394  16.097   2.518  0.2980  0.0208 -0.0015
29152W        W45626  12.035   4.657  11.681  0.3883  0.0781  0.5132
29153W        W45627  14.892   6.838   4.979  0.0057  0.0392  0.0202
29154W        W45628  12.040  14.707   0.854  0.0840  0.1684  0.0965
29155W        W45629  11.978  17.552   2.017 -0.2407  0.0696  0.0940
29156W        W45630  10.587   7.909   3.443  0.1983  0.2231  0.0506
29157W        W45631  14.215  10.379  14.308 -0.1335  0.3209  0.0526
29158W        W45632   7.023   3.271  12.159  0.1627 -0.0508  0.1880
29159W        W45633  10.923  15.981  14.004  0.1072  0.0844 -0.0661
29160W        W45634  10.023  11.290  14.308  0.0566  0.3071  0.1055
29161W        W45635  13.364  18.359   1.046  0.1709  0.0168  0.1370
29162W        W45636  17.352  18.291  13.860  0.3250 -0.1551 -0.1913
29163W        W45637  17.646   8.623  12.973 -0.1698  0.2081  0.1199
29164W        W45638   8.334   3.926  12.944 -0.0447 -0.1718 -0.0806
29165W        W45639   3.176   1.678   0.256  0.2102 -0.1138  0.1146
29166W        W45640  12.963   1.864  14.313 -0.1015  0.3446  0.1293
29167W        W45641   2.665   1.929   6.146  0.4717 -0.4517 -0.0327
29168W        W45642   5.319   2.180   6.366  0.2060 -0.2297  0.0845
29169W        W45643  10.591   4.521   3.934 -0.1733  0.5020  0.1270
29170W        W45644  11.829   4.662   2.207 -0.1611 -0.0228  0.0280
29171W        W45645  15.027  16.547   3.908 -0.2501 -0.0024  0.1873
29172W        W45646   8.708   3.134  13.577 -0.0847  0.0672  0.0402
29173W        W45647   7.585   0.633  14.982  0.3154  0.2599  0.1249
29174W        W45648   8.371  14.366  10.739  0.0018 -0.2214 -0.0289
29175W        W45649  11.862  12.162   1.466 -0.0984  0.2337 -0.1208
29176W        W45650   0.708   0.989   1.738 -0.0713 -0.0109 -0.3504
29177W        W45651  16.918   0.220   2.332 -0.2320  0.4650  0.2047
29178W        W45652   8.771  12.343   6.082  0.0117 -0.0216  0.4728
29179W        W45653   8.815   7.816  11.996 -0.3048 -0.1254 -0.3973
29180W        W45654   2.905   7.926  11.331  0.3408  0.0911  0.1045
29181W        W45655  15.128  12.570   2.504  0.2140  0.2224 -0.1976
29182W        W45656  17.346  13.122  12.581  0.3419 -0.3343  0.3487
29183W        W45657   8.865   5.809   3.866 -0.2113  0.1678  0.3399
29184W        W45658   8.048  16.287  15.483 -0.0641  0.0404 -0.0913
29185W        W45659   2.126  15.740   3.350 -0.0713  0.5186  0.2913
29186W        W45660  14.084  13.184   5.313  0.3009  0.0333  0.0729
29187W        W45661  17.064   6.722   1.900 -0.0656 -0.2595  0.2286
29188W        W45662   8.486  13.011  13.352  0.0701 -0.0597  0.0260
29189W        W45663  10.565  17.207   2.209  0.1531 -0.0855 -0.0199
29190W        W45664   6.970   8.094  12.036 -0.3120  0.5558 -0.2476
29191W        W45665  17.354   5.005  16.111  0.2682  0.2116 -0.4255
29192W        W45666   8.821   0.240   1.716 -0.3144 -0.1802 -0.3112
29193W        W45667   9.806   9.847   3.192  0.0727 -0.1206 -0.0867
29194W        W45668  13.124  16.859  16.102  0.1066  0.1922 -0.3451
29195W        W45669  10.976  17.630   5.695 -0.0633  0.1906 -0.0388
29196W        W45670  14.372   5.730  14.476  0.2612  0.2474 -0.0213
29197W        W45671   8.153  17.045   0.886 -0.1537 -0.3435 -0.0312
29198W        W45672  10.571   8.995  13.823  0.2095  0.0001  0.0205
29199W        W45673  10.835  16.538   1.554 -0.1153 -0.1870 -0.1926
29200W        W45674  12.153   2.332   4.224  0.0469 -0.3218 -0.1030
29201W        W45675  15.490  14.787   0.055 -0.1518  0.0553  0.1092
29202W        W45676   7.173  17.060   2.350 -0.1505  0.2273 -0.0110
29203W        W45677   8.841  17.955  10.773  0.2204 -0.0081 -0.0378
29204W        W45678   3.385  15.292   3.877  0.1888 -0.1433  0.1224
29205W        W45679  18.057  15.344   1.737 -0.0023  0.1341  0.0488
29206W        W45680   2.856   3.762  15.684  0.0118 -0.1139  0.1824
29207W        W45681  11.940  16.542  12.637  0.0665  0.2704 -0.1971
29208W        W45682  13.039   8.378  16.241  0.3127  0.0927 -0.0058
29209W        W45683   1.908   2.322   5.159 -0.1130  0.0325  0.0156
29210W        W45684  14.660  15.854  15.976  0.0231  0.0236 -0.3207
29211W        W45685  17.177  17.044   0.120 -0.1539  0.0775  0.1605
29212W        W45686  16.566   5.996   1.659 -0.2829 -0.0235  0.1015
29213W        W45687  15.520   8.022   3.351  0.2329  0.2680  0.1006
29214W        W45688  10.862   0.129   2.208  0.0044  0.1767 -0.2162
29215W        W45689   2.203   6.228   1.695  0.1657  0.1289 -0.0194
29216W        W45690  11.871  12.575   2.919 -0.1463  0.1253 -0.1520
29217W        W45691   1.225  14.673   2.256 -0.0427  0.1687  0.0809
29218W        W45692   6.797   4.585   2.752  0.0027 -0.0735 -0.2432
29219W        W45693  12.225   5.601  12.537  0.2873  0.2012 -0.1021
29220W        W45694  11.961   0.742  13.258 -0.1789 -0.2768 -0.1977
29221W        W45695   5.377  12.329  11.904 -0.1793 -0.3331 -0.0835
29222W        W45696   9.163  13.920   6.135  0.1366 -0.0125 -0.0094
29223W        W45697   8.955   8.455  13.593 -0.0086 -0.0850  0.1149
29224W        W45698  18.046  10.269   5.834  0.1530  0.0515 -0.1769
29225W        W45699   0.360  17.288   0.189 -0.0397  0.1376  0.1565
29226W        W45700   1.716   1.183   1.180  0.1434  0.0500  0.4202
29227W        W45701   2.078   2.705  14.507  0.2097 -0.3398 -0.0461
29228W        W45702  15.635  16.209   1.592  0.0983 -0.1011  0.2344
29229W        W45703   1.193   4.260  11.751  0.1266 -0.2185 -0.0503
29230W        W45704   3.917   8.141  14.146  0.2175  0.0097  0.1774
29231W        W45705   6.169   6.117   1.166  0.0887  0.1951  0.1716
29232W        W45706  11.707  15.127   1.174  0.0664  0.2344  0.1126
29233W        W45707   4.556  15.712   3.026  0.0630  0.1229  0.0151
29234W        W45708  15.549  13.846  12.353  0.1743  0.1359 -0.2688
29235W        W45709   1.231  11.691  13.911  0.2142 -0.2886 -0.0005
29236W        W45710  13.290  15.464   0.966 -0.0027  0.1308  0.3198
29237W        W45711  16.720   4.130   2.143 -0.0242 -0.1199 -0.0254
29238W        W45712  13.565   6.626  13.557  0.2366 -0.0532  0.1448
29239W        W45713  12.789   8.579  14.721 -0.0943 -0.1138 -0.1209
29240W        W45714   8.152  14.096   2.650  0.0375  0.1372 -0.2374
29241W        W45715  11.862   6.217  13.201  0.0469  0.1658 -0.1203
29242W        W45716  13.812  11.685   0.136  0.2521 -0.2494  0.0472
29243W        W45717   5.317   5.436   4.520  0.0603  0.1699  0.0532
29244W        W45718  12.820   6.410  11.047  0.0141 -0.2580  0.1934
29245W        W45719  11.298   2.328   5.609 -0.1312 -0.1169 -0.2783
29246W        W45720   0.332  11.724  12.189  0.1327  0.0233  0.0483
29247W        W45721   8.760   4.416  16.253  0.1877 -0.0598  0.2567
29248W        W45722  15.178  13.684   0.341 -0.3373 -0.2461 -0.0792
29249W        W45723  17.598   7.800  15.925 -0.0064 -0.1356  0.1319
29250W        W45724   2.469  15.768   2.785  0.0207  0.1909  0.1315
29251W        W45725   7.397  16.993   4.612  0.2001 -0.0145 -0.0255
29252W        W45726  15.382  14.699  12.866  0.4491  0.1119 -0.1182
29253W        W45727  12.397  10.650  14.744 -0.1117 -0.1563 -0.0832
29254W        W45728   7.513  14.434  12.693 -0.1536 -0.1053  0.2290
29255W        W45729   5.471  17.308  11.599  0.0537 -0.0232 -0.1180
29256W        W45730   2.643  15.272  14.457  0.0297  0.3472  0.1109
29257W        W45731  16.364  16.964   4.200 -0.0584 -0.5967  0.1874
29258W        W45732   2.577   7.227  12.444 -0.0263 -0.0950  0.1691
29259W        W45733   2.805   1.620  12.771  0.0706  0.0004  0.0541
29260W        W45734  11.773  16.152   5.001 -0.1546  0.0128  0.1279
29261W        W45735  16.642   8.851  14.385  0.0996 -0.2652 -0.0369
29262W        W45736  18.333  14.958  12.830  0.0644  0.3662 -0.2151
29263W        W45737   9.427  17.265  11.722  0.1855 -0.4071 -0.0710
29264W        W45738   8.071  12.899  14.403 -0.0652 -0.1377  0.3460
29265W        W45739   1.934  15.481   0.581 -0.1657 -0.0409  0.2392
29266W        W45740   5.727   3.768   0.826  0.2537 -0.2667  0.1878
29267W        W45741  15.615  11.065   4.128  0.1124 -0.2098  0.1058
29268W        W45742  14.454   0.630  15.008 -0.2198 -0.0291  0.0135
29269W        W45743   5.632   7.454  12.377  0.2047  0.0726  0.1205
29270W        W45744  11.128   9.895  12.982  0.0117 -0.4175  0.0136
29271W        W45745  13.190   8.257  14.275 -0.3362 -0.2185 -0.1136
29272W        W45746   7.576  15.237  13.966  0.2407  0.1919 -0.3928
29273W        W45747   9.423  13.597   0.985 -0.2717  0.2641  0.3909
29274W        W45748  14.560   9.996  14.585 -0.0432  0.3105 -0.0124
29275W        W45749   3.101  11.941   4.784 -0.2037 -0.0638 -0.3130
29276W        W45750   9.847  18.237   4.357  0.0398 -0.2755 -0.4584
29277W        W45751   3.672   0.656   0.744  0.0173 -0.1129 -0.1056
29278W        W45752   8.010  17.999   4.050 -0.3406 -0.1672 -0.0795
29279W        W45753  17.428  10.506  12.328 -0.0518  0.1512 -0.3015
29280W        W45754   0.299  14.685   5.654  0.1466 -0.0186 -0.4000
29281W        W45755  15.976  12.647  11.829  0.0186 -0.0454 -0.0426
29282W        W45756   1.174  17.386   3.575 -0.1833  0.1336 -0.2386
29283W        W45757   6.510   8.175  11.778  0.0127 -0.0178  0.1672
29284W        W45758  13.020   8.353   4.409  0.1716 -0.0452 -0.0935
29285W        W45759  17.038   6.925  12.167 -0.0860  0.0762  0.1515
29286W        W45760  14.187   4.821   2.164  0.3563 -0.4625  0.1207
29287W        W45761   8.932   7.393  12.402  0.2264  0.1188 -0.0341
29288W        W45762  12.781  16.045  15.040 -0.1357  0.0334  0.1068
29289W        W45763   8.564  16.383  14.275 -0.4620 -0.3251  0.0338
29290W        W45764  10.070  14.249  12.005 -0.0094 -0.0687 -0.0480
29291W        W45765  15.502   9.554  14.210 -0.2442 -0.0153  0.3165
29292W        W45766   6.141   4.036  15.791  0.0647 -0.2212  0.2580
29293W        W45767   8.102   7.666  13.442 -0.2712 -0.0962  0.2923
29294W        W45768   1.103  17.745  13.795 -0.0543  0.0965 -0.0923
29295W        W45769  17.383   9.491   2.501 -0.0951 -0.2583  0.0102
29296W        W45770   6.358   9.523   3.542 -0.1505 -0.2121 -0.0839
29297W        W45771   7.478   3.942   3.906 -0.0118  0.0153 -0.2874
29298W        W45772   1.504   5.960  14.830 -0.2652  0.0497  0.1709
29299W        W45773  17.747  17.767   1.915  0.0912  0.0236  0.3627
29300W        W45774   2.063   5.391  11.703 -0.0219 -0.1796 -0.3180
29301W        W45775  17.355  11.803  16.043 -0.1127 -0.0558  0.1886
29302W        W45776  15.383   7.235   0.755 -0.0800  0.0505  0.0734
29303W        W45777   2.898   7.852   3.086  0.0408  0.0042  0.1833
29304W        W45778   9.096   5.371   3.524 -0.2490  0.0931 -0.1738
29305W        W45779   3.297   2.842  14.716 -0.0384  0.2117 -0.0678
29306W        W45780  13.829   5.534  11.168  0.0684  0.2234  0.1892
29307W        W45781  15.117  13.197  14.524  0.0697 -0.3429 -0.1591
29308W        W45782   3.121  16.027  16.135 -0.2170 -0.1327 -0.1100
29309W        W45783   8.550   8.897   3.936  0.1497  0.4912 -0.0154
29310W        W45784   7.519   5.151  11.304  0.0305  0.0545  0.1540
29311W        W45785   1.453  17.939   1.116  0.0006 -0.2090 -0.1346
29312W        W45786   3.701  17.691   5.700 -0.0681  0.2823 -0.3211
29313W        W45787  13.390  16.298   5.457  0.1868  0.0941  0.2357
29314W        W45788   1.587  10.443   1.561  0.0252 -0.3158 -0.1086
29315W        W45789   2.963   8.842  13.276  0.1801 -0.1461  0.4272
29316W        W45790   5.699   0.944   0.469 -0.0350  0.1520  0.0814
29317W        W45791  18.054   2.995   4.892 -0.2943  0.1455 -0.0853
29318W        W45792   5.217  14.655  12.833 -0.2009  0.0460  0.0904
29319W        W45793   1.056  10.362  12.970  0.1328 -0.3315 -0.1870
29320W        W45794   4.288  12.615   0.471 -0.0290 -0.1717  0.0420
29321W        W45795   2.002   8.388  15.430  0.0769  0.2399 -0.0743
29322W        W45796   1.738   6.334  10.918 -0.1578  0.0848 -0.3087
29323W        W45797  11.130   3.870   2.736 -0.1147 -0.0953 -0.1769
29324W        W45798  10.049   3.260   1.552  0.0670 -0.1238 -0.1146
29325W        W45799   1.017  14.397   4.296  0.0797  0.0782  0.1751
29326W        W45800   2.353  12.726  15.566  0.1682 -0.1976 -0.4071
29327W        W45801   4.235  16.627  12.129 -0.1714 -0.0442 -0.0248
29328W        W45802  18.236   7.326  11.999 -0.0764 -0.1694 -0.4055
29329W        W45803  10.530  14.401  12.138 -0.0339  0.0772  0.3626
29330W        W45804  14.204   5.646   2.356  0.2912  0.1512 -0.2103
29331W        W45805   7.324   0.540   2.468 -0.0842  0.0545  0.0329
29332W        W45806  16.660   0.909   5.026 -0.0210  0.2861  0.2227
29333W        W45807   9.347  13.491   2.120 -0.0986 -0.0972  0.0200
29334W        W45808  16.844  12.423  12.014 -0.0113 -0.1688 -0.1522
29335W        W45809   8.932   1.792  13.912 -0.0490  0.0190  0.0756
29336W        W45810   2.738   9.957  13.463 -0.0102 -0.0849 -0.0297
29337W        W45811   8.222  11.430  11.670 -0.2423 -0.1382 -0.1112
29338W        W45812   3.402  12.597   2.278  0.1266  0.2394  0.0173
29339W        W45813   4.164  13.617  14.211 -0.0961 -0.1642 -0.1452
29340W        W45814  16.255   1.777  11.974  0.0878 -0.1131 -0.3104
29341W        W45815   8.218   6.959   5.193 -0.2375 -0.1438 -0.2217
29342W        W45816  18.038  12.833  14.738  0.0424  0.1484 -0.0608
29343W        W45817  14.947   4.758  11.450  0.2504 -0.0928  0.2476
29344W        W45818  13.816  14.194   1.024 -0.4320  0.1794  0.5294
29345W        W45819   5.798  13.063  14.129  0.0933  0.2776 -0.0396
29346W        W45820  14.243  10.129  13.200 -0.1387 -0.1833  0.1260
29347W        W45821   2.137   5.388  14.792  0.0903  0.0876  0.0026
29348W        W45822   7.955   7.373   2.535  0.2026 -0.0125 -0.0499
29349W        W45823  14.474  17.891   4.051 -0.2186  0.0225  0.0274
29350W        W45824  18.315  12.680  14.379  0.2494  0.2439  0.1013
29351W        W45825   2.701  13.394   5.465 -0.1411 -0.0292  0.0903
29352W        W45826   8.920   5.872   3.338  0.0979 -0.1392  0.1181
29353W        W45827  13.351   7.807  13.340 -0.2273 -0.1264  0.0973
29354W        W45828  10.306   1.565  13.817 -0.0308  0.0728  0.0247
29355W        W45829   8.924   1.027   1.341  0.0471 -0.1321  0.0773
29356W        W45830  17.352  17.788   3.436 -0.1722 -0.3581 -0.0989
29357W        W45831   6.430   8.010  13.205 -0.0176  0.2061  0.3346
29358W        W45832   3.764  17.673   4.418 -0.2038  0.1293 -0.1644
29359W        W45833   2.601   9.195  16.256 -0.2679  0.0812  0.1093
29360W        W45834   3.380   6.563   2.370 -0.1606  0.0929  0.2995
29361W        W45835   3.286  10.978   4.422  0.0149  0.1224 -0.3022
29362W        W45836   8.990   4.189  11.885  0.0046 -0.3843 -0.0107
29363W        W45837   7.900   9.612  12.518  0.1879  0.2703  0.1084
29364W        W45838  13.643  11.402  11.250  0.1870 -0.2401 -0.2023
29365W        W45839  10.112  12.484   3.175  0.1006  0.0562  0.0473
29366W        W45840   9.135   7.835   0.850 -0.3541  0.0040 -0.0158
29367W        W45841   2.582  16.860   2.977 -0.0201 -0.0863 -0.0277
29368W        W45842   1.231   4.962  13.910 -0.2218 -0.0818 -0.3117
29369W        W45843  18.089   6.988   1.683  0.2907  0.3494  0.0107
29370W        W45844   3.266   2.758  11.366 -0.0668  0.1278  0.1478
29371W        W45845   7.031   2.936  15.075 -0.0125  0.0877 -0.0532
29372W        W45846   3.459  18.325   1.211  0.2214 -0.2491 -0.1487
29373W        W45847   2.941  15.175   1.810 -0.3846 -0.0550  0.0086
29374W        W45848  17.695  11.482   4.730  0.1395 -0.2234 -0.1019
29375W        W45849  12.516   3.697  16.005 -0.2658  0.0990 -0.0736
29376W        W45850   2.071  18.348  12.868 -0.0494  0.2040 -0.3743
29377W        W45851  18.357  15.411  12.513  0.1132  0.0980  0.1583
29378W        W45852   5.981  14.624   2.967  0.0023 -0.0323  0.1031
29379W        W45853   3.793   2.901  12.539 -0.1671 -0.3751  0.0896
29380W        W45854  18.038   4.844   0.452 -0.3030 -0.2985 -0.1417
29381W        W45855   9.188   7.180  12.792 -0.0363 -0.1910  0.1282
29382W        W45856   7.978  13.812   0.427 -0.0599  0.3427  0.2265
29383W        W45857   0.935   9.262   4.662  0.1473 -0.1658 -0.2487
29384W        W45858  15.096   0.897  11.911  0.0711  0.0360 -0.1281
29385W        W45859   9.581  16.943   0.027  0.1567  0.3502  0.3323
29386W        W45860   7.123   7.271   4.222 -0.0714 -0.0566  0.1438
29387W        W45861  18.312   0.307  12.328  0.1372 -0.3388 -0.1189
29388W        W45862  16.596  15.627   2.761  0.1593 -0.2299  0.0213
29389W        W45863   9.649   8.089  13.961  0.0107  0.3423  0.0926
29390W        W45864   3.009  16.116   2.356 -0.0467  0.0884 -0.0468
29391W        W45865   1.779   9.451   4.833  0.2003  0.0423 -0.1547
29392W        W45866   6.875  18.061   3.333 -0.1936 -0.0015  0.2096
29393W        W45867   8.389  10.815   1.556  0.0393  0.0389  0.4336
29394W        W45868  16.924   8.045  13.592  0.0670  0.2395 -0.1043
29395W        W45869   3.571   6.796  12.375 -0.0682 -0.0899 -0.0381
29396W        W45870  12.734   7.494  13.854 -0.0211  0.2510 -0.1718
29397W        W45871   4.022   9.333   3.535  0.1032  0.1156  0.0765
29398W        W45872  13.218   2.409  14.411  0.1362  0.0068 -0.1726
29399W        W45873  13.546  14.432  15.184 -0.1187  0.1069 -0.0757
29400W        W45874  13.022   0.367  13.280  0.0908 -0.1894 -0.0976
29401W        W45875  11.749   5.277   2.839  0.0952 -0.2359  0.0219
29402W        W45876  11.343   3.931   4.867 -0.0072 -0.1560 -0.0033
29403W        W45877   5.087  13.377   2.473 -0.3288 -0.1328 -0.1048
29404W        W45878  14.858   4.690   4.448  0.1259 -0.1896  0.1721
29405W        W45879  14.579  16.057   3.080  0.2316  0.2359 -0.1627
29406W        W45880  12.041   9.600   0.744 -0.2600 -0.1602  0.2786
29407W        W45881  11.966  11.714   0.569 -0.0902 -0.0411  0.3240
29408W        W45882   6.861  13.962  11.205  0.3080  0.2285  0.2536
29409W        W45883  16.326   2.404  11.197 -0.1502 -0.2616  0.2786
29410W        W45884  12.835  16.813  13.935 -0.0081 -0.4066  0.1528
29411W        W45885  10.268   2.277   3.510 -0.2650  0.2812 -0.0127
29412W        W45886  15.876  10.431   3.893 -0.0224 -0.2120 -0.0816
29413W        W45887   9.362   5.089  10.853  0.2042  0.1632 -0.0607
29414W        W45888   1.702  14.597   1.716 -0.2185 -0.1271  0.0298
29415W        W45889  13.027  17.522   3.313  0.1702  0.1902  0.0395
29416W        W45890  17.035   2.109   6.445 -0.2048  0.2527  0.1380
29417W        W45891   6.490   8.986  12.160 -0.0678  0.3032 -0.2858
29418W        W45892  17.456  12.416   3.402  0.0136 -0.1518 -0.2294
29419W        W45893   3.745   9.512   5.407  0.1657  0.4023  0.0603
29420W        W45894  18.078   4.887   3.650 -0.0690 -0.1966 -0.2108
29421W        W45895  16.771   5.182   1.113 -0.2423  0.0893 -0.0701
29422W        W45896  11.565   4.008  11.745  0.1596 -0.1027  0.1028
29423W        W45897   8.735  11.161  15.447  0.0987  0.1082  0.4057
29424W        W45898   8.052   7.195  12.278  0.1307 -0.0225 -0.1589
29425W        W45899   9.858   9.804  13.195  0.2213 -0.2283  0.0676
29426W        W45900  10.315   3.569  12.341 -0.3106  0.0818  0.2036
29427W        W45901   2.049   8.837  13.180 -0.1612  0.2081 -0.0436
29428W        W45902  18.038  12.561  13.717  0.0948 -0.2645  0.3145
29429W        W45903  13.425   1.168   0.987 -0.1838 -0.0886 -0.2036
29430W        W45904  16.461  17.888  14.904 -0.1989  0.1018  0.1084
29431W        W45905  18.121  13.549  15.796  0.4061  0.2291 -0.1632
29432W        W45906  14.972  11.421  15.787  0.4051  0.0356  0.0342
29433W        W45907  13.236   5.177  15.791 -0.1866 -0.2211  0.0550
29434W        W45908  10.114   0.490   2.847 -0.1854 -0.1933  0.3686
29435W        W45909  10.693  13.348   3.213 -0.1133 -0.1945  0.1684
29436W        W45910  13.926  16.987   0.182 -0.0308  0.1283 -0.1829
29437W        W45911   0.783   8.790   0.631 -0.0780  0.2387 -0.0605
29438W        W45912  17.890  14.841   2.787 -0.2173 -0.3886 -0.0925
29439W        W45913   3.369   0.198   2.166  0.2932  0.0582  0.1669
29440W        W45914   9.443   7.672  15.898 -0.0415 -0.2131 -0.2077
29441W        W45915   1.104   2.121   1.117  0.0173 -0.0665  0.2153
29442W        W45916   7.011   6.684  11.740  0.2728 -0.3638 -0.0009
29443W        W45917  12.416   5.190  14.668  0.1855 -0.0933  0.2589
29444W        W45918  11.184   4.879   2.968 -0.1982  0.0816  0.1822
29445W        W45919  13.843  13.289  12.500 -0.6621 -0.1335 -0.2155
29446W        W45920   2.280  17.149   3.910 -0.1981  0.1967  0.0410
29447W        W45921  12.611   9.522   2.082  0.0626 -0.0602 -0.1943
29448W        W45922   8.680  15.382   4.320 -0.1145 -0.0294 -0.0700
29449W        W45923  10.207   0.919   3.205  0.0201 -0.1656  0.0194
29450W        W45924  13.846   3.690  13.095  0.0563 -0.2261  0.1252
29451W        W45925  18.388  10.397  12.133  0.0467  0.0079 -0.0277
29452W        W45926   0.125   5.267   4.811 -0.0331 -0.0724  0.1028
29453W        W45927  12.727   5.518  12.593  0.0429 -0.0176 -0.1464
29454W        W45928  15.826  15.000   3.790 -0.1847 -0.2837 -0.0004
29455W        W45929   6.777  14.676   1.934 -0.2762 -0.0190  0.0879
29456W        W45930  13.309   7.468  15.303  0.0057 -0.0624 -0.0145
29457W        W45931  15.777   7.981   5.133 -0.0285  0.2908 -0.2462
29458W        W45932   4.463   8.312  12.390 -0.2179  0.1069 -0.1415
29459W        W45933   1.364  15.075  12.664  0.0062  0.0411 -0.1654
29460W        W45934  17.432   6.413  12.623 -0.1647  0.1138 -0.0379
29461W        W45935   6.958  16.133  15.500  0.1120 -0.0683  0.3692
29462W        W45936  13.137   4.957   1.876  0.3584  0.4168 -0.0083
29463W        W45937   9.048  18.269   1.900  0.0504  0.1692  0.1546
29464W        W45938   1.413   5.163   5.027 -0.3091 -0.0329 -0.2079
29465W        W45939  15.890  13.831   0.063 -0.0448  0.3742 -0.1250
29466W        W45940   1.463   0.184  14.494 -0.1047  0.2519  0.1144
29467W        W45941   2.959   0.247   4.381  0.2575  0.2547  0.1330
29468W        W45942  15.690  14.775   3.131 -0.0179 -0.0476 -0.3260
29469W        W45943   3.005  12.669   2.609  0.0458  0.0928 -0.0336
29470W        W45944  10.284   6.833   5.329  0.1204  0.0879  0.0291
29471W        W45945  14.217   6.743  14.502 -0.0188  0.0648  0.0543
29472W        W45946   0.155   3.389  11.774 -0.1732 -0.2534  0.0761
29473W        W45947   1.573   9.200   3.048  0.1169  0.0417 -0.0452
29474W        W45948  15.404  11.147   2.362  0.1024 -0.0749  0.0472
29475W        W45949   0.878  17.037   2.170  0.1945 -0.0369 -0.1478
29476W        W45950  10.693   1.713   4.595 -0.0926 -0.1607  0.0585
29477W        W45951  17.351   7.449   4.999  0.0395 -0.2560 -0.0901
29478W        W45952  12.782  17.977   0.232 -0.0808  0.0818  0.2060
29479W        W45953  15.170  12.983  12.304 -0.0702  0.0490  0.0853
29480W        W45954   4.181   9.853  11.658  0.2831 -0.2497  0.0223
29481W        W45955  17.445   8.189   4.450  0.0693 -0.4521  0.0753
29482W        W45956  11.316  11.715  14.076  0.2699  0.0021  0.0825
29483W        W45957   0.908  16.057   1.167 -0.0300 -0.1822  0.1973
29484W        W45958  13.902   4.387   3.597 -0.1272  0.0082 -0.2947
29485W        W45959  11.249   1.916   1.530  0.2788  0.0946 -0.0688
29486W        W45960   4.325  12.141   3.208 -0.3644 -0.1450 -0.0192
29487W        W45961   2.828   2.793   1.441  0.1815 -0.3506  0.2193
29488W        W45962   0.556  16.601  15.735  0.1619  0.3936 -0.1500
29489W        W45963   8.120   4.405  16.214  0.0338  0.2611  0.0166
29490W        W45964   5.427   7.274   0.859  0.2356 -0.2566 -0.0075
29491W        W45965   8.471   7.415   1.202 -0.2248 -0.1813  0.0193
29492W        W45966  18.248   4.122   3.061  0.1104  0.0830 -0.2608
29493W        W45967  10.832  17.217  16.219 -0.0014  0.1942  0.0088
29494W        W45968   4.042   6.563  14.448 -0.3357  0.0254 -0.0065
29495W        W45969   0.643  15.336   1.780  0.3278 -0.3119  0.4006
29496W        W45970  12.741  18.097  13.684  0.1620 -0.1644 -0.0350
29497W        W45971  13.953  14.641   1.149 -0.0790 -0.1256  0.2028
29498W        W45972   2.214   9.320   3.983 -0.0843 -0.2278  0.1605
29499W        W45973   0.048  13.759  13.790  0.0073 -0.0977 -0.0413
29500W        W45974  15.912   7.210  13.972 -0.1312  0.1718  0.0359
29501W        W45975   5.070  12.672  11.728  0.0640  0.3843 -0.0564
29502W        W45976   5.925   9.609  11.615  0.0667 -0.1709 -0.1588
29503W        W45977  10.728   9.647  12.891 -0.1269  0.0696  0.4103
29504W        W45978   6.172  17.919  14.991 -0.1227 -0.2419  0.0881
29505W        W45979  15.640  14.359  12.536  0.1871  0.2942  0.1882
29506W        W45980  12.921  11.485   4.545 -0.0284  0.0249  0.1558
29507W        W45981  10.604  18.304   4.592 -0.2845 -0.2621  0.1452
29508W        W45982  15.172  15.029  13.289  0.1032  0.0351 -0.3090
29509W        W45983   4.872  12.099  13.521  0.2076 -0.1984 -0.0666
29510W        W45984   6.258  12.679  12.881  0.0638  0.1493 -0.1231
29511W        W45985   7.792   3.612   4.584 -0.2039 -0.0496 -0.0092
29512W        W45986   5.059   2.292   0.754 -0.0720  0.3764  0.1322
29513W        W45987   5.328   7.822   5.212 -0.0669 -0.0900 -0.0772
29514W        W45988   9.957  12.074  14.003 -0.1092 -0.1777 -0.2297
29515W        W45989  18.072  13.467   1.444  0.1209 -0.0029 -0.2064
29516W        W45990   6.263   8.143  12.750  0.0386  0.0138 -0.0834
29517W        W45991   6.273   4.960   0.523  0.1915  0.4261  0.2612
29518W        W45992   2.164  13.034  15.170 -0.1856  0.0281 -0.2297
29519W        W45993  14.257   0.307   6.349 -0.0673  0.2389 -0.0153
29520W        W45994   2.631   8.591   4.444 -0.0676  0.1486  0.0232
29521W        W45995   6.663   4.837  13.632  0.0791 -0.0975 -0.2354
29522W        W45996   7.936   0.368  12.949 -0.2331  0.0124  0.1318
29523W        W45997   3.445  13.745  14.499  0.0123 -0.0371  0.0132
29524W        W45998   8.555   8.984   2.571 -0.3068 -0.0394 -0.1562
29525W        W45999  11.543   5.674   2.587 -0.0713  0.2848 -0.0445
29526W        W46000   3.625   8.303   4.714  0.1013  0.2079  0.2892
29527W        W46001   9.804  14.049   5.431  0.2410  0.2616 -0.0625
29528W        W46002   8.773  18.129   2.929  0.1838 -0.0536 -0.0716
29529W        W46003   2.457  14.919   3.743  0.4272  0.3744  0.1077
29530W        W46004  18.310   3.013  15.274  0.1184 -0.0141 -0.0917
29531W        W46005   9.923   2.168  13.686  0.1131 -0.0572 -0.3222
29532W        W46006   0.865  17.362  13.299  0.0451  0.0453  0.1059
29533W        W46007   3.448   2.011  15.592  0.0462 -0.1147  0.1081
29534W        W46008   4.307   7.139   2.132  0.0251 -0.1113 -0.2865
29535W        W46009   9.135  13.042  14.057  0.0853 -0.0479 -0.2787
29536W        W46010   7.808   7.920  15.189 -0.1760  0.0943 -0.2019
29537W        W46011  11.429   6.340  13.606 -0.3788  0.4706 -0.2610
29538W        W46012   6.695   3.961   6.302  0.1396 -0.1349 -0.1556
29539W        W46013   4.400   4.925   0.115 -0.1297 -0.0075 -0.2057
29540W        W46014  15.580  10.126   3.053 -0.0695  0.3137  0.0616
29541W        W46015   0.550   6.306   0.587  0.3092 -0.1536 -0.1942
29542W        W46016   7.342  18.282   1.138 -0.2898  0.0065 -0.1756
29543W        W46017   1.812   7.687  12.703 -0.0327 -0.2918  0.1511
29544W        W46018   1.713  11.825  14.686  0.0033 -0.2252  0.1339
29545W        W46019  11.983  10.216   4.726  0.0318 -0.0218 -0.1182
29546W        W46020  17.042   4.541  15.189 -0.0268 -0.0191  0.0537
29547W        W46021  15.031   6.952  13.779  0.2859  0.0912 -0.2599
29548W        W46022  16.307   1.147   4.602  0.0980 -0.1050  0.0575
29549W        W46023  11.694   0.107  13.557 -0.0471  0.4944 -0.1369
29550W        W46024  10.292  11.972   3.381 -0.0879 -0.0476 -0.0031
29551W        W46025  15.888   7.431  16.327 -0.1093 -0.3800 -0.2112
29552W        W46026  17.286   8.602  16.092 -0.3334 -0.0260 -0.0076
29553W        W46027  11.955   7.752   4.384  0.5461  0.0949  0.0603
29554W        W46028   6.938  15.284   1.293  0.1155 -0.1284  0.0872
29555W        W46029  15.493  11.226   0.528 -0.0691 -0.2626  0.0449
29556W        W46030  15.373  17.450   3.955 -0.0550 -0.3242 -0.0067
29557W        W46031  16.227   0.375  14.230  0.2556  0.2259  0.3236
29558W        W46032   2.445   2.845   3.657 -0.0754  0.0090 -0.4259
29559W        W46033  13.084  16.541  13.584 -0.1319 -0.0113  0.1870
29560W        W46034  15.913   2.923   4.539  0.5821 -0.2702  0.1899
29561W        W46035  18.288   6.501   4.749  0.1812 -0.2353  0.2700
29562W        W46036   1.081   4.851  12.564 -0.1413 -0.2827  0.0280
29563W        W46037  11.359  17.068  12.717  0.0288 -0.1308  0.1775
29564W        W46038   2.025   2.596   5.562 -0.2786 -0.1485 -0.2241
29565W        W46039   9.201  14.570   0.266  0.1496  0.0615 -0.0210
29566W        W46040   4.272   5.443  12.835  0.1126  0.1731  0.2059
29567W        W46041  15.396   5.250  11.766 -0.2696  0.0964  0.1480
29568W        W46042   8.594   4.401   3.239 -0.1795 -0.0402 -0.1923
29569W        W46043  10.078  15.784   0.613 -0.1475 -0.3049  0.0477
29570W        W46044   3.002   9.673   2.739  0.0411  0.2943  0.1561
29571W        W46045   5.103  12.864  12.526 -0.1949 -0.1827  0.0867
29572W        W46046  12.040  17.906   4.953 -0.0529  0.0008 -0.3991
29573W        W46047   2.188   4.625  15.908 -0.2567 -0.2456 -0.1581
29574W        W46048  17.639   1.780   3.276 -0.1210 -0.0579 -0.0514
29575W        W46049  14.271   3.206   4.963 -0.1030  0.1845  0.0734
29576W        W46050   3.928   7.801   4.717  0.0227 -0.1119  0.0915
29577W        W46051  15.909   9.724   1.774 -0.1707 -0.1577 -0.2776
29578W        W46052  10.833  16.674  14.627 -0.0183 -0.0282 -0.1065
29579W        W46053   9.258   5.078  12.054 -0.0601 -0.1784  0.2522
29580W        W46054   5.089   8.688  15.568  0.0669 -0.2367  0.3078
29581W        W46055  17.393   6.101   2.878 -0.0813  0.1485  0.0041
29582W        W46056  16.091   9.746  11.021 -0.2236 -0.2676 -0.3006
29583W        W46057  16.013  17.452   6.124 -0.1403  0.1600  0.0286
29584W        W46058   5.614   1.230  15.305  0.3195 -0.0739 -0.1843
29585W        W46059  10.007   9.385   5.793  0.0332  0.0088  0.0159
29586W        W46060  18.362   6.244   1.299 -0.2212  0.3365 -0.0658
29587W        W46061  10.063   9.583  12.245 -0.1153  0.0023  0.0485
29588W        W46062   0.474   6.507  12.217  0.1130 -0.0206  0.0817
29589W        W46063   9.311  12.112   3.776 -0.1748 -0.1327 -0.0651
29590W        W46064   7.956  16.381  14.345  0.1525 -0.0232  0.1781
29591W        W46065   6.924  17.438   0.948  0.0524  0.1747  0.0477
29592W        W46066   9.399  11.638   1.124 -0.1842  0.2699 -0.3871
29593W        W46067  11.250  15.565   5.210 -0.1848  0.2805 -0.2458
29594W        W46068   7.399  12.699  13.708 -0.0787 -0.0164  0.0851
29595W        W46069  14.056   6.806   2.990 -0.0018 -0.0850  0.1576
29596W        W46070   9.485   1.050  12.876 -0.2839  0.0009 -0.1772
29597W        W46071   8.286   3.384  12.845  0.2242 -0.1143 -0.2016
29598W        W46072  10.792   9.250   1.514  0.1031 -0.2293  0.3297
29599W        W46073   3.919   9.365  15.696 -0.1992  0.1816 -0.1281
29600W        W46074  16.903  14.873  12.844  0.0283  0.1476  0.0548
29601W        W46075   4.889  13.275   5.854  0.0679  0.1101 -0.2481
29602W        W46076   4.376   9.804  12.408  0.1402 -0.0562  0.0373
29603W        W46077   6.477  14.587   2.959 -0.3299  0.1889 -0.0753
29604W        W46078  13.171  12.459   2.160  0.2123  0.0850  0.0459
29605W        W46079  16.918  15.350   0.792  0.0077 -0.1019  0.0118
29606W        W46080   7.955   2.660   1.064  0.1963 -0.0625  0.0182
29607W        W46081  12.436  16.275  12.087  0.2142 -0.1135  0.1425
29608W        W46082  13.037  13.668  13.885  0.0340 -0.0625 -0.2200
29609W        W46083  14.720  14.435   5.543  0.0179  0.0921  0.2508
29610W        W46084  18.217  17.354  12.814 -0.0253  0.1923 -0.0314
29611W        W46085  14.903   9.086   1.270 -0.1703  0.0790 -0.3479
29612W        W46086  15.685  14.174  13.714  0.2573 -0.2143  0.3392
29613W        W46087  10.414   3.990   4.975  0.2336 -0.2641  0.3129
29614W        W46088   1.558  16.080  15.990  0.3547 -0.1828  0.0276
29615W        W46089   9.341   9.859   4.634 -0.0794  0.0094 -0.0790
29616W        W46090   9.335  13.240  12.332  0.0072 -0.0617  0.1303
29617W        W46091  13.268  12.158   3.314 -0.2512 -0.0604  0.0938
29618W        W46092  11.670   2.348  14.814  0.3170 -0.0621 -0.0631
29619W        W46093  11.410   4.487  13.773 -0.1663  0.0089  0.0978
29620W        W46094   2.747   7.906  10.610  0.1807  0.3091 -0.1519
29621W        W46095   0.524   4.028  14.247  0.3237 -0.0738  0.1802
29622W        W46096   8.185   9.800  12.181 -0.0025  0.0066  0.2197
29623W        W46097   3.407  14.354  12.110  0.0066 -0.1623 -0.0119
29624W        W46098  13.327  13.554   4.909 -0.2069  0.2248 -0.2437
29625W        W46099   8.245  17.504   1.040 -0.0189  0.1440 -0.2798
29626W        W46100   3.070   4.386   4.539 -0.0915 -0.0492  0.4262
29627W        W46101  13.933   0.759  15.148  0.0474 -0.1478  0.0913
29628W        W46102   7.563  17.919   5.074  0.3080 -0.0261 -0.1753
29629W        W46103  18.396   2.656   0.409  0.1346 -0.1006  0.3105
29630W        W46104  10.030  13.174   2.205 -0.0130 -0.1209 -0.0292
29631W        W46105  16.261  17.352   5.267 -0.0517  0.0004 -0.0583
29632W        W46106  10.340   5.540   5.670  0.0776 -0.0519 -0.1372
29633W        W46107  17.398  14.152   3.168  0.1941  0.0489 -0.0361
29634W        W46108   4.005   5.479  15.536 -0.0857  0.0957 -0.1134
29635W        W46109   5.109  18.225   5.516  0.0337  0.1036 -0.1128
29636W        W46110  16.597  16.283  14.250 -0.3128  0.0723 -0.1005
29637W        W46111   8.347   4.606   4.942 -0.0622  0.0717 -0.3383
29638W        W46112  11.357  12.279   1.835 -0.1997 -0.0482  0.3056
29639W        W46113   3.821   4.015  16.091 -0.0211  0.2199  0.0270
29640W        W46114  12.771   2.466  11.021 -0.1492 -0.0353  0.2654
29641W        W46115   6.712  15.996  14.139 -0.0321 -0.1519 -0.2355
29642W        W46116  11.282  12.822   3.644 -0.0470  0.2552  0.0873
29643W        W46117  12.284   9.561  12.813  0.1442  0.1015  0.1959
29644W        W46118  17.225  17.302  12.335  0.4676  0.3158  0.4842
29645W        W46119   4.577   8.256   3.753  0.0674  0.0355 -0.2724
29646W        W46120   7.944  16.460   2.710 -0.0479 -0.1504 -0.3211
29647W        W46121  16.174  11.329  10.771  0.0133  0.0406  0.1912
29648W        W46122   6.551  10.583  13.755 -0.1422  0.1160 -0.2797
29649W        W46123   8.471   7.391  15.975  0.2114 -0.0201  0.2927
29650W        W46124  10.007  13.056  14.100  0.1112 -0.1004 -0.2306
29651W        W46125  12.812   1.054   2.074 -0.1339  0.0261  0.0050
29652W        W46126   8.486   4.052   1.181  0.4829  0.0800 -0.0915
29653W        W46127   1.665  10.593  15.250  0.1496 -0.3539 -0.0680
29654W        W46128   2.480  11.747  12.309 -0.0780 -0.1386 -0.1575
29655W        W46129  12.599   0.270  14.506  0.3639 -0.2353 -0.2688
29656W        W46130  12.585   1.058   0.531 -0.1919  0.0569 -0.0071
29657W        W46131  15.168   3.338   2.075  0.1746 -0.3291  0.2579
29658W        W46132  15.622   7.718   0.887  0.1320 -0.4252  0.1007
29659W        W46133   3.262  17.397   2.231 -0.0487  0.0700  0.1762
29660W        W46134  16.191   4.498  13.491  0.1157  0.0517 -0.0839
29661W        W46135  12.733  14.234  12.661 -0.2328  0.0711 -0.2136
29662W        W46136   5.993  17.879   5.064 -0.0809  0.0330  0.0195
29663W        W46137   3.722  16.597  14.376  0.1404  0.0735 -0.0414
29664W        W46138   4.928  15.423  14.646  0.0452 -0.0722 -0.0566
29665W        W46139  14.017  14.648  15.050 -0.1659 -0.1008  0.0998
29666W        W46140  18.291   6.187   4.157  0.0659 -0.0297  0.2581
29667W        W46141   9.851   7.716  10.122 -0.2128  0.0080  0.0998
29668W        W46142   0.430   9.626  12.736  0.2071  0.1837 -0.1533
29669W        W46143  14.705  15.775   3.914 -0.6403  0.0783  0.0164
29670W        W46144   7.459   0.290   3.071 -0.2379  0.2428  0.1453
29671W        W46145   5.974   8.400  12.409 -0.1148 -0.0511 -0.1283
29672W        W46146   2.080   7.137  14.704  0.1332 -0.3571 -0.3567
29673W        W46147  16.303  17.757   4.882  0.0915  0.0968  0.3601
29674W        W46148   3.337   8.716   3.067 -0.1776  0.2103  0.0805
29675W        W46149  17.439   1.096   5.527 -0.0430  0.0035 -0.3804
29676W        W46150  16.807  16.746   4.143  0.1233 -0.0377  0.2166
29677W        W46151   1.969   9.420   4.373 -0.1161 -0.0814 -0.3235
29678W        W46152  10.459   1.948  13.522 -0.1652  0.1036  0.2275
29679W        W46153   9.944  13.190  16.211  0.1346 -0.1866  0.1889
29680W        W46154   7.556   5.554  15.230  0.1715  0.0759  0.0461
29681W        W46155  17.190   9.152  15.827  0.0864 -0.2850 -0.1672
29682W        W46156   8.705  15.885   4.665 -0.1004 -0.1464 -0.0579
29683W        W46157   5.385   0.900  15.905 -0.4042  0.2260  0.0759
29684W        W46158   4.931   5.940  13.133 -0.3462 -0.2202 -0.0824
29685W        W46159   7.920  14.283  11.568 -0.2184 -0.0345 -0.0726
29686W        W46160   1.880  13.772  12.565 -0.3077 -0.1141 -0.1818
29687W        W46161  15.637  17.981  15.158 -0.5100 -0.1945 -0.0125
29688W        W46162  12.341   1.315  13.934 -0.2117 -0.0760 -0.3213
29689W        W46163  15.307  15.131   3.047  0.0737 -0.1186 -0.0822
29690W        W46164  10.344   0.645   2.103 -0.0209 -0.1404 -0.2341
29691W        W46165   3.714  15.792   1.411 -0.0685  0.0343  0.0042
29692W        W46166   1.110   3.640  13.014 -0.0932 -0.0093 -0.0061
29693W        W46167   9.767   6.127  10.812 -0.1298  0.0297 -0.1209
29694W        W46168   5.549  16.419   0.286  0.0996 -0.0579 -0.0549
29695W        W46169   9.833   9.393  15.658 -0.2350 -0.1205 -0.1632
29696W        W46170  15.752   9.153   0.864 -0.1122  0.3365  0.0249
29697W        W46171   3.121   1.173  15.322  0.1722  0.3081  0.1875
29698W        W46172   6.047  14.080   1.681 -0.2551 -0.5169 -0.1789
29699W        W46173  14.083  11.705   2.979  0.1511  0.0579  0.4509
29700W        W46174   5.080  11.611  13.837 -0.4286  0.0465  0.0210
29701W        W46175   0.652   3.287   4.122 -0.0493  0.0880 -0.0441
29702W        W46176  16.498   1.860   6.361 -0.2548  0.0369  0.1591
29703W        W46177  12.849   0.357   3.506  0.0204 -0.1751 -0.1340
29704W        W46178  12.039   4.485   4.019 -0.2015  0.1931 -0.0467
29705W        W46179   4.076   4.735   5.321  0.2711  0.1715  0.1347
29706W        W46180   5.176   3.515   3.377 -0.0039 -0.3093  0.0506
29707W        W46181  17.474  13.781   2.363  0.1927 -0.2954  0.4868
29708W        W46182   4.963   0.825   4.013  0.0056 -0.0866  0.1938
29709W        W46183   5.794  10.228   4.619 -0.1750  0.1602 -0.1355
29710W        W46184   3.828   3.413  11.820  0.0186 -0.2280 -0.1304
29711W        W46185   4.084  15.104   2.127 -0.0310 -0.1592  0.2273
29712W        W46186  11.763   9.498  13.490 -0.3031  0.3992 -0.3473
29713W        W46187   5.887   7.937  15.100  0.0694  0.1138 -0.2139
29714W        W46188   2.279  11.427   1.673  0.0332 -0.1118  0.3192
29715W        W46189  12.101  13.392  11.927 -0.2718  0.2447  0.2257
29716W        W46190   3.157   8.248  16.222  0.1826  0.3280 -0.0319
29717W        W46191   8.948   3.236   3.217  0.0651 -0.2074  0.3183
29718W        W46192   6.961  11.165  12.693 -0.1894  0.1193  0.2378
29719W        W46193  10.121  18.268   3.389  0.0395  0.2059 -0.0717
29720W        W46194  13.738  16.141   0.623  0.1176 -0.1260 -0.3061
29721W        W46195   6.451   8.363   0.446 -0.1854 -0.0595 -0.1251
29722W        W46196  15.534   6.996  14.898 -0.2794  0.0045 -0.1680
29723W        W46197   5.698  12.647   1.322 -0.2948  0.1861  0.2779
29724W        W46198  10.427  13.100  12.997 -0.0947  0.1913 -0.0684
29725W        W46199  16.596   7.967   1.148 -0.1942 -0.2083 -0.0901
29726W        W46200   6.066   9.041   0.400 -0.0980 -0.2732  0.0771
29727W        W46201   2.633  16.037  10.607 -0.3110  0.0078  0.3406
29728W        W46202   2.675  16.546   1.548 -0.0259  0.1042  0.0475
29729W        W46203  16.011   5.174  15.906 -0.1870  0.1354 -0.3005
29730W        W46204  11.340  15.462   4.700 -0.0649 -0.0916  0.1750
29731W        W46205  12.435   9.541   0.359  0.2104  0.1278  0.3705
29732W        W46206  15.529  15.132  11.527  0.0940  0.0439  0.5194
29733W        W46207   7.655  14.577   1.221 -0.0494 -0.1148  0.1611
29734W        W46208   1.994  10.276  12.945 -0.1934 -0.0554  0.4389
29735W        W46209  18.055  10.516   0.085  0.0773 -0.0606 -0.0177
29736W        W46210   4.911  16.968   2.858  0.0217  0.1025  0.0563
29737W        W46211   2.096  12.265   1.469 -0.0193 -0.1914  0.1713
29738W        W46212  15.372  14.797   5.927 -0.2497  0.1911 -0.0208
29739W        W46213   6.639  15.268  15.444  0.2567 -0.1347  0.0258
29740W        W46214  14.555  11.084  14.092  0.1819 -0.3254 -0.1041
29741W        W46215  16.211   4.887  15.258  0.1112  0.0616 -0.0419
29742W        W46216  13.737  13.191   4.274 -0.0387 -0.3949 -0.0188
29743W        W46217  17.551  11.674  14.115  0.1186 -0.0701  0.1923
29744W        W46218  16.222  17.958   0.284  0.2810 -0.0161  0.0289
29745W        W46219   7.813  10.637   0.737 -0.4319  0.2449 -0.2422
29746W        W46220  16.234   1.767  16.182 -0.1257 -0.1412 -0.3120
29747W        W46221   7.688   6.774   2.165 -0.2346 -0.2037  0.1339
29748W        W46222  17.548  16.913  13.873 -0.3049  0.2891  0.1031
29749W        W46223   8.217  10.208  13.953 -0.1047 -0.2915  0.1221
29750W        W46224   2.953   0.724   5.758 -0.0900  0.1796 -0.0623
29751W        W46225   5.409   7.334  15.250 -0.1034 -0.0454  0.2969
29752W        W46226  13.122   9.520  14.625 -0.1485  0.2129  0.2116
29753W        W46227   5.940  16.542   5.493 -0.2421  0.0492 -0.0982
29754W        W46228  14.432   5.185   0.962 -0.0382  0.0976  0.0273
29755W        W46229  17.069  12.174  12.360  0.2355 -0.1516  0.1875
29756W        W46230  11.034   9.631  12.099  0.0085  0.1566  0.1449
29757W        W46231   1.490  16.173   4.814 -0.0644 -0.0085 -0.1527
29758W        W46232  14.698  10.500   4.048  0.1916 -0.4414 -0.0935
29759W        W46233   2.659   5.288  14.859 -0.3197 -0.1992  0.2963
29760W        W46234  16.553  16.195   4.312 -0.0958  0.0590 -0.2033
29761W        W46235  14.257   8.021  10.916 -0.0515  0.3213 -0.1885
29762W        W46236  12.858   0.084   4.287 -0.2143  0.1787 -0.0373
29763W        W46237  17.483  13.404   0.091  0.1103 -0.1867  0.2754
29764W        W46238   2.082   8.898   4.495  0.0734 -0.1073  0.4577
29765W        W46239   5.773  16.669  13.194  0.0529 -0.0069 -0.1454
29766W        W46240  14.900   9.267  15.813 -0.0309 -0.0744 -0.2879
29767W        W46241  15.151  13.814  11.951 -0.2181  0.0615 -0.1517
29768W        W46242   7.222   4.849   3.000 -0.0971  0.1263 -0.0030
29769W        W46243   9.124   9.636  14.582 -0.0896  0.0219  0.1331
29770W        W46244  10.487  12.620  12.181 -0.0331 -0.3262  0.1405
29771W        W46245  14.571   1.247   5.189 -0.3257  0.2064 -0.0437
29772W        W46246   4.771  12.990   1.894  0.1565 -0.0836 -0.2101
29773W        W46247  15.509   5.425   4.054  0.0087  0.1233  0.2238
29774W        W46248  12.280   0.720  12.587 -0.1018 -0.0501  0.1037
29775W        W46249  15.208   2.024  14.505 -0.1044  0.0200 -0.1217
29776W        W46250   8.141  13.131  15.942  0.1168  0.1315 -0.1383
29777W        W46251   7.299   2.068   1.913 -0.1966 -0.2623  0.2967
29778W        W46252  13.112   3.550  11.017  0.1717 -0.1475  0.4819
29779W        W46253  13.802  17.732  13.037  0.0883  0.2396 -0.1292
29780W        W46254  16.190   9.375   4.994  0.3589  0.1173 -0.1626
29781W        W46255  15.276  13.090   0.388 -0.0052 -0.0312  0.0178
29782W        W46256   2.884  17.972   1.629 -0.2230  0.1678 -0.1160
29783W        W46257  14.891   1.649  15.834  0.1097 -0.0629 -0.3350
29784W        W46258   7.147  13.262   4.060 -0.1694 -0.1127  0.1612
29785W        W46259  16.365  16.471  15.971  0.0476  0.2725  0.0009
29786W        W46260   7.937   5.139  13.073  0.0138  0.0682  0.1840
29787W        W46261   4.532   1.840   1.444  0.1342  0.0017 -0.0847
29788W        W46262   1.507  15.796   2.036  0.1356  0.1539 -0.0978
29789W        W46263  13.634   6.604   4.381 -0.3946  0.0329  0.0145
29790W        W46264   0.707   7.318  12.696  0.0151  0.2079 -0.2227
29791W        W46265  11.872  16.225  15.161 -0.0775  0.2480  0.0511
29792W        W46266  11.662   7.460   0.168 -0.0258 -0.0772  0.0064
29793W        W46267  14.441   0.609   4.497 -0.2499  0.0899  0.1646
29794W        W46268   6.546   6.220   3.448 -0.1277  0.6055  0.0090
29795W        W46269  14.155   1.475   2.569  0.2371  0.0466  0.1001
29796W        W46270  10.370   4.017  11.506 -0.1885 -0.1911 -0.1630
29797W        W46271  15.749   3.422   2.847 -0.1533 -0.0416 -0.0744
29798W        W46272  13.763   3.308   3.552  0.3502  0.2830  0.0261
29799W        W46273  16.949   3.157   1.272  0.0509 -0.0054  0.1193
29800W        W46274   8.553  14.419  12.798  0.4120  0.2302 -0.2075
29801W        W46275   7.300   2.744  12.535  0.2547  0.0447 -0.1517
29802W        W46276  16.823  16.412  13.191  0.2815  0.3555  0.1878
29803W        W46277  15.262   3.769  15.423  0.0882  0.3670  0.2265
29804W        W46278  18.277  13.158  12.451  0.1216  0.0461  0.2111
29805W        W46279  13.189   2.483   5.287  0.0702  0.1055  0.0969
29806W        W46280   7.203   8.645  15.980  0.0856 -0.6092  0.0448
29807W        W46281   6.809   6.349   0.601 -0.0038 -0.2794 -0.1581
29808W        W46282  14.694   2.946  13.389 -0.1544 -0.1468  0.1778
29809W        W46283  11.003   8.958  11.895  0.1106 -0.1868  0.0146
29810W        W46284  11.494  14.659  13.854 -0.0839  0.0785 -0.1352
29811W        W46285  10.691   0.734   0.089  0.1123 -0.1979  0.0288
29812W        W46286  15.650  10.967  15.468  0.3534  0.1167  0.2387
29813W        W46287  16.790  14.546   0.782 -0.1504  0.0212 -0.3169
29814W        W46288   8.313   5.079  15.607  0.2303 -0.2571  0.0069
29815W        W46289  14.199   1.501  12.144 -0.0597  0.2090 -0.1856
29816W        W46290   6.907  10.373  11.175  0.1522  0.0270 -0.1576
29817W        W46291  12.752  16.890   2.781  0.1605  0.1691  0.0761
29818W        W46292  17.008  14.237  11.771  0.0836 -0.1119 -0.1238
29819W        W46293  11.810  14.395  16.188  0.0988  0.1133 -0.1313
29820W        W46294  12.093   0.117  12.148  0.2718  0.1162  0.1086
29821W        W46295   1.254   4.408   1.743 -0.0995  0.0846  0.1349
29822W        W46296   1.283   0.334   1.201  0.0864  0.0434  0.1078
29823W        W46297  13.748  10.574   1.477  0.0559  0.2060  0.3404
29824W        W46298  10.603  10.756  15.388 -0.1056 -0.0854  0.0084
29825W        W46299   3.709  15.986   5.454  0.1917 -0.1436  0.0784
29826W        W46300   6.435  11.104   3.607  0.0434  0.1748  0.1219
29827W        W46301  15.430   7.783   2.074  0.1525  0.0796 -0.0447
29828W        W46302   0.128  13.829   1.981 -0.0477  0.2367  0.1906
29829W        W46303   2.874  10.888   2.637  0.0780  0.0226  0.2434
29830W        W46304  11.535  17.139   2.324 -0.0767 -0.0041  0.1136
29831W        W46305   7.219   9.399  13.802  0.3460 -0.1165 -0.2622
29832W        W46306   1.521   2.190   4.154  0.1861  0.0653  0.0174
29833W        W46307   7.321   0.810   0.283  0.2670 -0.0350  0.4316
29834W        W46308   8.596  10.969  13.330 -0.1078  0.0809 -0.0477
29835W        W46309   8.841   2.275  11.728  0.2063  0.3014  0.2142
29836W        W46310   5.534   4.575  16.255  0.1697 -0.2585  0.2519
29837W        W46311  14.736   8.431   2.382  0.0098  0.0687  0.0179
29838W        W46312  11.086   5.013  14.510 -0.3144  0.3009 -0.0425
29839W        W46313  12.357   6.449   0.650  0.0662 -0.2759  0.1100
29840W        W46314  10.675   8.812  11.058  0.1679  0.2074  0.4906
29841W        W46315  12.736   0.241   4.701  0.1203  0.0493  0.0036
29842W        W46316  14.381   8.891  12.527  0.1539 -0.1857  0.2521
29843W        W46317   2.673  18.257   0.786 -0.1069 -0.1619  0.2131
29844W        W46318  16.643   4.842   1.396 -0.1465 -0.1049 -0.0959
29845W        W46319  14.042   9.250   1.203 -0.0649  0.0890 -0.2272
29846W        W46320   8.182  14.957   0.311 -0.3387  0.0894 -0.1171
29847W        W46321   4.544   1.358   3.330  0.0186 -0.2102 -0.1882
29848W        W46322  10.306   5.999  15.074 -0.0859 -0.1596  0.2204
29849W        W46323  17.859   8.636  11.302  0.6522  0.0090  0.1620
29850W        W46324   2.003  11.135   2.734  0.1013  0.1039 -0.1053
29851W        W46325   5.509   2.037   4.021 -0.1382 -0.2557  0.1035
29852W        W46326   7.794   8.353  14.993 -0.0255  0.0208  0.0390
29853W        W46327  10.494   6.621   1.263  0.1461  0.1917  0.3192
29854W        W46328  14.865  17.020   2.554 -0.0598  0.1065 -0.0500
29855W        W46329   4.248  14.386  12.249 -0.1480  0.1718 -0.0712
29856W        W46330   7.171   1.012   1.799 -0.0497 -0.1550  0.1130
29857W        W46331  17.438   7.835  11.162 -0.2112 -0.1234 -0.0266
29858W        W46332  18.376  16.397   3.685  0.1390 -0.0641 -0.0110
29859W        W46333   8.339   3.880  11.778  0.1526  0.1904  0.1089
29860W        W46334   3.017   9.975   4.231  0.0268 -0.0167  0.0832
29861W        W46335  13.774  12.353  12.045 -0.1012  0.0150 -0.3320
29862W        W46336   4.094  14.544  14.374 -0.1576 -0.0326  0.1005
29863W        W46337  18.257  14.060   2.803 -0.1876 -0.0970 -0.0494
29864W        W46338   9.528   0.424  14.628 -0.3738  0.4273 -0.0590
29865W        W46339   8.079   7.531   0.815 -0.1515 -0.0822 -0.0329
29866W        W46340   0.534  18.132   0.148 -0.1860 -0.0395  0.0965
29867W        W46341  15.188  12.457   4.558 -0.2845 -0.2304  0.1736
29868W        W46342  10.376   4.025   3.501 -0.3495 -0.4059 -0.2997
29869W        W46343  10.004  15.586   1.472  0.2936 -0.0065 -0.1935
29870W        W46344   6.147   7.779  13.563 -0.4717 -0.0248  0.3668
29871W        W46345  14.526  18.142  12.162  0.0378  0.0771 -0.1407
29872W        W46346   8.201   6.612   5.523  0.0651  0.1416 -0.4048
29873W        W46347   1.719  13.912   0.716 -0.1755 -0.0957 -0.1032
29874W        W46348  10.965  17.163   4.428 -0.1675 -0.1230  0.1842
29875W        W46349   8.329  15.910  13.122  0.2434 -0.2083 -0.0732
29876W        W46350  17.504   0.292  14.760 -0.0024 -0.0282 -0.1601
29877W        W46351   9.156   5.796   1.524 -0.2628 -0.1338  0.0379
29878W        W46352   9.670   3.204   2.838 -0.4292  0.0686 -0.1785
29879W        W46353   1.937   8.711  14.960 -0.1541  0.3891  0.0971
29880W        W46354   5.361  15.498   5.137  0.0573  0.4033  0.0752
29881W        W46355   9.077  16.509   3.121  0.0862 -0.0803  0.1045
29882W        W46356  10.245  15.588  16.295  0.2139 -0.2963  0.1508
29883W        W46357   7.776   4.136  12.943  0.1238  0.0039 -0.4444
29884W        W46358   6.332   1.944   4.620 -0.1693  0.1248 -0.2027
29885W        W46359  11.440  16.008   0.535  0.3102 -0.0419 -0.1804
29886W        W46360  14.769   1.988   0.883 -0.3052  0.1908 -0.1546
29887W        W46361  12.055   8.225  13.293  0.0944  0.1139 -0.0612
29888W        W46362   5.172   9.409   1.978  0.2154  0.1821 -0.1835
29889W        W46363  13.533  14.462   1.393  0.0385 -0.1712  0.1482
29890W        W46364  13.608  10.788  13.003 -0.0740  0.0965 -0.1428
29891W        W46365   7.167   3.885  14.231  0.0342  0.1739 -0.2233
29892W        W46366  11.682   0.706   4.506 -0.1442  0.0952 -0.0580
29893W        W46367   7.931   7.805  12.111 -0.3595 -0.2909  0.0395
29894W        W46368   8.524   2.540  11.486  0.0417 -0.0025 -0.1047
29895W        W46369  12.597   0.622   2.039  0.4181 -0.1596 -0.1761
29896W        W46370   8.745   3.559  15.977  0.0449  0.0323 -0.0694
29897W        W46371   0.249   9.590  14.684  0.0413 -0.1966  0.2676
29898W        W46372  10.427   8.651  15.069  0.1570 -0.1621 -0.1188
29899W        W46373  14.314   9.550   2.511  0.0130 -0.0785 -0.3597
29900W        W46374  15.155  15.915  12.791  0.0240  0.5999 -0.0795
29901W        W46375  11.895  10.966   4.191  0.1159 -0.0613  0.2849
29902W        W46376  11.091  15.143   3.290  0.1499 -0.0800 -0.1973
29903W        W46377   1.312   5.270   0.321 -0.1966  0.2390  0.0104
29904W        W46378  15.229   4.463  11.135  0.0517  0.0802 -0.0323
29905W        W46379  12.198   4.851  11.223  0.0142 -0.0827 -0.0908
29906W        W46380   6.334  11.065   4.384 -0.0404 -0.0360 -0.2150
29907W        W46381  14.182   6.352  11.470 -0.0038 -0.0250  0.0536
29908W        W46382   5.891   0.790   3.100  0.1203 -0.1157  0.1705
29909W        W46383  12.956   9.390  11.455 -0.2157  0.0797 -0.3268
29910W        W46384  10.494   7.986  15.702  0.1535 -0.2325  0.2118
29911W        W46385  10.212   4.989  11.176 -0.1597 -0.0392 -0.2354
29912W        W46386  13.462   2.027   2.208  0.0519  0.1348 -0.1318
29913W        W46387   6.304  10.819   0.050  0.2319 -0.3074 -0.0784
29914W        W46388   2.764   9.322  15.798  0.0874  0.0494 -0.2702
29915W        W46389   2.865  18.205   3.383  0.0170  0.0674  0.0335
29916W        W46390   7.879   6.976  14.230 -0.1595 -0.0186 -0.1561
29917W        W46391  17.388  12.558  11.544 -0.0432  0.3992  0.1093
29918W        W46392   1.133   6.409  12.347  0.1788  0.0480 -0.1532
29919W        W46393   7.645  15.358  12.492  0.0541 -0.0962 -0.0216
29920W        W46394   1.400   5.965  14.343 -0.2347  0.0911  0.0667
29921W        W46395  15.549  13.795   1.005 -0.0248  0.3482 -0.0595
29922W        W46396   2.706  12.898   3.857  0.1145  0.4236 -0.0602
29923W        W46397   2.061   2.528   3.599 -0.1209  0.4809  0.0778
29924W        W46398  10.148   5.798  10.862  0.2278 -0.0900  0.2591
29925W        W46399  11.294  10.131   3.947 -0.0342 -0.0225 -0.1976
29926W        W46400   8.909  17.152  13.530 -0.0470  0.0328  0.0393
29927W        W46401  10.583  12.341   4.970  0.0936  0.0469 -0.3427
29928W        W46402   7.679   2.984   1.382 -0.2311  0.1982 -0.1741
29929W        W46403   6.309   5.592   0.919  0.0129 -0.1406  0.1387
29930W        W46404   6.001   3.830   3.861  0.2517 -0.0850  0.1925
29931W        W46405   7.864   5.935  15.489 -0.0654 -0.1104  0.1036
29932W        W46406   2.921   4.162   0.523  0.0077 -0.3529  0.2408
29933W        W46407  11.386   8.194  10.646  0.0754 -0.0508  0.0975
29934W        W46408  13.100  16.291   4.511  0.1327  0.0730 -0.0379
29935W        W46409   2.972   1.811   5.008  0.3769  0.0382  0.1962
29936W        W46410   5.559   6.629  10.951 -0.1402 -0.2168  0.0145
29937W        W46411  14.942  16.820  13.143  0.2340 -0.0073 -0.1436
29938W        W46412  13.465  16.916   0.827  0.0191  0.1398  0.1870
29939W        W46413   5.977  12.520   0.399 -0.1149  0.0269  0.1722
29940W        W46414  12.734   1.929   3.737  0.1026 -0.0161 -0.1351
29941W        W46415   3.685   4.572  12.275  0.1817  0.1850 -0.2006
29942W        W46416   7.315   6.264  13.136 -0.3734  0.3316  0.1807
29943W        W46417   6.958   3.734  12.019  0.0331 -0.3231  0.1774
29944W        W46418  16.474  14.276  11.477  0.1660 -0.0223 -0.0422
29945W        W46419  12.401  10.891   0.697 -0.2354  0.1327 -0.0921
29946W        W46420   8.670   1.161  14.610  0.1223  0.1987 -0.0608
29947W        W46421  15.882   7.479   2.020 -0.0660 -0.2569 -0.2001
29948W        W46422   5.090   5.693  11.247 -0.1912 -0.0102 -0.0116
29949W        W46423  13.087   2.702  11.781  0.2342 -0.1713 -0.1122
29950W        W46424  10.979   6.709   0.946  0.0611  0.2153 -0.0030
29951W        W46425  17.121  12.651   1.654  0.2625 -0.2350 -0.1773
29952W        W46426   6.189  11.558   5.684 -0.0368 -0.0389 -0.0894
29953W        W46427  10.263   7.577  11.003 -0.0226 -0.1994 -0.0908
29954W        W46428  10.345   0.163   3.738 -0.0100  0.1136 -0.2943
29955W        W46429  14.316  18.320   3.559 -0.1679 -0.0374 -0.4300
29956W        W46430  14.998   9.542   1.867 -0.1057 -0.0989  0.0944
29957W        W46431   9.986  10.846   2.210  0.0515 -0.1533 -0.0567
29958W        W46432   4.419  13.041  12.135  0.0959  0.0948  0.1148
29959W        W46433   2.551  11.799  15.507 -0.0798 -0.3437  0.1498
29960W        W46434  18.172  18.303   2.192 -0.3298  0.1650 -0.0966
29961W        W46435   0.068  12.656   1.812  0.0342  0.1790 -0.2925
29962W        W46436   3.277  17.010  11.857 -0.0176 -0.1623 -0.2365
29963W        W46437  10.663   9.323  10.912 -0.1580  0.0374 -0.1954
29964W        W46438   9.550   1.008  16.262 -0.0055  0.0470 -0.0844
29965W        W46439   5.953   1.280  14.262  0.2193  0.1932 -0.0310
29966W        W46440   6.786   9.109  14.687 -0.2413  0.0332  0.2537
29967W        W46441   8.446   7.825  13.025  0.0946  0.3125 -0.2834
29968W        W46442  11.670   0.922   0.085  0.0072 -0.1057  0.1541
29969W        W46443  11.882   0.790   3.811  0.1805  0.1870 -0.0137
29970W        W46444   7.118   3.935  11.201  0.2245  0.2120 -0.0731
29971W        W46445  15.128   1.010  13.387  0.1574 -0.2329 -0.2459
29972W        W46446  18.287   1.335   2.336 -0.0017 -0.1443 -0.3652
29973W        W46447   1.685   5.285  15.936 -0.2473 -0.1464 -0.0573
29974W        W46448  16.682  11.185   4.765 -0.0898 -0.0293  0.1342
29975W        W46449  13.480   4.249  11.979  0.1306  0.0578  0.1280
29976W        W46450  15.775   9.726   4.210  0.0261 -0.0594  0.2573
29977W        W46451  14.043   0.903  14.702  0.0045  0.0195 -0.1641
29978W        W46452   2.025  10.735   3.844  0.3001  0.2511  0.0060
29979W        W46453   2.191  18.206   2.732  0.1805  0.1602  0.0886
29980W        W46454  10.392  13.662  12.935  0.3355 -0.1894 -0.0664
29981W        W46455   1.078  15.288   4.825  0.1508 -0.1280  0.0217
29982W        W46456   0.509  10.093   3.401  0.0117 -0.0352  0.4137
29983W        W46457  15.255  17.891   4.919 -0.1403  0.0887 -0.1026
29984W        W46458   2.005   3.956   3.757 -0.1021 -0.1498 -0.5523
29985W        W46459   2.411   4.716   3.973 -0.2901  0.1689 -0.1751
29986W        W46460  15.722   8.176   0.683 -0.0802 -0.0989 -0.1494
29987W        W46461  15.348  14.034   2.472  0.2795 -0.0376  0.0033
29988W        W46462  13.914  10.224   3.081  0.2105  0.2779  0.1899
29989W        W46463  10.660  18.193  14.211 -0.1926  0.1448  0.0697
29990W        W46464  10.503  17.713  15.643 -0.3282  0.0448  0.0990
29991W        W46465   7.675   0.003   4.811  0.0647 -0.0731 -0.0199
29992W        W46466  14.774   6.647   1.444 -0.3594  0.0498  0.2125
29993W        W46467  15.349  14.148  15.314  0.0008 -0.1496  0.6153
29994W        W46468   9.234   8.953   9.663  0.1533  0.0443  0.0912
29995W        W46469  16.123   0.595   4.557  0.1749 -0.1555 -0.0208
29996W        W46470  17.833  11.987   3.440  0.1409 -0.1977  0.0037
29997W        W46471  14.855   9.571   1.368  0.2200  0.0229 -0.1849
29998W        W46472  10.888   1.714  13.614 -0.1958 -0.2805 -0.1363
29999W        W46473  10.669   7.932  11.478 -0.2733  0.2202 -0.0170
30000W        W46474   1.697  16.933   2.972 -0.2805 -0.0033  0.0062
30001W        W46475   1.728   6.688  13.582 -0.0958 -0.3213  0.1411
30002W        W46476  18.114  12.958   1.557  0.2447 -0.0049 -0.1063
30003W        W46477   6.895  10.256  15.456 -0.3208 -0.0721  0.3784
30004W        W46478   6.831   5.483   4.825 -0.0072 -0.2058  0.2461
30005W        W46479   1.179   8.635   1.305  0.0968 -0.0443 -0.0234
30006W        W46480  11.002  12.058   3.856 -0.2185 -0.2653 -0.4393
30007W        W46481  13.804   9.324   2.726 -0.0205  0.1197  0.1353
30008W        W46482   8.678  13.219   0.233 -0.0704  0.0858 -0.0773
30009W        W46483   9.024   6.417   4.542 -0.2419  0.2178 -0.1676
30010W        W46484  11.476  11.187  13.278 -0.4699  0.1219 -0.5496
30011W        W46485   9.666   9.476  13.977  0.1651  0.1290  0.0855
30012W        W46486   8.667  11.483   3.196 -0.0176 -0.2353  0.1993
30013W        W46487   9.772  12.899   3.505 -0.2368 -0.1113  0.1221
30014W        W46488  15.678  10.972   4.569  0.0572 -0.0027 -0.1299
30015W        W46489  10.271  10.105  10.849 -0.0303  0.0212  0.2789
30016W        W46490  15.452   1.557   4.142 -0.0853 -0.3310  0.1600
30017W        W46491   9.344   5.693  12.014 -0.0271 -0.1274  0.1015
30018W        W46492  11.639  10.513  13.926 -0.0238  0.2840  0.2324
30019W        W46493  13.923   5.622   9.573  0.0334  0.0478  0.0436
30020W        W46494  15.052   0.277   4.477 -0.1685  0.0056  0.2314
30021W        W46495  13.868  13.545  11.646 -0.2610  0.1431 -0.2021
30022W        W46496  13.518  13.961  15.874 -0.0861  0.1810 -0.1859
30023W        W46497  12.070  15.218  14.447 -0.0016 -0.2733  0.0623
30024W        W46498   3.880   1.047   2.212 -0.2754 -0.1613 -0.0562
30025W        W46499   3.999  10.664  14.447  0.0711 -0.1597 -0.1364
30026W        W46500  10.644   0.013  16.338 -0.0755 -0.0103  0.6556
30027W        W46501   1.326  18.269  15.474 -0.1294 -0.0545  0.0273
30028W        W46502  14.951   5.008   9.425 -0.0583  0.2304 -0.0454
30029W        W46503  15.687  10.432  16.129 -0.1463  0.2153  0.1556
30030W        W46504  16.542   4.139  11.346  0.0480 -0.1161  0.0270
30031W        W46505  14.379   9.320  15.740 -0.0644 -0.0178  0.0084
30032W        W46506  13.948   5.709   5.422 -0.0655  0.0552  0.1288
30033W        W46507  12.102  14.008  13.786  0.3586 -0.1300 -0.0868
30034W        W46508   9.800  15.835  12.249  0.0072  0.0139 -0.3385
30035W        W46509   1.825  13.767  14.886  0.0854 -0.1263 -0.0731
30036W        W46510  15.781  17.722   4.079  0.0724  0.0796  0.4754
30037W        W46511  18.290  15.714  12.067 -0.0952 -0.1242  0.0391
30038W        W46512   0.177  11.691   4.907 -0.0920  0.2044 -0.2581
30039W        W46513   0.110  14.968   3.638  0.1087 -0.1381 -0.2077
30040W        W46514  13.604  16.639  11.377 -0.2227 -0.0346  0.0550
30041W        W46515  14.643   6.149  11.580 -0.0282  0.4657 -0.0459
30042W        W46516   7.452  13.867   0.368  0.2004  0.0278 -0.2728
30043W        W46517  16.634   0.632   1.440  0.2997 -0.0240  0.0274
30044W        W46518  11.543  12.534   4.542  0.3017 -0.0452 -0.1784
30045W        W46519  16.157  15.677   5.394 -0.0633  0.0867  0.4567
30046W        W46520  18.058  10.088   0.861  0.0510  0.1663  0.1025
30047W        W46521   3.360  14.690  15.782 -0.0983  0.0701 -0.0464
30048W        W46522  16.523  11.292   9.811  0.0451  0.0451  0.3069
30049W        W46523  11.827  12.667  14.239  0.1065  0.1318  0.1559
30050W        W46524   8.453   9.784  13.909 -0.0471  0.1376 -0.0891
30051W        W46525   7.273   2.167  14.821  0.1107  0.1473 -0.1712
30052W        W46526   0.813   9.970  14.107  0.0716 -0.1202  0.3537
30053W        W46527   6.683  12.148  15.035 -0.0508  0.0678  0.0692
30054W        W46528  16.033  17.470   4.392 -0.1418  0.2049 -0.2973
30055W        W46529   3.661  12.741   3.567  0.2617 -0.1401  0.2511
30056W        W46530  18.377   2.941  11.783 -0.3402  0.3710  0.0377
30057W        W46531   3.210   4.584  12.788  0.1782  0.0313 -0.0600
30058W        W46532  12.633  16.297  13.615  0.0256 -0.0137 -0.0395
30059W        W46533  15.411   8.849   2.097  0.1546  0.1342 -0.4966
30060W        W46534   3.408   7.786   0.104  0.2288  0.1509  0.2988
30061W        W46535  14.552   3.249  15.447 -0.2217  0.0524  0.1286
30062W        W46536  10.780   1.711  11.343  0.2455  0.1914 -0.0422
30063W        W46537  13.763  12.346   4.599 -0.2230  0.2222 -0.3108
30064W        W46538  18.219  12.860   0.893  0.2107  0.0386  0.3572
30065W        W46539  13.414   2.121   4.134  0.0715 -0.1748  0.1140
30066W        W46540  10.565  15.892   0.288 -0.0676  0.1830 -0.3848
30067W        W46541  17.362   3.712  11.248  0.0922 -0.2255 -0.1019
30068W        W46542   9.914   5.421  11.109 -0.0187 -0.0824  0.0902
30069W        W46543   1.278   4.757  11.684  0.0889  0.1158 -0.2853
30070W        W46544   2.045   2.293   0.613 -0.2643  0.2918 -0.0856
30071W        W46545  12.578  15.936  12.709 -0.2078 -0.2652 -0.1967
30072W        W46546   3.526   0.153   2.697 -0.0251  0.2429  0.1103
30073W        W46547   5.042   0.697   6.482  0.0968 -0.1284  0.0942
30074W        W46548  16.679  14.645  15.108  0.0174 -0.2321 -0.1670
30075W        W46549   2.318   3.071  12.173  0.0643  0.2320 -0.3850
30076W        W46550  16.097   8.415   4.308  0.2060  0.1348  0.2195
30077W        W46551   0.869   9.741   4.562  0.0930 -0.0844  0.3175
30078W        W46552   9.597  17.288   2.384  0.2396  0.1294 -0.0402
30079W        W46553   9.936   6.804  12.505 -0.0115  0.1528  0.1626
30080W        W46554   2.260   0.555  13.399  0.1170  0.0947 -0.2895
30081W        W46555  15.116  10.344   3.167 -0.1379 -0.0430 -0.2732
30082W        W46556   5.721   0.835  14.826  0.2463  0.2117 -0.2934
30083W        W46557  16.458   5.881  16.049  0.3802 -0.2226  0.1179
30084W        W46558   2.979  10.382   2.160 -0.0259  0.1794  0.0458
30085W        W46559   3.191   0.953   2.940  0.1103  0.0553 -0.0873
30086W        W46560  14.095   4.566   3.005  0.0143  0.0372  0.3536
30087W        W46561   4.822   5.231   3.850 -0.3187  0.0558  0.1411
30088W        W46562  10.717  17.203   3.274  0.1047  0.1252 -0.0271
30089W        W46563   0.106  12.838  15.285  0.3446  0.0232 -0.4360
30090W        W46564   9.749   1.997  12.903  0.0496  0.0387  0.2095
30091W        W46565   3.993  11.871  16.023 -0.0879 -0.1232 -0.3107
30092W        W46566  11.696  14.823   1.821  0.1703  0.0074 -0.0608
30093W        W46567  16.636   8.468   0.184 -0.0942  0.1505 -0.2338
30094W        W46568   2.858  16.937   2.285  0.1969 -0.1282 -0.1428
30095W        W46569  12.064  10.550   3.974  0.4458  0.1611 -0.1523
30096W        W46570  17.622  13.195  12.138  0.1552  0.0463  0.0327
30097W        W46571   2.847  13.850   1.709 -0.0420 -0.3251  0.1001
30098W        W46572   1.815   6.923  15.343  0.1417  0.3377 -0.0683
30099W        W46573   1.844  14.237  15.840 -0.1400 -0.1319  0.1844
30100W        W46574   2.616  10.833  13.393 -0.0534  0.1127  0.0172
30101W        W46575   0.097   5.306   5.763  0.2265  0.1917 -0.1816
30102W        W46576   5.742   2.582  12.792 -0.1554 -0.2209 -0.2016
30103W        W46577  11.312   3.909  14.918  0.2652 -0.0811 -0.1644
30104W        W46578   6.368  15.418  14.543 -0.2954  0.2833  0.6010
30105W        W46579  10.794  17.713   2.055 -0.0725  0.0700  0.1028
30106W        W46580   1.673   0.860   5.042  0.2130  0.0461  0.0332
30107W        W46581  17.647  12.931   0.907 -0.0396  0.0336 -0.0265
30108W        W46582  12.222  11.894   0.177 -0.4464  0.3095  0.0627
30109W        W46583   4.446  10.818   5.727  0.2003  0.3694  0.1328
30110W        W46584  10.055   6.312  13.086  0.0905  0.2177  0.0986
30111W        W46585   5.451   8.985   4.186  0.1924  0.4403  0.2021
30112W        W46586   1.907  14.373   0.895  0.1376  0.1274 -0.1561
30113W        W46587   5.658   9.121  12.772  0.2625 -0.0133 -0.1908
30114W        W46588   0.020  16.930  13.186  0.3547  0.3627 -0.0918
30115W        W46589  15.577   1.717   2.933 -0.0986  0.1925 -0.0109
30116W        W46590   8.367  16.809  14.079  0.3244 -0.1311 -0.1342
30117W        W46591   8.752  12.966  12.404 -0.0131  0.2525 -0.0460
30118W        W46592   3.493  10.919   1.695  0.1425  0.0964 -0.0071
30119W        W46593  10.442   4.709  13.720 -0.1136 -0.0045  0.1921
30120W        W46594  14.451  15.910   1.966  0.1472 -0.2975 -0.3126
30121W        W46595   7.503   4.005   5.182  0.0231  0.0937 -0.2703
30122W        W46596   2.041  12.812   5.125 -0.0755  0.1175  0.0344
30123W        W46597  17.996  13.960   3.965 -0.1189  0.3497  0.0898
30124W        W46598   1.926  15.503  13.905  0.0063  0.3242 -0.1301
30125W        W46599  17.413  10.563  11.306 -0.0221 -0.0706  0.1278
30126W        W46600   4.642   6.630   3.938  0.3105 -0.4322 -0.0437
30127W        W46601  17.604   5.182  14.347 -0.1473 -0.1354  0.0383
30128W        W46602   7.372  12.935  14.574 -0.1150 -0.0038  0.1812
30129W        W46603  14.399  15.030   0.452 -0.0229  0.2586 -0.3629
30130W        W46604  17.904   6.817  11.309 -0.2126 -0.1190  0.1231
30131W        W46605   5.583  14.097   6.358  0.2043  0.3275  0.0922
30132W        W46606  17.910  10.679  13.037  0.0087  0.0973  0.0010
30133W        W46607  16.750  11.171  12.757  0.2555  0.2692  0.1410
30134W        W46608   4.295   8.935   5.308  0.3884  0.0186 -0.2740
30135W        W46609   1.946  10.169   4.805 -0.1081  0.0365 -0.0813
30136W        W46610  18.357  13.943  16.241  0.1911 -0.0965 -0.1712
30137W        W46611  10.071   3.970   0.445  0.0862  0.1734  0.1584
30138W        W46612  16.484  10.048   0.672  0.0515  0.1000  0.1222
30139W        W46613  11.850   4.827   2.722  0.0763 -0.0023  0.0036
30140W        W46614   4.235   2.439   6.274  0.1070  0.1682 -0.2442
30141W        W46615  11.198  15.626  10.988 -0.0317  0.1022 -0.2288
30142W        W46616  13.699  11.482  16.029 -0.2880 -0.1522 -0.0350
30143W        W46617   6.565  13.829   5.758 -0.2736  0.0907 -0.0315
30144W        W46618  12.336   8.494   1.510  0.2885  0.0575 -0.0419
30145W        W46619  12.469  16.419  14.773 -0.1796  0.0033  0.2433
30146W        W46620   0.908   1.647   5.499 -0.2926  0.5493 -0.2488
30147W        W46621   9.222   0.839   3.323  0.3404 -0.1911  0.0892
30148W        W46622   8.642  16.880   2.246 -0.0304 -0.1124  0.0140
30149W        W46623   8.469   9.541  11.165 -0.0915  0.3793 -0.0280
30150W        W46624  17.053  12.346  13.702 -0.2067 -0.1884  0.1416
30151W        W46625   8.051   6.882  10.546 -0.3505 -0.1500  0.1443
30152W        W46626   9.190  17.882  14.318 -0.0324 -0.3192 -0.2046
30153W        W46627   3.201   6.636  14.482 -0.1812  0.1242  0.0819
30154W        W46628   9.858   5.126   3.665 -0.2550 -0.1712  0.2004
30155W        W46629   2.270   5.105  13.113  0.0817  0.3381 -0.2119
30156W        W46630  10.485   8.532  15.586  0.1479  0.0926 -0.2882
30157W        W46631   2.498   8.176   6.343 -0.1396  0.0211 -0.3439
30158W        W46632   4.707   9.375   2.951 -0.0841 -0.0710  0.0037
30159W        W46633   9.839   1.894   2.326 -0.0875  0.1825  0.1761
30160W        W46634   8.678  10.211   2.008  0.2744 -0.1159 -0.3914
30161W        W46635   8.755  16.915   5.230 -0.0267  0.2877 -0.0126
30162W        W46636   1.771  12.373  12.142 -0.1062 -0.0250  0.2817
30163W        W46637   7.292   7.068   2.988 -0.0317  0.1171  0.3190
30164W        W46638   3.373   9.056   3.724 -0.2003  0.1261 -0.3060
30165W        W46639   5.753   9.110  11.525 -0.1967 -0.1869 -0.4384
30166W        W46640   2.570  17.171  14.213  0.3008 -0.2330 -0.0000
30167W        W46641   9.576   1.902  16.244  0.1252 -0.2211 -0.0104
30168W        W46642   3.019   2.261  12.429  0.4306  0.0512  0.2476
30169W        W46643  16.434   2.833   5.334 -0.2379 -0.0569 -0.0348
30170W        W46644   2.431  11.531   3.314 -0.2253  0.0885  0.1885
30171W        W46645   9.504  10.915  15.861  0.2754  0.2087  0.0057
30172W        W46646   8.118   4.700   5.452 -0.0156 -0.1696  0.0503
30173W        W46647  15.886  16.058  11.704  0.0117 -0.1469 -0.0899
30174W        W46648   2.727   2.680   2.709 -0.1070 -0.0369  0.1418
30175W        W46649   9.942  16.053  14.290  0.0082 -0.2167 -0.1025
30176W        W46650   4.750  15.249  14.182 -0.1283 -0.0058  0.1012
30177W        W46651  17.443   3.412  14.878 -0.0900 -0.1561 -0.4142
30178W        W46652   7.501  12.369   2.203  0.0363  0.2406  0.1849
30179W        W46653   5.733   8.086   5.043  0.0755 -0.3001 -0.1867
30180W        W46654  13.509  15.758  16.219 -0.1583 -0.3195 -0.1655
30181W        W46655   6.346   2.762   5.273 -0.0136 -0.1283  0.0252
30182W        W46656   7.752   8.985   2.278 -0.0079 -0.0064  0.1026
30183W        W46657  17.826   4.263   4.369 -0.2379 -0.2596 -0.1358
30184W        W46658  12.512  11.001   5.556 -0.0371 -0.0269 -0.1833
30185W        W46659   5.645   3.392   2.395 -0.0854  0.2498 -0.0729
30186W        W46660   3.392  16.128   1.833 -0.0244  0.0543 -0.1313
30187W        W46661   6.677   3.128  11.886  0.1762  0.3229 -0.2656
30188W        W46662   7.632   1.371   5.884 -0.1236 -0.0722  0.4736
30189W        W46663  11.196  11.379  13.638  0.3037 -0.0068  0.0868
30190W        W46664   2.686   7.144   4.165  0.0586 -0.0132  0.1154
30191W        W46665   5.593   8.872  15.709 -0.1554 -0.3242  0.0051
30192W        W46666   5.283   1.833  13.337  0.0870  0.1076  0.1476
30193W        W46667  13.725  16.067  13.422  0.1685  0.0566  0.4282
30194W        W46668   7.145   2.669   2.553 -0.1716 -0.0258 -0.1270
30195W        W46669   9.862   9.693   5.060 -0.3283 -0.0043  0.0895
30196W        W46670   5.477  10.618  14.279 -0.1218  0.2836 -0.3008
30197W        W46671  10.301   7.716  16.213  0.0914  0.2210  0.2009
30198W        W46672   1.390   6.707   3.307  0.1669  0.1460  0.2112
30199W        W46673   8.600   0.681   2.625 -0.1818 -0.1466  0.0435
30200W        W46674  13.191   4.579   4.127 -0.1003 -0.0724 -0.0999
30201W        W46675  13.468   2.519  15.960  0.0810  0.2794 -0.1746
30202W        W46676  12.287  15.734  13.162 -0.1622  0.1119  0.1675
30203W        W46677  15.188  12.280   3.787  0.1721 -0.0766  0.2485
30204W        W46678   5.367   1.351   2.109  0.1105  0.0459  0.2247
30205W        W46679  14.016   8.587   1.130 -0.0595 -0.0991 -0.2056
30206W        W46680   1.101   2.905  14.010  0.0516  0.0049  0.2975
30207W        W46681  16.799  13.544   3.003  0.2769 -0.0691  0.0676
30208W        W46682   1.958   0.362   5.872  0.1336  0.3375 -0.2405
30209W        W46683  13.138  16.358   1.468 -0.1332  0.0954 -0.0215
30210W        W46684  18.219  13.749  12.388  0.0104  0.1035 -0.2299
30211W        W46685  15.526  12.800  15.731 -0.2570  0.0299  0.0251
30212W        W46686   6.567  17.009  14.965  0.0027 -0.0789 -0.3370
30213W        W46687   5.404   9.125  12.312  0.0789 -0.0633 -0.1121
30214W        W46688  17.755  16.785   3.829 -0.4145 -0.1169 -0.0624
30215W        W46689   4.279   5.955  16.123 -0.1427 -0.1304  0.2834
30216W        W46690  13.543   2.595  11.641 -0.2759 -0.0859  0.0311
30217W        W46691   8.643  10.204  13.659  0.2341 -0.0302  0.0095
30218W        W46692   5.072  14.617   1.898  0.1060  0.2569  0.1000
30219W        W46693   6.518   7.865   2.144 -0.0794  0.4383  0.1660
30220W        W46694  17.844  13.468   2.161 -0.0817 -0.2701 -0.3638
30221W        W46695  15.158  10.989  15.362 -0.0343  0.1424  0.1555
30222W        W46696   0.284  13.072  12.843 -0.3219  0.1627  0.0013
30223W        W46697  10.620  17.963  12.230  0.0920 -0.0248 -0.0532
30224W        W46698   4.472   0.033  14.297 -0.1821  0.3053  0.1606
30225W        W46699  11.473   9.369  11.182  0.2861 -0.4116 -0.1643
30226W        W46700  13.596  18.383   1.829 -0.1937 -0.1261 -0.1662
30227W        W46701   7.871   5.153  12.547  0.1226 -0.0707  0.0907
30228W        W46702   3.462   1.951  12.274 -0.0485  0.4214  0.2675
30229W        W46703  12.386  13.759  15.302  0.0469  0.2165  0.0605
30230W        W46704   3.728   0.035  13.525  0.2104 -0.0085 -0.0417
30231W        W46705  17.578  14.472  11.721  0.0444  0.0640 -0.2484
30232W        W46706  15.071   1.796   2.268 -0.0062 -0.2320 -0.0681
30233W        W46707   0.914  15.436  15.980  0.0212 -0.0228 -0.1661
30234W        W46708  16.622   7.762   1.642  0.1992 -0.0121  0.0940
30235W        W46709   2.410  17.398  15.497 -0.1809  0.0112  0.1316
30236W        W46710  18.142  11.563  12.889  0.0263  0.2047 -0.2185
30237W        W46711  10.473   8.717   0.828  0.2503  0.0842 -0.2584
30238W        W46712   1.228   0.830   3.149 -0.0785  0.1957  0.0516
30239W        W46713  16.061   8.366   3.812 -0.1897 -0.3776  0.1317
30240W        W46714   0.681  14.426   0.398  0.1510 -0.0142  0.0343
30241W        W46715   8.099   7.957  14.305 -0.1300  0.2848 -0.1651
30242W        W46716   2.351   8.975  12.745  0.0982  0.3808  0.0827
30243W        W46717   7.451   2.504   5.169  0.0745 -0.0289  0.1891
30244W        W46718   0.467   1.868  11.559  0.0612 -0.1169 -0.0435
30245W        W46719  14.088   2.408   3.829 -0.2494 -0.0433  0.1863
30246W        W46720   2.124  11.533  14.882 -0.0625 -0.4699  0.2689
30247W        W46721   4.031  15.700  16.237  0.0837 -0.2700  0.1725
30248W        W46722   8.911  10.171   3.817  0.1366  0.0051 -0.3478
30249W        W46723   6.955   8.683   1.839  0.2363  0.2670  0.2507
30250W        W46724  12.305   8.981  15.987 -0.1639  0.1686 -0.1083
30251W        W46725  10.650   1.165  13.631  0.0872  0.3871  0.0757
30252W        W46726  15.620  17.627  12.893  0.2251 -0.1801 -0.0874
30253W        W46727  11.430   8.306   3.548 -0.1868 -0.2292 -0.2563
30254W        W46728   3.687   5.342   3.028 -0.4377  0.2402  0.0645
30255W        W46729   8.929  12.513  12.226  0.0046  0.1161 -0.0278
30256W        W46730  16.461   5.578   0.870  0.1359  0.0382 -0.0987
30257W        W46731  12.261  18.188   5.374 -0.0411  0.0337 -0.1355
30258W        W46732   9.101  15.319   1.141  0.1203  0.4070 -0.0005
30259W        W46733  14.971   7.468   0.923  0.2328  0.0129 -0.0292
30260W        W46734   7.619  13.893  15.740 -0.1758 -0.2499 -0.0772
30261W        W46735   6.973   9.289   3.227 -0.2781  0.1320 -0.1527
30262W        W46736   5.795  17.128  12.993  0.1874  0.1988  0.1169
30263W        W46737   7.761   5.032  11.759  0.0247 -0.3347 -0.1872
30264W        W46738   2.585   1.008  13.200 -0.1624  0.0001 -0.0595
30265W        W46739  15.799   0.624   2.749 -0.1071 -0.0248 -0.1223
30266W        W46740  12.206   0.640   0.839 -0.0153  0.0194 -0.1057
30267W        W46741   5.401  13.031   0.903 -0.0710  0.1626 -0.1260
30268W        W46742   1.257   5.137   1.204 -0.0543 -0.0891 -0.4612
30269W        W46743   4.084  10.371   1.633 -0.4184 -0.0443  0.2574
30270W        W46744  13.681   4.866   0.696 -0.2051  0.1967  0.0095
30271W        W46745  12.801  17.282   3.783 -0.1742  0.1528  0.0568
30272W        W46746   2.438  17.497   4.732  0.2218  0.2324  0.0023
30273W        W46747  10.942   8.275   4.826 -0.3067 -0.3915  0.1435
30274W        W46748   9.753  11.146  12.361 -0.3083 -0.2173 -0.0473
30275W        W46749   7.433   1.632  16.266 -0.2541  0.0576 -0.1223
30276W        W46750  10.295  16.942  12.809  0.4065  0.1154  0.1083
30277W        W46751   7.359  10.895  11.691 -0.2977  0.0644 -0.0580
30278W        W46752  16.443   7.683   5.895  0.2798 -0.3422 -0.0266
30279W        W46753   4.759  14.448   4.412  0.1338 -0.1392  0.2381
30280W        W46754   5.231   0.057  11.843 -0.5756 -0.1771  0.1150
30281W        W46755  16.910   8.888  12.480  0.0677 -0.1372  0.2921
30282W        W46756   1.060   3.034  12.373  0.2232  0.0275 -0.1510
30283W        W46757   8.146  10.283   0.608 -0.0480  0.0870 -0.0476
30284W        W46758  12.694  18.068   2.472  0.0920 -0.0962  0.0620
30285W        W46759   0.397   9.914   4.425 -0.2444 -0.2611  0.0965
30286W        W46760  13.968   7.188  14.680  0.1783 -0.1536 -0.1022
30287W        W46761   7.667   1.011   2.651  0.1457  0.1387  0.0275
30288W        W46762   5.718  15.567   2.764  0.0679 -0.0730  0.1937
30289W        W46763   0.044   9.949  15.361  0.3061 -0.1768  0.2835
30290W        W46764  15.211   2.666  15.141  0.2859  0.0279  0.3317
30291W        W46765  15.528   8.132   1.152  0.3003 -0.0251  0.3052
30292W        W46766   0.051   1.006  12.333 -0.0291  0.0932  0.1411
30293W        W46767  10.439   1.106   4.231 -0.2354 -0.2193 -0.0618
30294W        W46768  12.067   8.007   1.430 -0.1878 -0.0763  0.1679
30295W        W46769  10.126   9.093   3.692  0.1112  0.2880 -0.4472
30296W        W46770   4.195   0.618  12.781 -0.2335  0.1833  0.0363
30297W        W46771  14.131   3.237  11.264 -0.0476 -0.2624 -0.0182
30298W        W46772   3.011   3.877  11.303  0.1174  0.1990 -0.0324
30299W        W46773  11.935   5.763  14.315  0.1499  0.1519  0.1360
30300W        W46774  15.960  16.937  11.906  0.2361 -0.2563 -0.0453
30301W        W46775   6.077   4.162  12.101 -0.2161 -0.2574 -0.6301
30302W        W46776  15.398   0.885   1.405 -0.0680  0.1643  0.3878
30303W        W46777  10.636   2.643  12.019 -0.0927  0.1218  0.0776
30304W        W46778   5.323   0.821   0.085 -0.0085  0.1129 -0.0043
30305W        W46779  16.841   2.351  14.355  0.2761 -0.2249 -0.1706
30306W        W46780   5.461   9.527  11.284 -0.0293  0.1317 -0.0257
30307W        W46781  14.876   5.165  11.691  0.0653  0.0254  0.0505
30308W        W46782  13.207   9.541   3.138 -0.1268 -0.1475  0.0846
30309W        W46783   3.994  12.364   0.988 -0.0707 -0.1573 -0.1325
30310W        W46784   5.904   5.659   5.342 -0.1842 -0.0124 -0.3501
30311W        W46785  10.083   9.690   3.578  0.2033  0.4459 -0.1564
30312W        W46786  14.995  10.154  15.376 -0.3301  0.2618  0.1988
30313W        W46787   7.730  16.550   0.596  0.2581  0.2290  0.2273
30314W        W46788  14.294  14.344  11.220  0.0822  0.4280  0.0457
30315W        W46789   1.167  17.839  12.522 -0.0268  0.2598 -0.2212
30316W        W46790   8.476   0.279  14.554  0.1227  0.0845 -0.3732
30317W        W46791  13.130  15.712  13.001 -0.5053 -0.0700 -0.0686
30318W        W46792   9.987  17.298  12.583 -0.1415  0.1495  0.0730
30319W        W46793  15.947  10.150  15.737  0.3112  0.1005 -0.1113
30320W        W46794   3.227   9.481  12.702  0.3138  0.0041  0.4793
30321W        W46795   3.402  11.820  16.011  0.0340 -0.1852  0.2941
30322W        W46796  15.708  15.196   5.101 -0.2953  0.0211 -0.0127
30323W        W46797  10.260   4.968  14.152  0.0910  0.0876 -0.1203
30324W        W46798  17.317  13.875   5.391 -0.2199  0.2397  0.2679
30325W        W46799  16.388  12.988   4.996 -0.2418 -0.1836 -0.1510
30326W        W46800  14.646   9.183  15.186  0.0847 -0.1416 -0.0185
30327W        W46801  10.166  17.756   2.611 -0.2038 -0.0661  0.0182
30328W        W46802  15.994  16.667   0.218  0.1809 -0.1101 -0.1981
30329W        W46803  14.099  15.862   2.829 -0.3113  0.0223  0.0163
30330W        W46804  15.449   3.218  10.773 -0.1582 -0.1177 -0.4171
30331W        W46805  12.922  13.400  16.020 -0.3789 -0.2901  0.1883
30332W        W46806  13.971   6.038   1.280  0.4982 -0.3357  0.1447
30333W        W46807  11.353  15.265  13.914 -0.2610  0.1055 -0.0570
30334W        W46808   1.790   7.084   0.508 -0.0687 -0.1064 -0.1607
30335W        W46809  11.572  17.608   1.054 -0.0983  0.0680  0.2124
30336W        W46810  14.744  10.796  10.971 -0.0180  0.2142 -0.1336
30337W        W46811  13.270   9.161   2.514  0.0712 -0.1166  0.2618
30338W        W46812  17.269   7.723   4.523  0.4019 -0.1216  0.2806
30339W        W46813  11.352   8.661  15.994  0.2764 -0.1500  0.1120
30340W        W46814   4.073  16.352   2.364  0.1244  0.0370 -0.0680
30341W        W46815  14.111   4.687   3.973 -0.1734 -0.0688 -0.0072
30342W        W46816   6.124  15.910   1.908  0.2188  0.1122 -0.0604
30343W        W46817  10.206   9.578  14.084 -0.0574  0.0330 -0.1861
30344W        W46818  17.842   3.652  11.040  0.0774  0.1361 -0.0568
30345W        W46819  13.408   0.409  14.496  0.0297  0.3644 -0.0603
30346W        W46820  10.987  14.278   4.846 -0.2146 -0.1231  0.1476
30347W        W46821   9.245   8.834  12.711 -0.3110 -0.0359 -0.1431
30348W        W46822   3.392  12.237  15.706 -0.0420  0.1095 -0.3622
30349W        W46823   9.926  13.713   0.101  0.1479 -0.0394 -0.3307
30350W        W46824   9.722  16.129  13.172  0.0729  0.0236 -0.0917
30351W        W46825   8.928  13.318  13.269  0.0710  0.0990 -0.0969
30352W        W46826  16.380  10.197  15.989 -0.0768  0.1521 -0.2151
30353W        W46827  14.280  10.114  11.504  0.0559 -0.2466 -0.0423
30354W        W46828  13.118   0.746  13.788  0.1855  0.3854 -0.2876
30355W        W46829  17.577  15.154   1.411  0.0429  0.0045 -0.1234
30356W        W46830   0.412  12.289  12.330 -0.2033  0.2975 -0.3017
30357W        W46831   1.073  16.596   5.676 -0.0256 -0.2827  0.1458
30358W        W46832   7.297   8.665   0.612  0.0140 -0.0649  0.1475
30359W        W46833  16.124  15.604  14.655  0.0480 -0.2289 -0.2051
30360W        W46834  16.823   9.833  12.581 -0.1056 -0.2915  0.1331
30361W        W46835   9.957  15.683  13.082  0.4635 -0.2692 -0.2142
30362W        W46836  15.746  15.338   0.294 -0.1836  0.0152  0.2417
30363W        W46837   0.540   5.183   3.292 -0.0994 -0.0312 -0.2093
30364W        W46838   6.753   1.296  15.770  0.1890  0.0881  0.2299
30365W        W46839  13.034   4.236   5.079 -0.1609  0.0046 -0.1250
30366W        W46840   1.953  14.321   0.007  0.1557 -0.0603  0.0091
30367W        W46841  14.561   4.618  11.037  0.2103  0.0766 -0.1343
30368W        W46842   4.174   5.094  16.001  0.0810 -0.3422  0.0277
30369W        W46843  15.251   9.690   2.530 -0.3342  0.1147 -0.1150
30370W        W46844  12.638   7.121  12.466  0.1039 -0.2968  0.2265
30371W        W46845  11.613   7.841   3.534  0.0010  0.0352  0.2180
30372W        W46846  10.984  17.204   1.234 -0.4126 -0.2667  0.1391
30373W        W46847  15.981  12.186  15.285 -0.0328  0.0464  0.3002
30374W        W46848  16.974   0.535   4.785 -0.4080  0.3555  0.2393
30375W        W46849  16.611  10.660  15.498  0.0141  0.2173  0.0154
30376W        W46850   5.227  15.742  15.587  0.3316  0.1315 -0.1194
30377W        W46851  11.783   9.708   1.395  0.0128  0.1506 -0.1242
30378W        W46852   1.164   5.359  11.965  0.1194  0.0153 -0.0985
30379W        W46853   2.206   4.892  14.031 -0.1267 -0.0169  0.0890
30380W        W46854   3.546   9.146   2.076  0.3187  0.3398 -0.5374
30381W        W46855   8.418   5.150  12.347  0.0299  0.3041  0.1087
30382W        W46856  12.105  13.659   0.369 -0.1372  0.0075 -0.0963
30383W        W46857  17.416  13.211  15.943  0.1870  0.2564  0.0402
30384W        W46858   5.678  10.892   3.874  0.0197 -0.0742 -0.3584
30385W        W46859   8.370  15.306   0.728  0.2215 -0.1878  0.0225
30386W        W46860  17.671   5.016   1.776 -0.1562  0.1351  0.4941
30387W        W46861  14.430  12.067   2.938 -0.0811  0.3617 -0.1814
30388W        W46862  17.629   7.144  16.160  0.0065  0.1437 -0.0086
30389W        W46863   9.553   1.533  13.213 -0.3583  0.0073  0.0375
30390W        W46864   3.120  14.326   5.621  0.1672 -0.2241  0.2393
30391W        W46865   5.656   3.881   5.573 -0.2774 -0.2219 -0.1043
30392W        W46866   0.427   3.401  14.282  0.2481 -0.2596  0.1000
30393W        W46867  12.088   9.791  13.268 -0.3869  0.0614 -0.1657
30394W        W46868   0.537   4.840  12.910 -0.3692  0.2160 -0.2723
30395W        W46869  17.610   0.061  15.226  0.1612 -0.3659 -0.1075
30396W        W46870   5.552  13.808  13.037 -0.0680  0.1250 -0.3618
30397W        W46871   2.957   8.645   0.920 -0.3404  0.1724  0.1244
30398W        W46872   0.775   7.993  11.483  0.0629  0.1964  0.1546
30399W        W46873  13.626   4.319  15.455  0.0766  0.2948 -0.1082
30400W        W46874  15.530   9.205  12.175 -0.1216  0.2151 -0.0379
30401W        W46875  17.097  13.243  13.594  0.2003  0.2583 -0.3164
30402W        W46876   6.399   6.537   0.467  0.1401  0.0816 -0.0476
30403W        W46877  15.221   7.462   5.235  0.2098  0.2172 -0.2912
30404W        W46878  10.213  18.289  16.101 -0.1567  0.0558  0.1877
30405W        W46879  13.528   6.806  11.004  0.4040  0.4068 -0.1173
30406W        W46880   4.473  12.920  13.079  0.2137 -0.0297  0.0312
30407W        W46881   7.123  11.014   1.783  0.2761  0.0200 -0.0627
30408W        W46882   6.333   1.173   1.760 -0.1529 -0.1209 -0.3837
30409W        W46883   9.008   4.345   1.128 -0.0275  0.0790  0.0583
30410W        W46884  13.511   1.412  14.619  0.1366  0.1631 -0.3153
30411W        W46885   3.923  18.080   1.691 -0.0350 -0.0031 -0.0723
30412W        W46886  17.351   5.665   0.523  0.1557 -0.1674 -0.1064
30413W        W46887  13.114   2.805   1.609  0.0658  0.0110 -0.0938
30414W        W46888  17.414   6.005   6.001 -0.0498  0.3189 -0.0161
30415W        W46889   5.599   0.518  12.596  0.1573  0.0225 -0.0122
30416W        W46890  17.774  13.963  12.528 -0.1760  0.2141 -0.3306
30417W        W46891  16.352   2.124   4.723  0.3404  0.1141 -0.2150
30418W        W46892  13.077  12.500  11.573 -0.1638  0.0342 -0.3772
30419W        W46893  13.122  14.910  16.052  0.3063  0.3247 -0.0586
30420W        W46894  10.969   9.954   3.157 -0.2365  0.1250  0.2680
30421W        W46895   0.814   7.910   4.728  0.3836  0.0842 -0.1676
30422W        W46896   5.304   8.127   1.927 -0.0546 -0.0750 -0.1402
30423W        W46897   2.023   0.747   1.494  0.2370  0.0117  0.0276
30424W        W46898   8.918   4.692  12.983  0.2270  0.0130  0.0574
30425W        W46899  13.643   2.359   0.164  0.2176 -0.0602 -0.2745
30426W        W46900   0.240  11.429   0.610  0.1101 -0.3116 -0.0097
30427W        W46901   1.294  16.525  16.089 -0.3216 -0.1876  0.1895
30428W        W46902  11.140  14.227   1.636 -0.0547 -0.0766 -0.3443
30429W        W46903   3.242  13.563   5.447 -0.2935  0.0854  0.1795
30430W        W46904  12.206  11.789   4.513 -0.1591 -0.1477  0.2365
30431W        W46905  15.902   0.098   6.514  0.4724 -0.0611 -0.0818
30432W        W46906  15.316   9.349   5.012  0.0335  0.2537  0.2117
30433W        W46907  12.177  14.707   2.879  0.0267 -0.1421 -0.1660
30434W        W46908  17.055   1.325   0.243 -0.2971  0.0802 -0.1749
30435W        W46909  15.058   0.587   4.875  0.0576 -0.0586  0.3495
30436W        W46910  12.529   0.742  14.664 -0.1231 -0.0112  0.1900
30437W        W46911  17.787  18.140   2.387 -0.0427  0.0078  0.0642
30438W        W46912   5.764  13.345   0.104  0.0561  0.0827  0.5627
30439W        W46913  10.718   4.000   3.082 -0.0360 -0.3171  0.0278
30440W        W46914  18.388   2.740   4.617  0.4725 -0.0802 -0.0173
30441W        W46915   4.171   2.647   0.839 -0.4727 -0.1362  0.0948
30442W        W46916   2.664  18.186  15.379 -0.0257 -0.1551  0.2199
30443W        W46917   2.613   8.319   4.051 -0.1451 -0.1056  0.1397
30444W        W46918   8.724   8.162   1.910 -0.0747  0.3077 -0.2101
30445W        W46919   3.528   1.906   3.358 -0.3090  0.3465  0.1499
30446W        W46920  13.930   7.104   3.583  0.1931 -0.0378 -0.0036
30447W        W46921  10.044   2.936   1.127 -0.0060  0.1831 -0.0483
30448W        W46922   3.108   6.158  15.847  0.1259  0.0369 -0.0861
30449W        W46923  13.039   9.438  13.639 -0.0398  0.1015  0.1340
30450W        W46924   5.259  12.745   4.608 -0.1926  0.2425 -0.1170
30451W        W46925  11.270   9.579  13.689  0.3240 -0.1214 -0.1716
30452W        W46926  12.290   4.387   5.735  0.2379  0.0773  0.2220
30453W        W46927  10.876   1.095  16.128 -0.1265  0.1523 -0.0267
30454W        W46928   2.448  12.905   5.579 -0.2706 -0.0193 -0.0576
30455W        W46929   3.425  12.257   0.958 -0.1353  0.1878  0.0750
30456W        W46930  16.772   0.530  14.119  0.1287 -0.1360  0.1052
30457W        W46931   2.854   1.807   4.010 -0.3731 -0.3983 -0.2103
30458W        W46932  11.167   2.097  10.694  0.2533 -0.1558 -0.0214
30459W        W46933   3.442   0.371   4.653 -0.2673  0.3766  0.0624
30460W        W46934   1.678  12.222  15.985 -0.2701  0.0328  0.0793
30461W        W46935  13.295   1.645   0.989  0.1202  0.2439 -0.0161
30462W        W46936   2.390   7.187   1.854  0.0751  0.2686 -0.2865
30463W        W46937  14.440  16.324  12.622  0.1805  0.2476  0.0933
30464W        W46938   6.558   3.767   1.223 -0.3785 -0.0465 -0.1542
30465W        W46939  18.303  16.204  10.739 -0.5450  0.2263 -0.1498
30466W        W46940  10.495  16.053   0.780  0.1346 -0.2218  0.0818
30467W        W46941   8.481  14.216  14.226  0.2507 -0.3033 -0.0499
30468W        W46942  15.872  13.621   2.039  0.3364 -0.1071  0.0756
30469W        W46943   4.562   0.333   2.493 -0.1390  0.1228 -0.1853
30470W        W46944  11.717   2.548  13.545  0.2385 -0.2611 -0.1305
30471W        W46945  17.309  15.583   1.268 -0.0163 -0.0407 -0.0101
30472W        W46946  13.284  13.763  16.276  0.1307 -0.4372 -0.0174
30473W        W46947  17.684  10.351  14.833  0.0391  0.1425 -0.0046
30474W        W46948  11.730   2.418  11.814 -0.0333  0.2123  0.2479
30475W        W46949   3.773   6.755  11.941 -0.0779 -0.2476 -0.1051
30476W        W46950   7.366  12.801   0.610  0.0881  0.2981  0.0452
30477W        W46951  15.385  15.202  15.759 -0.0224 -0.1918 -0.1608
30478W        W46952   8.712   3.752   0.598 -0.0629  0.1234 -0.1276
30479W        W46953   4.406   5.165   5.319 -0.0203 -0.2000  0.1523
30480W        W46954   1.293   9.054   5.114 -0.4597  0.0698 -0.2902
30481W        W46955  10.701   4.807  15.705  0.0220  0.4211 -0.3224
30482W        W46956  17.168  15.412  15.356  0.3151 -0.1739 -0.1157
30483W        W46957   8.633  17.002   1.715  0.0077  0.0669 -0.0712
30484W        W46958   5.808   3.431  15.002  0.1331 -0.0204 -0.0569
30485W        W46959   6.522   3.906  12.747  0.3056 -0.0664 -0.2694
30486W        W46960  16.268  12.343   0.670 -0.1359  0.0420  0.1210
30487W        W46961   8.020   2.648  11.388  0.3072 -0.0481 -0.0215
30488W        W46962   2.458  11.391  15.808  0.0285  0.1521 -0.0008
30489W        W46963  14.431  14.949   1.428 -0.1957 -0.1224 -0.1592
30490W        W46964  10.202   7.800  13.178 -0.0446  0.0629  0.0205
30491W        W46965   0.406   0.219  16.216  0.1133  0.0824 -0.3822
30492W        W46966  12.418   1.348   4.429  0.2340  0.1711  0.0124
30493W        W46967   4.188   7.531   0.468  0.0932 -0.0313 -0.1089
30494W        W46968   6.373   2.590   0.500  0.1701  0.0615  0.2949
30495W        W46969   2.322   6.877  15.528 -0.0379  0.0590  0.4496
30496W        W46970   5.181  12.463   1.419 -0.0833  0.1082 -0.0936
30497W        W46971  17.168  13.966   2.730 -0.0954 -0.2463 -0.2881
30498W        W46972   1.470   1.437  12.520  0.0445 -0.1940  0.2006
30499W        W46973  14.380   6.906  13.535  0.0427 -0.0536 -0.2743
30500W        W46974  15.620   7.535  11.313 -0.1123  0.0647  0.2297
30501W        W46975  14.514   2.541   2.886 -0.1023  0.4629  0.1636
30502W        W46976   9.034   8.216  12.781 -0.0165  0.2273  0.0955
30503W        W46977   0.576  10.139  10.799  0.0596 -0.0539  0.2243
30504W        W46978  11.994   3.884   0.313  0.1731 -0.2292 -0.1697
30505W        W46979  10.115   0.141   1.491 -0.1654  0.0103  0.1855
30506W        W46980  16.902  15.886   3.852  0.2170 -0.0810  0.0096
30507W        W46981  10.264   8.718   1.315  0.0392 -0.1622  0.1709
30508W        W46982  15.468   2.322   5.563  0.0473  0.0665  0.2911
30509W        W46983  15.078   2.661  12.336 -0.3355 -0.1419  0.2060
30510W        W46984  13.706   1.468   2.006 -0.0025  0.0543 -0.0759
30511W        W46985  13.859   4.834  14.082 -0.1012  0.1844  0.1253
30512W        W46986   7.877   4.957  15.871  0.0053  0.1033 -0.2195
30513W        W46987  11.375   4.670   2.528 -0.1766 -0.0738 -0.3585
30514W        W46988  17.181  17.497   0.262 -0.2937  0.0357  0.0021
30515W        W46989  12.154   0.077   2.371 -0.0972  0.0965 -0.0228
30516W        W46990  12.607   2.137  13.694 -0.0160  0.1070 -0.0220
30517W        W46991   7.410  10.362   1.250  0.0843  0.3181  0.0553
30518W        W46992   5.922  13.453  12.036  0.4129 -0.3512  0.2672
30519W        W46993  14.644  15.955  12.880  0.0208 -0.3644  0.1013
30520W        W46994  13.368   0.597  11.956  0.1904 -0.0613  0.3366
30521W        W46995  11.145   3.378   0.589 -0.2268 -0.3097  0.1484
30522W        W46996  16.049   7.309  11.573  0.0356 -0.0012 -0.1961
30523W        W46997   8.691  10.706  12.896  0.3050 -0.2613  0.0677
30524W        W46998   7.623   5.027   1.179  0.3649 -0.2312 -0.0237
30525W        W46999  16.166  10.606  15.782 -0.1789  0.2086 -0.0661
30526W        W47000   3.469   0.693   2.098  0.0252  0.0139 -0.1207
30527W        W47001  11.874   2.628   1.583  0.0325  0.1518  0.2054
30528W        W47002  12.440   0.303  11.239 -0.0144  0.1187 -0.1612
30529W        W47003  15.206   0.378   5.276 -0.0700  0.0676 -0.0771
30530W        W47004  17.194   2.171  16.315  0.0725  0.0228 -0.2379
30531W        W47005  13.090   0.280  14.062 -0.0053  0.0930 -0.1368
30532W        W47006   9.461  15.229   5.635 -0.0407  0.0385  0.2027
30533W        W47007  13.152   1.265  11.450 -0.1405 -0.0754  0.0385
30534W        W47008   3.717   2.471   4.587 -0.0186 -0.2266 -0.3026
30535W        W47009  15.895   7.076  15.274 -0.1035  0.1985  0.0097
30536W        W47010   5.674  17.124   3.867  0.1586  0.0162 -0.2416
30537W        W47011   0.841  12.423   4.730  0.2119 -0.0201  0.0019
30538W        W47012  13.142   7.817  10.558  0.2767  0.1094  0.0964
30539W        W47013  13.513   4.925   5.498 -0.0351 -0.0317 -0.0839
30540W        W47014   6.693  17.750  11.906  0.3402  0.2350  0.0464
30541W        W47015  12.599   5.723   5.437  0.0313 -0.1448 -0.2154
30542W        W47016  10.486   0.511  10.845 -0.0505 -0.1717  0.1489
30543W        W47017   1.766  17.169   4.057  0.0354  0.1781  0.2462
30544W        W47018  16.799   9.453  10.752 -0.0710  0.1696  0.0840
30545W        W47019   1.858  13.088  14.778  0.0794  0.1444  0.0588
30546W        W47020  11.568   4.352  14.296 -0.1282  0.0346  0.0184
30547W        W47021  12.263   0.567  15.571 -0.1442 -0.1066 -0.0335
30548W        W47022   2.635   4.392   1.126  0.2247  0.0062 -0.0118
30549W        W47023  10.161  11.139   0.907 -0.1512  0.3036 -0.2317
30550W        W47024  10.696  10.110  13.199  0.0566 -0.1718 -0.1883
30551W        W47025   3.371   9.791  16.227  0.2786 -0.0058  0.1839
30552W        W47026  15.089  13.090   2.555  0.2174 -0.2559  0.1305
30553W        W47027  15.497  14.724  14.602 -0.1933 -0.2057  0.0316
30554W        W47028   8.683   7.235  13.763  0.2374  0.0023 -0.2043
30555W        W47029  16.185  17.221  11.518 -0.0367 -0.0504 -0.1380
30556W        W47030   0.871   1.228  12.383 -0.1383 -0.3691  0.1908
30557W        W47031  14.871  17.118   1.170 -0.1118 -0.3230  0.1424
30558W        W47032   1.109   2.399   3.237  0.4172  0.0177 -0.0418
30559W        W47033  14.336   5.670  11.963  0.1101  0.1116 -0.1463
30560W        W47034   7.321  14.225  15.438 -0.0387 -0.1052  0.1083
30561W        W47035   1.210  14.159   0.464  0.0827  0.1325 -0.1681
30562W        W47036  11.907  17.890   2.911  0.1754  0.2119  0.1541
30563W        W47037  15.278  10.342  12.960 -0.2852 -0.4068  0.1945
30564W        W47038   2.253  11.378  13.518  0.0993 -0.0278 -0.4436
30565W        W47039  15.274  17.952   3.453 -0.2411  0.3363 -0.0188
30566W        W47040   7.369   4.271   3.117 -0.0392  0.4379 -0.4298
30567W        W47041   7.757  10.249  11.314 -0.0983 -0.1546 -0.0651
30568W        W47042   1.517   8.659  12.377  0.1864 -0.1588  0.1035
30569W        W47043   2.757  14.745   0.440  0.1524  0.0907 -0.0026
30570W        W47044  18.122   2.157   0.208  0.1344  0.1777 -0.2329
30571W        W47045   9.349   7.993   1.303  0.2279  0.1159 -0.1854
30572W        W47046  12.889   5.355   3.093  0.2189 -0.0306 -0.1419
30573W        W47047  13.757   5.134  15.007  0.1360 -0.0179 -0.1796
30574W        W47048   5.315   4.309  13.113  0.0004  0.1606 -0.3526
30575W        W47049   4.961  15.981  14.096  0.0429 -0.2939  0.3339
30576W        W47050  14.137   8.843  15.809 -0.1981 -0.2690 -0.2146
30577W        W47051   0.775  15.871  11.628  0.3315 -0.2122  0.0299
30578W        W47052   6.070  18.284   0.566 -0.3331 -0.1626  0.0837
30579W        W47053  14.324  14.395   1.421  0.0369 -0.5833  0.0785
30580W        W47054  12.872   4.692  10.429  0.0135 -0.0922 -0.0268
30581W        W47055   0.627  15.041  14.878  0.2220  0.0630  0.1159
30582W        W47056   5.618   8.627   0.972 -0.0085  0.1251  0.2176
30583W        W47057   1.128  13.456   3.827  0.1213  0.2977 -0.0836
30584W        W47058   9.996  11.219   2.722  0.0738 -0.2381 -0.6456
30585W        W47059  18.053  13.461   4.152 -0.1001  0.0875 -0.0708
30586W        W47060   6.395   4.689   0.078  0.0606 -0.2475  0.3469
30587W        W47061  11.736  13.062  11.686 -0.2141 -0.2102  0.0451
30588W        W47062  17.213   7.992   0.421  0.1753  0.3170 -0.1478
30589W        W47063  17.040   9.135  13.415  0.0911 -0.0835 -0.1488
30590W        W47064  13.958  10.495   0.978 -0.0268  0.1234  0.2390
30591W        W47065  15.228  14.987   4.479 -0.1847 -0.0911  0.0826
30592W        W47066  17.630   8.651  14.148 -0.3156  0.2499  0.0295
30593W        W47067  13.684  13.190   4.837 -0.2639  0.0225  0.0619
30594W        W47068   9.492   6.658   4.864 -0.0187 -0.1435 -0.0779
30595W        W47069   5.948  17.704   1.465  0.0002  0.0872 -0.1311
30596W        W47070  10.003  13.204  12.759 -0.3481 -0.3467  0.1089
30597W        W47071  10.377   5.638   2.911  0.3985 -0.2911  0.1594
30598W        W47072  12.930  16.780  15.600 -0.1090  0.0064  0.3683
30599W        W47073  16.974   1.979   2.108  0.5047  0.1295  0.0052
30600W        W47074  16.961   4.714   0.617 -0.1078 -0.3422 -0.3758
30601W        W47075  15.657   8.810   4.079 -0.2195 -0.1300  0.3797
30602W        W47076   2.230   0.419  13.878 -0.0282 -0.2632  0.1570
30603W        W47077   4.999   4.533  12.705 -0.2052 -0.0508  0.2392
30604W        W47078   0.788   6.069   4.853 -0.0134 -0.0471 -0.0740
30605W        W47079  17.248   8.764   2.039 -0.0079  0.1140  0.0484
30606W        W47080   1.016   0.030   3.657  0.0082  0.0387  0.0396
30607W        W47081   8.842   5.300  13.879  0.2875  0.3081  0.1178
30608W        W47082   6.786  14.745   3.362 -0.3149  0.0935 -0.1477
30609W        W47083   4.296   6.892   1.681  0.0245 -0.1261  0.3977
30610W        W47084   3.815   7.246  13.813  0.1418 -0.0112  0.0812
30611W        W47085  12.962   7.049   0.651  0.4169 -0.2111 -0.1015
30612W        W47086   4.542   0.523  13.286  0.0650 -0.2748  0.0553
30613W        W47087  13.103  13.798   2.486  0.1857 -0.0684  0.1935
30614W        W47088   9.506   4.505  14.578 -0.2359 -0.1198 -0.4965
30615W        W47089   1.397  11.085  12.807  0.1120  0.0492 -0.2283
30616W        W47090   3.623   2.494  11.724  0.3970  0.1062  0.0722
30617W        W47091  15.723   4.623  10.563 -0.0054  0.1359 -0.0603
30618W        W47092  15.911  14.747  12.777 -0.3689 -0.0048  0.4213
30619W        W47093   9.735  10.285  13.576  0.1114  0.3132  0.0238
30620W        W47094  17.557   2.849   2.425 -0.1928 -0.0734  0.1160
30621W        W47095   5.295   5.750   1.971  0.2375  0.1366  0.0657
30622W        W47096   1.435  15.106  16.096  0.0253 -0.0407  0.1713
30623W        W47097  14.887  13.992  13.642 -0.1277 -0.2600  0.1013
30624W        W47098   7.292   0.574   0.739 -0.1607  0.0281  0.2009
30625W        W47099   9.369   6.715   4.369  0.0933 -0.1746  0.1588
30626W        W47100   3.059   9.272  11.537  0.1120  0.0980 -0.0459
30627W        W47101  16.542   2.795   2.666  0.0687  0.2674 -0.0084
30628W        W47102   1.507   5.309  14.245  0.3442 -0.0305  0.0065
30629W        W47103   8.447   5.521   4.822 -0.0621 -0.1340 -0.0425
30630W        W47104  10.173   9.269  11.837  0.0263 -0.2652  0.2924
30631W        W47105   1.586   4.801   1.997 -0.0921 -0.0657 -0.2360
30632W        W47106   6.287   9.720   3.975  0.0132  0.0384  0.4471
30633W        W47107   4.800   0.149   0.440 -0.0815  0.0814 -0.0086
30634W        W47108  12.496   2.048   0.693  0.1403  0.0655 -0.0175
30635W        W47109  12.032  10.055   5.309 -0.1429  0.0244 -0.0504
30636W        W47110   0.198   3.254  13.857 -0.2394  0.0391  0.1288
30637W        W47111   2.475   1.701  11.174 -0.1718 -0.2459  0.1788
30638W        W47112  12.659  10.630   5.268  0.0692  0.0385  0.0681
30639W        W47113   0.481   0.851   1.206  0.0535 -0.3855  0.2523
30640W        W47114  14.088   3.723   3.770  0.1155 -0.2832 -0.0647
30641W        W47115  10.132   2.921  14.706 -0.2184  0.1026  0.0930
30642W        W47116   9.007   3.750   5.044 -0.1391 -0.1905 -0.1515
30643W        W47117  15.068   8.387   3.366  0.2065  0.0716  0.1783
30644W        W47118   5.584  11.342   1.883  0.2206 -0.1090  0.1777
30645W        W47119   7.182  13.862  14.545  0.2873  0.0840  0.0876
30646W        W47120   6.933   2.904  13.235 -0.2762  0.2860  0.0827
30647W        W47121  12.034  11.703  15.303 -0.0454  0.1509  0.1913
30648W        W47122  14.645  11.115   5.106 -0.6502  0.0627  0.4352
30649W        W47123   8.954  12.455   4.144 -0.0869  0.0920  0.0257
30650W        W47124   1.459   4.514  13.974  0.0953  0.0487 -0.0908
30651W        W47125   3.870   0.308  13.130  0.0218  0.4484  0.2454
30652W        W47126  14.693  15.143   4.536 -0.1201  0.1631  0.1359
30653W        W47127   4.323   8.623   4.811  0.2014 -0.1545  0.0397
30654W        W47128  13.979  11.198  13.939  0.0067 -0.0084 -0.0458
30655W        W47129   0.656   4.303  15.998 -0.0875  0.3187 -0.0802
30656W        W47130  10.048   7.244  11.752  0.2960  0.0808 -0.0516
30657W        W47131   7.829   1.896  11.846 -0.1878  0.0242 -0.5290
30658W        W47132   4.486   6.066   2.309  0.1581 -0.3518  0.2183
30659W        W47133   6.080  18.369   4.632 -0.0716  0.3131  0.1871
30660W        W47134   3.223   2.678   4.386 -0.0004  0.0056  0.2038
30661W        W47135  12.086   0.944   0.437 -0.1054 -0.1088  0.1292
30662W        W47136   5.333  18.021   4.440  0.0070 -0.0440  0.0138
30663W        W47137  16.745  11.931  13.428 -0.1868  0.1832 -0.2302
30664W        W47138   5.978   8.772  13.927  0.2224  0.1920  0.1462
30665W        W47139   1.009  15.429  13.481  0.0632 -0.0593 -0.1476
30666W        W47140  16.335  16.626   4.552 -0.0097 -0.3894  0.2668
30667W        W47141   2.904  13.573   4.545 -0.3703 -0.3069 -0.2804
30668W        W47142   1.573  10.076  11.497  0.1461  0.0375  0.1214
30669W        W47143   2.912   9.827  14.690  0.0351  0.0829  0.1418
30670W        W47144   9.271  10.308   1.365 -0.1636 -0.0222 -0.0955
30671W        W47145  15.672  18.298   3.179  0.0472  0.0190  0.3799
30672W        W47146  17.077  16.477   3.060 -0.1443 -0.1024 -0.1830
30673W        W47147   6.511  10.880  13.278 -0.1748  0.0985 -0.0922
30674W        W47148  14.936   9.503  13.059  0.0833 -0.1256 -0.0662
30675W        W47149   5.002  15.529   5.519 -0.0157  0.1145  0.0801
30676W        W47150  16.751  17.112   1.544 -0.1042 -0.1234  0.0181
30677W        W47151  17.411   0.921  14.677 -0.3138 -0.0425  0.2342
30678W        W47152  13.571  15.305  14.799  0.1934  0.0094  0.0824
30679W        W47153  15.429  13.863  16.261  0.1039 -0.1760 -0.0292
30680W        W47154  12.339   8.441  12.034  0.0287 -0.1222  0.2027
30681W        W47155  10.798   8.963  10.609  0.0898 -0.0159  0.0669
30682W        W47156   6.315   6.566  13.698 -0.1734  0.0760 -0.0143
30683W        W47157  12.074   8.143  14.317 -0.0529 -0.0691  0.4765
30684W        W47158   8.348  14.067  11.689  0.0172  0.1659 -0.1691
30685W        W47159   6.998  12.881  12.501 -0.1887 -0.0957  0.1533
30686W        W47160   1.754   0.437  14.758 -0.2145  0.1087  0.0934
30687W        W47161  16.163  15.182  14.375  0.1449  0.0276  0.0965
30688W        W47162   3.486   6.162  10.439  0.0170 -0.0013 -0.1701
30689W        W47163  10.410   7.415   2.056 -0.0734 -0.3648  0.0341
30690W        W47164   3.877  13.181   2.437 -0.2346  0.3061  0.1852
30691W        W47165   3.726  10.866   0.082  0.0522  0.3099  0.0128
30692W        W47166   3.811  11.983   5.469  0.2582  0.1330 -0.2098
30693W        W47167  14.317  12.140  11.933 -0.2419 -0.0716  0.1315
30694W        W47168  10.570   9.666   1.333 -0.2984 -0.0819 -0.0233
30695W        W47169  17.410   6.065   3.861  0.1399  0.2931  0.0674
30696W        W47170  14.364   6.490  13.942 -0.3509  0.1246 -0.0846
30697W        W47171   4.906  13.583  12.068 -0.4428  0.0283  0.0445
30698W        W47172   8.061   2.138  15.555 -0.1831  0.0984  0.0713
30699W        W47173   0.089   8.580  14.194 -0.4850  0.0365  0.0928
30700W        W47174  16.985   5.814   3.953  0.0997  0.0338 -0.0134
30701W        W47175   7.545  13.288  12.685  0.1910  0.1679 -0.1243
30702W        W47176  16.969   8.605  15.530 -0.1415 -0.0194  0.1042
30703W        W47177   0.343   8.144   1.957  0.2609 -0.0805 -0.2350
30704W        W47178   8.831  13.669  12.860  0.1507 -0.1059 -0.0837
30705W        W47179  17.416  15.219   0.888 -0.1564  0.0825 -0.0346
30706W        W47180   3.513  17.318  13.225  0.0940 -0.0283  0.0183
30707W        W47181   0.415  15.459  15.718 -0.0479  0.1507 -0.2330
30708W        W47182   2.889  10.483  15.666  0.0656  0.2758  0.1544
30709W        W47183   6.749   8.900   1.235 -0.0060  0.4347 -0.4360
30710W        W47184  10.011  14.961  10.767  0.0826 -0.0742  0.2870
30711W        W47185  16.937   4.615  14.638 -0.0855  0.2918  0.1788
30712W        W47186   8.054  15.881   1.209 -0.0406 -0.2268 -0.3078
30713W        W47187   8.954   4.580   2.925  0.3110  0.3583  0.3174
30714W        W47188  14.940   3.089   1.757  0.1099 -0.1411  0.1463
30715W        W47189   9.558  13.493  16.144 -0.0028 -0.1629 -0.0943
30716W        W47190  10.180  16.965  14.134 -0.0175 -0.1475 -0.0174
30717W        W47191  15.075   9.032   1.757  0.0128 -0.1389  0.0235
30718W        W47192   3.986   4.259   4.008 -0.2958  0.2504  0.0494
30719W        W47193  14.404  15.159   3.502  0.2817 -0.1447 -0.1604
30720W        W47194   5.352  12.307   5.545 -0.4617 -0.0821  0.1962
30721W        W47195  16.942  14.208   5.726 -0.1829 -0.0698 -0.2569
30722W        W47196  12.682   8.432   0.703 -0.3344 -0.0911 -0.5000
30723W        W47197   7.124  12.151  12.372  0.0009 -0.1345 -0.1135
30724W        W47198   0.865   2.393  15.717  0.0164  0.0949 -0.1458
30725W        W47199  12.890  13.179   0.509 -0.2282  0.2269  0.1400
30726W        W47200   0.790  15.242   1.274 -0.2814  0.0748  0.3269
30727W        W47201  17.065  16.409  12.640 -0.0955 -0.2772 -0.0924
30728W        W47202   5.565   1.739   3.438  0.0997  0.2830  0.0119
30729W        W47203  12.056  13.076  10.931  0.2337 -0.1543  0.1220
30730W        W47204   0.231  11.274  14.250 -0.3976  0.0873  0.0159
30731W        W47205  13.129   7.204  11.750 -0.0453 -0.0461 -0.0543
30732W        W47206  18.362   1.764   5.379 -0.1936  0.2359 -0.2471
30733W        W47207   4.444   8.559   0.111 -0.2329 -0.2020  0.0254
30734W        W47208   9.398   5.509   0.667  0.4416 -0.4095  0.0358
30735W        W47209   4.097   9.726   2.823 -0.3636 -0.1466 -0.1562
30736W        W47210   8.420  17.420   1.993 -0.2498  0.1910  0.0248
30737W        W47211   6.175   6.073   1.709 -0.1135 -0.1164  0.2251
30738W        W47212   2.350  17.305  11.728  0.0404  0.0807 -0.0236
30739W        W47213   2.045   3.124   4.427 -0.0633 -0.2056  0.0332
30740W        W47214   7.448  14.739  14.109 -0.1694 -0.1086  0.0310
30741W        W47215   3.449   6.891   4.608 -0.2363 -0.4203  0.0215
30742W        W47216   6.525   4.229   1.592  0.0896 -0.0750 -0.4257
30743W        W47217   1.178   8.783   2.467  0.1080  0.0103  0.0586
30744W        W47218   3.692  12.631  11.897  0.0575 -0.0687 -0.0795
30745W        W47219   6.042  16.704  13.796  0.0864 -0.3090 -0.1023
30746W        W47220  12.683  12.088  15.144  0.2744 -0.1624 -0.2962
30747W        W47221  14.246   3.181  14.061  0.1377  0.4964  0.0272
30748W        W47222   5.170   6.615  14.657  0.0460 -0.1277 -0.1421
30749W        W47223  15.922  12.329   1.093  0.2594  0.0281 -0.2435
30750W        W47224   5.936  13.888   6.003  0.0489  0.1517 -0.1117
30751W        W47225   0.015   4.627   1.269 -0.0062  0.0920 -0.4863
30752W        W47226   0.287  15.498  14.815 -0.1930  0.5132 -0.2773
30753W        W47227   9.942  10.923  11.043  0.0237  0.2184 -0.0968
30754W        W47228   1.272   5.055  15.763  0.3134 -0.2554  0.1504
30755W        W47229   7.144   3.300  13.036 -0.1827 -0.0770  0.1432
30756W        W47230  17.942   7.435   1.460 -0.0575 -0.0520  0.1943
30757W        W47231  12.897  11.660  14.318 -0.0813  0.0259  0.0325
30758W        W47232   2.609   3.896   2.739 -0.3463 -0.3034  0.0362
30759W        W47233  10.640   5.220  14.434 -0.1391 -0.4310  0.1420
30760W        W47234  11.528  18.119   2.613  0.1249  0.2120 -0.2566
30761W        W47235  17.725   7.730  12.837  0.0935  0.3267 -0.0417
30762W        W47236   1.204  14.535  15.883  0.4110 -0.1680 -0.1740
30763W        W47237   6.705   1.373   4.978  0.0174  0.1446  0.0579
30764W        W47238  16.436  15.194  12.101  0.2118 -0.0525  0.2069
30765W        W47239   6.620  10.746   4.852 -0.1218  0.0419 -0.4134
30766W        W47240   7.453  15.672   2.979  0.1579  0.1608 -0.0573
30767W        W47241  16.724  13.294   0.391 -0.0407  0.1644 -0.0333
30768W        W47242  10.370   2.788   5.796 -0.0677 -0.0464  0.0267
30769W        W47243   6.178   4.948   3.084  0.0287 -0.2660 -0.2187
30770W        W47244  10.784   9.478  15.819 -0.0494 -0.0917 -0.0656
30771W        W47245   6.653  11.931   0.076  0.0668 -0.0278 -0.2489
30772W        W47246   5.271   6.647   4.214  0.0501  0.0424 -0.2529
30773W        W47247   9.590  12.307  14.233  0.1262 -0.0374  0.0795
30774W        W47248   5.400   1.618   1.629 -0.0326  0.2096 -0.0283
30775W        W47249  17.134  15.760   2.485 -0.2793 -0.1941 -0.2431
30776W        W47250   1.601  16.606   0.286 -0.2680 -0.0129 -0.1838
30777W        W47251  14.572   0.819   3.035  0.0927 -0.0359 -0.1078
30778W        W47252   5.788   7.913  11.533  0.1699  0.2525  0.3613
30779W        W47253  15.460  12.189   4.219  0.2114 -0.0657  0.2717
30780W        W47254  10.664   9.993   1.699 -0.0009 -0.1948  0.0273
30781W        W47255  15.417  11.904  14.485  0.0563  0.0398 -0.0193
30782W        W47256   2.464  10.545   3.836 -0.1109  0.1016  0.2473
30783W        W47257   4.445  16.989   3.067 -0.1562  0.4652 -0.0424
30784W        W47258   2.378   1.300   2.459 -0.1005 -0.0508 -0.3131
30785W        W47259  15.335   8.125   0.303 -0.1559  0.0951  0.0986
30786W        W47260   0.460  16.657   3.730 -0.1772 -0.1190 -0.1295
30787W        W47261   7.342  16.477   1.084  0.2960  0.1796 -0.0037
30788W        W47262   2.743   6.215   4.286 -0.2713 -0.0055 -0.2737
30789W        W47263   1.153  14.032   4.950  0.0731 -0.1142 -0.0527
30790W        W47264  17.233  13.220   4.520 -0.0570 -0.1070  0.0546
30791W        W47265   4.130   3.545  13.140  0.0034  0.4600 -0.1256
30792W        W47266  11.107  18.132  15.612 -0.0593 -0.1966  0.1004
30793W        W47267  16.377  14.414  14.481 -0.0573 -0.5252  0.2598
30794W        W47268   4.012   3.940   4.964  0.0413 -0.0689 -0.0384
30795W        W47269  15.528  15.194   4.159  0.2549  0.0268 -0.1525
30796W        W47270   3.247   1.116  12.043  0.1001 -0.1859 -0.1455
30797W        W47271  17.942  14.758  11.481  0.0008 -0.3829  0.0400
30798W        W47272   4.212   8.441  15.975 -0.4245  0.2123 -0.1184
30799W        W47273  16.993   0.849  13.800  0.0479  0.3772 -0.2037
30800W        W47274   1.594   4.428  12.016 -0.0005  0.1348 -0.1365
30801W        W47275   5.019   2.813  15.918 -0.0812  0.0419  0.1371
30802W        W47276   3.173   1.744  11.841 -0.1656  0.2799 -0.0888
30803W        W47277   9.656  11.384  11.935  0.1665 -0.5282 -0.1516
30804W        W47278   9.510   9.239  15.251 -0.1070  0.1976 -0.2331
30805W        W47279  15.922   7.836   1.308 -0.0437  0.1788 -0.2952
30806W        W47280  14.236  17.534   0.673  0.1325 -0.0095  0.0295
30807W        W47281  15.434   0.552   2.424  0.0526 -0.1533 -0.0015
30808W        W47282   3.169   5.104  14.019  0.0892 -0.0003 -0.3358
30809W        W47283   9.145   5.201  16.297  0.1629  0.2251 -0.1297
30810W        W47284  18.375   9.765   0.652 -0.0864 -0.0112  0.1004
30811W        W47285   8.744  11.421   5.469  0.1599 -0.0571 -0.2603
30812W        W47286  13.752   4.982  12.541  0.0025  0.0528  0.3092
30813W        W47287   5.127   0.421   2.716 -0.1958 -0.0902 -0.1365
30814W        W47288  11.978   1.508  14.229 -0.0295  0.2042  0.0047
30815W        W47289  17.066  16.806  13.000  0.2363 -0.2598 -0.1578
30816W        W47290  10.142  10.826   4.136 -0.1206  0.2612 -0.1175
30817W        W47291  10.706  10.031  11.536  0.2591 -0.0848  0.1556
30818W        W47292  14.109  16.728   3.802  0.1008 -0.1698  0.2351
30819W        W47293  14.070  16.331   4.665  0.0523 -0.1873 -0.0301
30820W        W47294   7.140   4.106  11.677 -0.0636  0.2799 -0.1603
30821W        W47295  12.581   0.851  13.931  0.1158  0.2397 -0.1173
30822W        W47296   0.860   6.691  15.614  0.2241 -0.2008  0.1958
30823W        W47297  17.595   4.329  11.803 -0.0394  0.2795  0.1641
30824W        W47298  18.288  15.220  15.910 -0.1278 -0.0377 -0.1442
30825W        W47299   9.620  13.372  11.909  0.3499 -0.0763  0.2792
30826W        W47300   5.489   7.678  14.143  0.0498  0.1213  0.1659
30827W        W47301  10.590   3.879  12.946 -0.2041 -0.1805 -0.0094
30828W        W47302  13.923  16.564   2.266 -0.1757  0.1050 -0.2489
30829W        W47303  13.433   6.541  15.688  0.2200  0.0020 -0.0521
30830W        W47304   8.739   3.821  15.496  0.0015  0.2988 -0.3642
30831W        W47305   7.398   2.151  12.924  0.0685  0.1273  0.4410
30832W        W47306   0.650   3.184  13.063 -0.0932 -0.3768 -0.1952
30833W        W47307   1.034   6.680   3.645  0.0540 -0.2142  0.0777
30834W        W47308  11.060   6.838   0.452 -0.1184 -0.0046 -0.0483
30835W        W47309   4.413  16.718   5.163  0.2083  0.0378  0.1441
30836W        W47310   2.122   0.666  14.458  0.2061 -0.2091 -0.3424
30837W        W47311  10.807  10.380   4.066  0.2160 -0.0062 -0.0137
30838W        W47312   8.427   9.976  13.245 -0.1913 -0.1876  0.1397
30839W        W47313  10.849   0.067   2.746  0.0172 -0.0597 -0.1773
30840W        W47314   2.340  15.708   4.319  0.0637 -0.0234 -0.1357
30841W        W47315   6.487  15.798  15.461 -0.0671  0.2867 -0.1973
30842W        W47316   8.601   0.524   5.804 -0.3298  0.2506 -0.2584
30843W        W47317   3.400  10.791  12.365  0.1285 -0.0133  0.3220
30844W        W47318  13.036  11.328  13.920  0.0387  0.1808 -0.1029
30845W        W47319  17.736  11.325   0.708 -0.2089 -0.1069  0.0238
30846W        W47320   8.027  14.060  13.964 -0.2557  0.1660 -0.1030
30847W        W47321  16.960   3.176   5.427 -0.1375  0.2006  0.0652
30848W        W47322   4.684  13.540   4.546 -0.4161  0.0987 -0.2126
30849W        W47323   4.392  17.954  11.967  0.0061  0.1616 -0.3235
30850W        W47324  14.813   8.651  15.034 -0.1485  0.0585 -0.4102
30851W        W47325  10.610   6.936   0.180 -0.0719 -0.2126 -0.0546
30852W        W47326   7.137  12.270   4.293  0.0003 -0.2555 -0.1771
30853W        W47327  13.142   6.486  12.319 -0.1165 -0.0169 -0.2901
30854W        W47328   5.338  17.016  13.476  0.0075  0.1396  0.2504
30855W        W47329  17.156   0.561   3.807  0.1933  0.2269  0.2976
30856W        W47330   4.545  15.196   3.109 -0.0371  0.0215  0.1956
30857W        W47331  13.410  13.764  11.719  0.0828 -0.2641 -0.0196
30858W        W47332  13.675  16.113   1.490  0.2200 -0.2025 -0.1461
30859W        W47333   4.568   9.668   0.297  0.1459 -0.2499  0.1703
30860W        W47334  11.823   0.953   0.917  0.2592 -0.2035 -0.0508
30861W        W47335   1.455  15.602   0.605  0.4426 -0.1341  0.0828
30862W        W47336   7.735  12.352   1.731 -0.2720  0.0297  0.1339
30863W        W47337   2.493  16.648  13.917 -0.1330 -0.0042  0.0341
30864W        W47338   5.478  17.018   2.766 -0.0565  0.1031 -0.2413
30865W        W47339  14.092   2.315  12.826  0.1623  0.0442  0.1951
30866W        W47340  14.098   3.212  11.751 -0.1547  0.5358 -0.3993
30867W        W47341   3.020   5.916   1.019 -0.0806 -0.0932  0.1560
30868W        W47342   1.900  13.006   4.188 -0.0387 -0.0951  0.0065
30869W        W47343   5.055   3.291   3.930 -0.1230 -0.0296 -0.3057
30870W        W47344  11.754  17.949   0.125 -0.0887  0.0882  0.2466
30871W        W47345  14.249   7.507   1.823  0.2058  0.0502  0.0655
30872W        W47346   6.413  17.619  14.626 -0.4081 -0.2998 -0.0896
30873W        W47347  16.608  16.147  12.776 -0.1882 -0.2040  0.3327
30874W        W47348  12.105   5.979   0.786 -0.0839 -0.1535 -0.1320
30875W        W47349   7.334   8.932   0.074  0.0490 -0.3689 -0.0076
30876W        W47350   7.188  11.762  11.894  0.1436 -0.1891  0.0584
30877W        W47351   9.998   5.163   5.681 -0.1019  0.0920  0.0012
30878W        W47352   5.324   7.263  15.724  0.2007  0.0954  0.1821
30879W        W47353  16.454  10.856  14.992  0.0544 -0.0175  0.1081
30880W        W47354  10.444   3.806  14.846 -0.0196  0.0937 -0.0534
30881W        W47355   3.785   2.095   5.478  0.2859 -0.2191 -0.2938
30882W        W47356  10.632  10.021  14.771 -0.0801 -0.1715 -0.2159
30883W        W47357   3.529  13.789   3.057  0.1436  0.0615  0.0532
30884W        W47358  17.098   2.691   2.412  0.0382 -0.3226  0.0060
30885W        W47359  11.307  13.575  12.747 -0.0126 -0.0206  0.2875
30886W        W47360   6.906   9.758   3.335 -0.0805 -0.3451  0.2413
30887W        W47361   2.382  16.787  13.405  0.2654  0.0207  0.2190
30888W        W47362  17.583   2.374   3.261  0.3412  0.0832  0.0044
30889W        W47363  11.411  14.342  13.095  0.2171  0.2178 -0.0862
30890W        W47364  18.374   4.026  13.908 -0.1529  0.2794 -0.1351
30891W        W47365  11.134   7.752   0.823 -0.0271 -0.0578 -0.0524
30892W        W47366   2.372   8.369  15.811  0.0734 -0.1140  0.1301
30893W        W47367   7.141   7.708  13.867  0.2755 -0.1437 -0.1977
30894W        W47368  17.950   9.817  11.451 -0.0294  0.0995  0.1934
30895W        W47369   8.034   3.628   2.176  0.0308  0.0251 -0.1568
30896W        W47370   1.603  17.369   3.220  0.3108  0.4268 -0.0668
30897W        W47371  16.153   4.813   0.451  0.0130  0.2528  0.0347
30898W        W47372   3.401  16.786   6.296  0.0667  0.0918  0.0787
30899W        W47373   2.689   6.635   2.336  0.0363  0.1076 -0.0010
30900W        W47374   4.065   9.287   1.049 -0.2443 -0.3657 -0.0003
30901W        W47375  13.589   2.403   3.728 -0.2711 -0.0119  0.1274
30902W        W47376   7.387  11.117   2.616 -0.4037  0.0743 -0.2378
30903W        W47377   8.090  17.148   5.883  0.2074  0.1054 -0.1828
30904W        W47378   8.058   6.293  12.695  0.0931 -0.1856  0.0016
30905W        W47379  14.007   6.129  11.840 -0.2307  0.4916 -0.1025
30906W        W47380  11.172  14.151   2.342 -0.0222  0.1681 -0.0988
30907W        W47381  15.956  16.805  12.389 -0.1500  0.1019  0.2610
30908W        W47382   0.838   1.275   4.094 -0.4432  0.1792  0.3371
30909W        W47383   9.167   2.477  13.167 -0.3474  0.3927  0.0078
30910W        W47384  17.778   4.453  12.255 -0.0188 -0.1961  0.0173
30911W        W47385   8.855   0.826  15.441 -0.1021 -0.2216 -0.1265
30912W        W47386  15.659  12.374   4.857 -0.0120 -0.1647  0.0666
30913W        W47387   2.446   5.032   5.353 -0.0039 -0.1574  0.0800
30914W        W47388  16.516   8.214   4.560  0.2244 -0.1571 -0.3344
30915W        W47389   4.668   5.719   3.699 -0.0734  0.1674  0.0604
30916W        W47390   4.994   4.560  14.847 -0.0009 -0.4990  0.0046
30917W        W47391  14.356  11.803  14.615  0.0166 -0.0163  0.1382
30918W        W47392   6.750   5.582   4.263 -0.1388  0.0348 -0.1639
30919W        W47393   7.576   5.122   4.347 -0.0046  0.2278  0.4038
30920W        W47394   3.205   9.973   5.143 -0.1844 -0.1978  0.0777
30921W        W47395   6.926  13.385   2.222  0.4511  0.0641  0.0068
30922W        W47396  14.478   9.305   1.574 -0.1703  0.1593 -0.3715
30923W        W47397   1.148   5.609  13.928  0.0408  0.0058 -0.0618
30924W        W47398  14.972  17.004  14.507  0.0108 -0.3189  0.0901
30925W        W47399   4.141   4.777   4.814 -0.0035 -0.0393  0.1371
30926W        W47400   0.377   8.168   4.380 -0.1204  0.3665 -0.0549
30927W        W47401   9.868   2.214   2.809  0.0298 -0.0060  0.3982
30928W        W47402  14.966  11.631   5.053 -0.1824  0.0448  0.1258
30929W        W47403  14.831  11.567   5.508  0.0818  0.0124  0.1282
30930W        W47404   2.221  10.121   1.163  0.0771  0.0665 -0.1027
30931W        W47405  16.571   9.558  15.284  0.2874 -0.1560  0.0429
30932W        W47406  13.915  17.605   4.074 -0.4481 -0.0591 -0.1556
30933W        W47407   4.778   7.774   2.749 -0.2462  0.3917  0.0206
30934W        W47408   7.160   0.660  12.870  0.0284  0.1395 -0.0508
30935W        W47409   5.134  10.113  15.175  0.1087 -0.3677 -0.4063
30936W        W47410  17.295   0.258   5.929 -0.2215 -0.0876  0.1889
30937W        W47411  11.983   6.330  14.356  0.2273  0.1948 -0.0167
30938W        W47412   2.238   6.069  15.397  0.0729  0.0773 -0.3042
30939W        W47413   7.105   9.556  11.360  0.0397 -0.1114  0.0629
30940W        W47414   8.395  15.542   2.155  0.2238 -0.0568  0.0313
30941W        W47415   9.092  11.045  13.391  0.1341 -0.4090 -0.0157
30942W        W47416   2.546   6.685   4.726  0.2111  0.2928 -0.2025
30943W        W47417  11.448   0.072   4.835 -0.0627  0.1572  0.0189
30944W        W47418   2.469  14.684   0.957  0.1458 -0.0286  0.3694
30945W        W47419  11.797  14.357   3.641 -0.3485 -0.3370  0.0010
30946W        W47420  17.820  14.957  14.711  0.0751  0.2328 -0.1933
30947W        W47421  16.167  18.337   3.911  0.0325 -0.1859  0.1623
30948W        W47422   7.709   7.494  14.304  0.1046 -0.1717 -0.1577
30949W        W47423  15.314  11.747  11.839  0.2064 -0.1957 -0.0501
30950W        W47424  11.249   1.687  14.112 -0.2212  0.6278  0.1914
30951W        W47425  13.980  12.306  15.204  0.1641  0.0484 -0.0778
30952W        W47426   8.158   0.023   0.158  0.2163 -0.2343 -0.0994
30953W        W47427  15.355   9.486   4.000  0.3257  0.0954  0.1499
30954W        W47428  13.053  14.447   4.280 -0.3046 -0.1603 -0.1298
30955W        W47429  11.458   0.658   3.433  0.1255  0.2050 -0.0106
30956W        W47430  14.539  17.565   3.566  0.0640 -0.2175 -0.3659
30957W        W47431   9.987   6.139   3.043 -0.3585  0.1726 -0.2138
30958W        W47432   2.278   8.577   2.723 -0.2044  0.1708  0.1789
30959W        W47433  12.847   7.527  12.329 -0.0133  0.0721 -0.1099
30960W        W47434  16.114   5.835  15.098  0.1276  0.2503  0.1020
30961W        W47435   1.157   3.511  11.644  0.1449 -0.2239  0.1845
30962W        W47436  11.391   5.767   4.700  0.0313  0.0581  0.0021
30963W        W47437  17.811  16.007   4.903  0.2032  0.2832 -0.2051
30964W        W47438   5.699  17.331   6.311  0.1819  0.2983 -0.2089
30965W        W47439   7.349   8.568  15.090  0.0992  0.1189 -0.1043
30966W        W47440  13.375  12.926   2.045 -0.1307 -0.1456  0.1228
30967W        W47441   1.206   9.381   0.090  0.3682  0.1572  0.1446
30968W        W47442  14.666   8.158  12.883  0.1623 -0.2054  0.0679
30969W        W47443   0.433  15.559   5.552  0.0452  0.0839  0.2199
30970W        W47444  17.734   3.628  13.394 -0.1175 -0.0720  0.4130
30971W        W47445  15.262  17.710  15.057  0.0480  0.0391  0.0646
30972W        W47446   3.850  14.479  13.400 -0.2119 -0.2017  0.1878
30973W        W47447  17.384   1.148  15.512  0.0852  0.0150 -0.1695
30974W        W47448   6.719  13.662  13.242  0.0685 -0.1105  0.1670
30975W        W47449  15.789   5.692  14.619 -0.0542  0.1384 -0.0105
30976W        W47450   8.332  14.191   4.452  0.1042 -0.0064 -0.4102
30977W        W47451  16.428   7.310   5.569  0.0171 -0.1412 -0.0425
30978W        W47452   9.477   7.227  13.273 -0.1452  0.0143 -0.2196
30979W        W47453   8.064   2.093   4.369  0.1113  0.1420  0.0506
30980W        W47454   0.927  14.886  11.968  0.0596  0.1172 -0.1657
30981W        W47455  13.496  17.873  14.734 -0.0461 -0.1388 -0.0275
30982W        W47456   6.119  16.736  12.877 -0.1369  0.1269  0.3264
30983W        W47457  15.367   5.315  14.638  0.1782 -0.0880 -0.0384
30984W        W47458  11.434  12.327   1.356  0.0457 -0.0281  0.1923
30985W        W47459  16.172  11.928  13.755 -0.0824  0.0396  0.0753
30986W        W47460   6.018   3.491  14.605  0.1157 -0.0545 -0.0508
30987W        W47461   9.621   4.488  16.021 -0.2309  0.1995 -0.2903
30988W        W47462  10.804   1.324   0.855 -0.1129 -0.0434  0.2290
30989W        W47463   9.398  10.279   0.017  0.1367  0.2125 -0.2267
30990W        W47464   8.285   3.995   2.966 -0.0701 -0.2613 -0.0473
30991W        W47465   0.052   9.227   3.341  0.0096 -0.3237 -0.0788
30992W        W47466   1.633  11.700  15.185 -0.3966  0.0395 -0.2737
30993W        W47467  17.145   1.785  14.833 -0.2867 -0.0076  0.1090
30994W        W47468  13.763   7.213   0.346  0.0285  0.0306  0.0625
30995W        W47469   3.252  12.875  13.176 -0.0708 -0.3615 -0.0102
30996W        W47470   2.233   9.501  14.783  0.1796 -0.0228 -0.3857
30997W        W47471  15.761  13.355   0.715  0.1712 -0.0484  0.0048
30998W        W47472   0.223   2.633  13.937  0.0657  0.3475  0.0194
30999W        W47473   2.850   9.326  14.202 -0.0572 -0.0828 -0.1223
31000W        W47474  17.021  14.132   4.155 -0.1576  0.0295 -0.1504
31001W        W47475   1.315   2.695   4.255 -0.2079 -0.2746 -0.2368
31002W        W47476  18.376   6.062  13.485 -0.0184 -0.1297 -0.2790
31003W        W47477   5.591  14.756   5.796 -0.1001  0.0342  0.0592
31004W        W47478   3.158   2.644   1.794  0.0103  0.1197  0.0288
31005W        W47479   8.699  11.784  15.561  0.2389  0.0689 -0.1554
31006W        W47480  13.442  11.474  12.162 -0.2998 -0.0199  0.3102
31007W        W47481   3.328  14.964  14.045 -0.3492 -0.0654 -0.2018
31008W        W47482   1.278   6.058   4.833  0.1795  0.0559 -0.4122
31009W        W47483   0.876  16.924   3.553 -0.1324  0.1506 -0.0542
31010W        W47484   0.043  15.184  12.006  0.0693 -0.1085  0.1341
31011W        W47485  10.686   6.410   3.980  0.1179 -0.3392 -0.2170
31012W        W47486   1.437   6.899   5.418 -0.0146  0.1192  0.0720
31013W        W47487  11.811   2.595  11.385  0.1288  0.3033  0.1378
31014W        W47488  11.131   4.054  10.545  0.1462  0.0485  0.1612
31015W        W47489   6.470  16.691  12.481  0.2072 -0.5025  0.2100
31016W        W47490  14.295   8.148   2.752  0.1611  0.1505 -0.4133
31017W        W47491   4.366  11.146   2.562 -0.0161 -0.0177  0.1781
31018W        W47492  13.233   8.482   5.525  0.0002 -0.1049  0.1617
31019W        W47493   2.564  15.873  11.957  0.1136  0.1163 -0.1422
31020W        W47494   5.395  17.656  12.362  0.3322 -0.1291  0.3369
31021W        W47495  15.031   9.692  14.385  0.0760  0.1408 -0.3669
31022W        W47496   6.586  17.819  15.312 -0.1593 -0.0526  0.1023
31023W        W47497  10.674   5.958   3.719  0.1272 -0.0803 -0.0104
31024W        W47498   1.082  16.721  15.197 -0.0423 -0.1742 -0.1147
31025W        W47499  15.536   2.864   3.460 -0.0580 -0.0380  0.0869
31026W        W47500   1.819  12.505   2.648 -0.1839 -0.0852  0.1273
31027W        W47501   5.062  13.441  13.768 -0.0061 -0.4161 -0.0268
31028W        W47502   0.261  11.484  11.735  0.0873  0.0398 -0.3027
31029W        W47503   4.115  12.219  13.107  0.1602  0.1498 -0.2274
31030W        W47504  13.726   6.065  10.962 -0.1634  0.2343  0.0302
31031W        W47505  14.113  12.617   3.756 -0.0840  0.1226 -0.1573
31032W        W47506   2.475  11.365   4.894 -0.1285 -0.1938  0.2704
31033W        W47507  17.708  10.562  15.314  0.1103 -0.4269 -0.0349
31034W        W47508   2.843   3.666  11.725 -0.0922 -0.0841 -0.0705
31035W        W47509  14.346  16.612  11.928 -0.0515  0.0951 -0.0116
31036W        W47510   1.252   2.166   0.270  0.0469  0.2779 -0.2557
31037W        W47511   8.341  16.623  15.693 -0.0069 -0.0719 -0.2777
31038W        W47512   2.373  12.885   0.930  0.0722 -0.2651  0.0850
31039W        W47513   4.175   5.447   0.588  0.0169  0.2477 -0.1457
31040W        W47514  14.758   1.459  14.514 -0.2426 -0.3051 -0.1965
31041W        W47515  10.642  16.253  13.557 -0.0926  0.3649 -0.3385
31042W        W47516   0.071   2.642   3.545  0.2820  0.2708  0.2364
31043W        W47517  13.636   5.461   3.712 -0.2051  0.1891  0.2489
31044W        W47518  14.498   2.014  12.885  0.3314  0.0873 -0.2187
31045W        W47519   3.857  13.565   2.785  0.0348  0.1282 -0.1814
31046W        W47520   7.890  13.009   0.830 -0.0460  0.0783  0.4396
31047W        W47521   0.194  13.440   4.079 -0.1957  0.0684 -0.2311
31048W        W47522  16.130  11.739   0.202 -0.1398  0.2042 -0.0481
31049W        W47523  15.843  13.758  13.928  0.2186 -0.1627  0.2148
31050W        W47524   9.924  13.184   0.910  0.1429 -0.0929 -0.2044
31051W        W47525   7.813  12.693   0.318 -0.1409 -0.4161 -0.2003
31052W        W47526   0.459   9.669   1.673  0.3605  0.0680  0.0394
31053W        W47527   4.393   8.495  13.467  0.1171 -0.1323 -0.2690
31054W        W47528   1.687   2.321  12.286 -0.1832  0.1750 -0.0410
31055W        W47529  12.691   4.048  13.885 -0.0459  0.2165  0.2463
31056W        W47530   7.144   6.886   3.894 -0.2627  0.0803  0.1094
31057W        W47531   2.645  10.205   2.544 -0.3362  0.1166  0.2044
31058W        W47532   3.390  15.834  13.951  0.0859 -0.0575 -0.2338
31059W        W47533  18.250  10.972   4.191 -0.1420 -0.0810  0.1371
31060W        W47534   8.078   8.644  12.601 -0.1231  0.2971  0.2272
31061W        W47535  14.225   9.937   0.893 -0.2646  0.0697  0.2558
31062W        W47536  12.115   2.188  16.216 -0.1048  0.1511 -0.1472
31063W        W47537  16.665  15.030   0.531  0.2828 -0.0539 -0.1342
31064W        W47538   9.731   3.794   2.917  0.1734 -0.1111  0.0232
31065W        W47539   6.756  17.977  14.803  0.2655 -0.0586 -0.1460
31066W        W47540  15.763   1.507   0.856 -0.1778  0.0196  0.1260
31067W        W47541   5.161   3.698   1.725 -0.0959  0.1117 -0.1261
31068W        W47542   1.313   6.271  16.243  0.0295  0.2759  0.4047
31069W        W47543   1.420   0.104   5.384  0.0293 -0.0657  0.2374
31070W        W47544  14.346  17.922  13.620  0.0470 -0.2718  0.1168
31071W        W47545   9.354   5.981  11.023 -0.2773 -0.1002 -0.2252
31072W        W47546  17.450   8.859  13.465 -0.0261  0.0101 -0.1970
31073W        W47547  11.081  17.762   0.512  0.2035  0.2674  0.1711
31074W        W47548  17.248   5.528   3.678  0.0148  0.1355  0.1022
31075W        W47549  14.792   0.410  15.368 -0.0116 -0.2101  0.0935
31076W        W47550   3.320   8.330  14.105 -0.0888 -0.1476  0.0971
31077W        W47551  10.501   2.850   2.615  0.0677  0.2221  0.2616
31078W        W47552   5.025   5.347   1.831 -0.2026 -0.2463 -0.0807
31079W        W47553   7.149  14.314   1.220 -0.1098  0.0966  0.0606
31080W        W47554   7.855  14.272   0.283 -0.0110  0.0243 -0.1396
31081W        W47555   1.789   0.636  13.569  0.0224 -0.0227 -0.4064
31082W        W47556  12.334  10.476  12.867 -0.1650  0.1209 -0.1815
31083W        W47557  10.750   4.066   0.748  0.0547  0.0255  0.2852
31084W        W47558  13.323  16.302   1.960 -0.1154  0.0934 -0.2049
31085W        W47559   4.084  16.184  12.243  0.2085 -0.1830 -0.1515
31086W        W47560  17.466  17.502  16.224 -0.0355  0.0700 -0.0914
31087W        W47561  15.571  10.156   1.633 -0.3849 -0.1260  0.0524
31088W        W47562   4.545  16.248   1.300  0.0849 -0.0541 -0.3111
31089W        W47563  15.057  14.972  14.560  0.0251 -0.2232  0.1364
31090W        W47564   5.327   9.712  15.367 -0.0982 -0.2193  0.3401
31091W        W47565   1.579   0.761  13.112 -0.3564  0.0020 -0.4856
31092W        W47566   7.519  14.994   5.843  0.0056  0.1936 -0.0192
31093W        W47567   5.549   2.489  11.944 -0.2457  0.4216  0.0343
31094W        W47568   0.961  10.312  11.532 -0.0232  0.0961  0.0799
31095W        W47569   9.685   3.790   1.632  0.2753  0.1117  0.2197
31096W        W47570  16.475   5.023  15.759 -0.0214  0.2277 -0.2588
31097W        W47571  14.755  11.925  11.815  0.2766 -0.0529 -0.0690
31098W        W47572   7.673   9.621  14.646 -0.0172 -0.1646  0.0294
31099W        W47573  13.916   7.773   5.012 -0.2556 -0.0016  0.1922
31100W        W47574  12.779  17.577  15.696  0.0459  0.4224  0.1967
31101W        W47575   5.086  11.972  14.139 -0.2478  0.0792  0.3171
31102W        W47576   6.867  10.710  14.176 -0.0878  0.3204  0.1142
31103W        W47577   3.494  15.821   0.908 -0.1381  0.0422  0.3378
31104W        W47578   5.741   8.961  10.054  0.0550 -0.1621 -0.1048
31105W        W47579   3.184  16.524   5.749 -0.0115  0.1995 -0.0600
31106W        W47580   0.706  11.655  10.921 -0.2567  0.6145 -0.2172
31107W        W47581   2.360   4.624  11.477 -0.0360 -0.0889  0.1968
31108W        W47582   4.103   0.611   6.210  0.0350 -0.1288  0.0732
31109W        W47583   8.859  18.279  13.402  0.1791 -0.3696 -0.0728
31110W        W47584   1.233   5.670   2.339  0.2346  0.2308  0.0269
31111W        W47585   8.642  14.001   1.068 -0.2994  0.0241  0.1968
31112W        W47586  10.549   3.230  15.451 -0.0890 -0.0741  0.0935
31113W        W47587  17.514  15.803  12.364  0.0854 -0.0049  0.6277
31114W        W47588   9.661  11.330   3.248  0.3641  0.1213 -0.0820
31115W        W47589  12.812   4.378   0.331  0.1388 -0.2922  0.3541
31116W        W47590   9.114  10.871   4.552 -0.1593 -0.0802  0.0095
31117W        W47591  12.202  11.757   1.625 -0.2557 -0.1090  0.3047
31118W        W47592   4.624  14.418   1.681  0.0540 -0.1781 -0.0549
31119W        W47593   4.476   3.708   5.129  0.2830 -0.1002  0.0398
31120W        W47594   9.154   4.765  16.055 -0.1065  0.0997 -0.0449
31121W        W47595  17.125  13.956   4.722 -0.2845 -0.1028 -0.0705
31122W        W47596   3.826  11.601  14.288 -0.1209  0.0312  0.1199
31123W        W47597   8.644  17.972   4.916 -0.2197 -0.0930  0.2425
31124W        W47598  13.719   9.694  11.324  0.0395 -0.1296 -0.2933
31125W        W47599  13.936  12.116   0.331  0.0494  0.0059 -0.2999
31126W        W47600  14.052   4.629  14.888  0.2117 -0.2335 -0.1404
31127W        W47601   8.287   2.973  14.256  0.1293  0.0731  0.2161
31128W        W47602  10.139   8.568  12.874  0.0469 -0.0194 -0.0211
31129W        W47603  14.787   4.820   2.359  0.3307 -0.0248 -0.0567
31130W        W47604  17.625   7.111   5.161  0.0307  0.4222  0.0303
31131W        W47605   7.277   9.759  16.252  0.3732 -0.1047 -0.0142
31132W        W47606   6.923  10.621  13.321 -0.0874  0.1662 -0.2545
31133W        W47607  13.548  13.875   3.605  0.1361  0.3264 -0.0426
31134W        W47608   9.850  11.960   0.406  0.4238  0.1452  0.1876
31135W        W47609   6.981  13.619  16.307 -0.3039  0.0506 -0.0047
31136W        W47610  15.172  15.963  14.648  0.1890 -0.5412  0.2299
31137W        W47611   1.881  13.007   5.558 -0.0281  0.1793  0.0697
31138W        W47612   7.109   5.435   0.614  0.1421  0.2375  0.1487
31139W        W47613  17.279  16.623  11.688  0.2094 -0.2732 -0.1120
31140W        W47614   4.709  16.236  12.604  0.2834  0.2672  0.1367
31141W        W47615  12.170  12.396  16.239 -0.2982  0.1339  0.0362
31142W        W47616  13.743   0.256   5.051  0.0279 -0.0671  0.1394
31143W        W47617   4.752  10.551  11.455  0.1527  0.0484  0.1491
31144W        W47618   1.736   3.528  13.768  0.0887  0.2907 -0.0466
31145W        W47619   9.187   4.450   3.916  0.1621  0.3422 -0.2564
31146W        W47620  14.987   5.398  10.798 -0.2495  0.0847  0.1695
31147W        W47621  17.199   2.818   1.009  0.0326 -0.1707 -0.1199
31148W        W47622  10.135   7.179   4.241 -0.1540  0.2044  0.2125
31149W        W47623  16.486  12.354  13.593 -0.1612 -0.2285  0.0560
31150W        W47624   1.965  10.691   2.963 -0.1185 -0.0147  0.2457
31151W        W47625   3.918  13.733  14.716 -0.0783  0.0721  0.0856
31152W        W47626  15.840   0.080   1.803 -0.0442  0.0313  0.0525
31153W        W47627   6.496  12.885   5.910 -0.1093  0.2736 -0.3731
31154W        W47628   4.974   6.950  15.096  0.3396  0.2070  0.1110
31155W        W47629   4.123  12.768  13.508  0.0054  0.0161 -0.0866
31156W        W47630   3.088   5.087  15.193  0.2551 -0.1569  0.0776
31157W        W47631   8.887  10.937   4.129  0.2942 -0.0161 -0.0629
31158W        W47632   2.014  14.278  11.792 -0.1648  0.3900  0.0820
31159W        W47633  10.494  17.894   1.280 -0.0052  0.1850 -0.0763
31160W        W47634  12.403  13.994  15.768  0.1842  0.2094  0.2158
31161W        W47635  10.638  11.185  15.655 -0.3102  0.0909  0.1587
31162W        W47636  11.994  10.267  11.737  0.2170 -0.0288  0.1200
31163W        W47637  14.272  16.051   4.270 -0.1407  0.2328  0.4219
31164W        W47638   3.915   9.999   2.305 -0.4503  0.0321  0.3051
31165W        W47639   8.557  14.692  14.378  0.0737 -0.0426 -0.3327
31166W        W47640   0.118   6.466  11.772  0.1101 -0.1488  0.1835
31167W        W47641  10.177  14.818  12.528 -0.1691  0.1274 -0.1303
31168W        W47642   0.379  11.163  15.395 -0.2326  0.1757 -0.1797
31169W        W47643  16.194  15.479   1.976 -0.0408 -0.0505 -0.4740
31170W        W47644  13.832   4.669   2.540 -0.5026  0.1341  0.0800
31171W        W47645  18.207  14.420   3.813  0.0102 -0.4451 -0.1158
31172W        W47646  11.931  13.522   2.029 -0.1616 -0.0805  0.0346
31173W        W47647   4.253  12.865  15.694  0.0166 -0.2181 -0.1801
31174W        W47648   1.455  10.645  16.078 -0.2106  0.0184  0.1840
31175W        W47649   3.620   5.689   0.721  0.3124  0.3109  0.0539
31176W        W47650  15.157  13.623   1.321 -0.0733  0.3889 -0.1153
31177W        W47651   5.544  17.062   1.015 -0.4199 -0.0350  0.3728
31178W        W47652  14.557  12.863   3.489 -0.1830 -0.0996 -0.3091
31179W        W47653   9.996  15.589   3.812  0.0706 -0.2139  0.0756
31180W        W47654  12.743   9.793   0.820 -0.1949  0.0022 -0.1138
31181W        W47655   9.386   0.446  11.470 -0.0838 -0.2127 -0.2106
31182W        W47656   4.096  17.121   5.157 -0.3289  0.2470 -0.3252
31183W        W47657  10.503   8.801  11.927  0.1894 -0.3002  0.0935
31184W        W47658  18.317  15.801  13.486 -0.1679 -0.3697  0.0406
31185W        W47659  16.116  11.488  11.231 -0.0907  0.0258 -0.0940
31186W        W47660   1.211   8.138  16.166 -0.0504 -0.0136  0.1851
31187W        W47661  13.908   3.358  12.273 -0.0712 -0.1913  0.3459
31188W        W47662   4.502   0.907   0.470  0.2350 -0.2648 -0.0729
31189W        W47663  16.921   8.897  14.799  0.1951  0.2974 -0.2999
31190W        W47664  15.897   0.827  11.738  0.3228 -0.1280  0.1111
31191W        W47665  17.911  11.100   1.195  0.1370 -0.0198  0.0629
31192W        W47666  17.191  14.432   3.731  0.2156 -0.1139  0.0775
31193W        W47667  13.240  12.441  12.122 -0.1701 -0.1687 -0.2183
31194W        W47668  16.636   6.188  12.996 -0.0667 -0.1409 -0.2072
31195W        W47669   2.036  18.104   0.374  0.0576 -0.1012  0.0046
31196W        W47670  14.862  14.827   5.818  0.2599  0.1879 -0.2146
31197W        W47671   6.721   1.277  13.100 -0.0280 -0.0173 -0.3291
31198W        W47672  18.279  11.517  16.072  0.3241 -0.0563  0.0351
31199W        W47673  15.852   4.822   4.442 -0.0004 -0.2869 -0.0356
31200W        W47674   8.848   5.492   3.056  0.0645  0.0973  0.4505
31201W        W47675   2.819  18.083  13.558 -0.2174 -0.2562  0.2282
31202W        W47676  17.205   3.748   3.376 -0.0577  0.1199 -0.2779
31203W        W47677   5.125   6.672  15.526 -0.2964 -0.3765 -0.3659
31204W        W47678   9.067   5.616  15.694 -0.4794  0.1843  0.1252
31205W        W47679   0.163  16.429  12.232  0.2588  0.3759  0.1500
31206W        W47680  16.233  12.687  12.321  0.1130 -0.2286  0.2184
31207W        W47681   2.156   9.449  12.503  0.3891 -0.1982 -0.2733
31208W        W47682  18.288   6.950   0.418  0.4152 -0.0568 -0.2672
31209W        W47683   7.731  12.206   1.238  0.1656 -0.1232 -0.0315
31210W        W47684  10.665  15.982   2.622  0.0134  0.1041  0.1718
31211W        W47685   2.228  14.171  14.105 -0.0498  0.1887 -0.0112
31212W        W47686  14.677   7.928   1.043  0.0129 -0.0216 -0.4405
31213W        W47687  10.231  13.619   4.697  0.0954 -0.2287  0.2531
31214W        W47688  15.626  18.158   6.212  0.2262 -0.1255  0.0690
31215W        W47689   6.604   3.043   0.280 -0.1386  0.0250 -0.0615
31216W        W47690   1.392   0.750   5.835  0.2004  0.0052 -0.2762
31217W        W47691  14.827  12.801   2.877  0.0454  0.1781 -0.1912
31218W        W47692  16.158   2.920   0.439 -0.0094  0.3133 -0.0708
31219W        W47693  12.930  10.181  12.154 -0.0467 -0.2584 -0.1708
31220W        W47694   7.006  15.420   3.001  0.0855 -0.0153 -0.3445
31221W        W47695   8.458   3.245   5.620  0.3458  0.1879  0.0847
31222W        W47696  11.669   4.247   2.560  0.3065 -0.2465 -0.2491
31223W        W47697  10.846   5.454   1.168  0.0517  0.0107  0.3699
31224W        W47698   0.643   1.096   5.539 -0.2585 -0.0986  0.1790
31225W        W47699  10.829   0.045  12.086  0.2765 -0.0692 -0.2650
31226W        W47700  15.887  11.594  16.084 -0.2133 -0.0654 -0.0895
31227W        W47701   4.582   0.529  13.819  0.5945 -0.1547 -0.1911
31228W        W47702   7.261  16.041  11.979 -0.0382 -0.6637  0.1362
31229W        W47703  10.209   6.683  16.188 -0.0323 -0.0022  0.0775
31230W        W47704  11.480  17.985   5.082  0.1452 -0.1029  0.0414
31231W        W47705  12.208  18.172   1.084  0.1056 -0.1467  0.1051
31232W        W47706   6.216  11.707  12.157 -0.0329  0.0300 -0.0057
31233W        W47707   8.345   4.956   2.382  0.0795 -0.3285 -0.0245
31234W        W47708   4.012   5.612   1.694 -0.1507 -0.3588  0.1352
31235W        W47709  17.535   5.510   3.110 -0.0888 -0.0266 -0.2656
31236W        W47710   4.722   4.774  11.737 -0.3499  0.0943  0.0730
31237W        W47711  10.670  17.807   4.620  0.0508 -0.1958  0.0829
31238W        W47712  17.733   5.749  11.665 -0.1130 -0.2085  0.0677
31239W        W47713  16.310   9.622   2.942  0.1332 -0.2804  0.1227
31240W        W47714   8.608   2.227  15.755 -0.3278  0.0454  0.1494
31241W        W47715   6.966  12.648  11.198 -0.0883  0.0335  0.5253
31242W        W47716  16.921  15.803   4.494  0.0761 -0.2273  0.0009
31243W        W47717   7.928   7.249   4.404  0.0024  0.1436 -0.1308
31244W        W47718   9.839   3.718  11.401  0.0193  0.1713  0.0181
31245W        W47719  14.587  10.958   1.580 -0.0000 -0.1357 -0.0381
31246W        W47720   4.405   6.648   4.953 -0.0423 -0.0227 -0.1764
31247W        W47721  10.394   5.036   3.715  0.2236  0.0092 -0.2938
31248W        W47722   2.465   0.634   5.788 -0.1448 -0.1095  0.0369
31249W        W47723  14.507  13.582   3.852  0.0116  0.0906 -0.0034
31250W        W47724  17.496   9.967  10.590  0.2315  0.3684  0.0137
31251W        W47725   9.892  16.448   4.087 -0.0633  0.1247  0.2137
31252W        W47726  16.973   7.777  15.722 -0.1364 -0.0782  0.0715
31253W        W47727  18.360  10.915  11.380  0.1043 -0.1854  0.0395
31254W        W47728  14.251  12.252  13.828 -0.1495 -0.3527  0.0927
31255W        W47729   1.692  16.098   2.927  0.0719  0.3123  0.0974
31256W        W47730  10.872   4.164  11.418  0.1598 -0.3598  0.2853
31257W        W47731  14.334   0.715  15.491 -0.0534 -0.0673 -0.0888
31258W        W47732  14.707  12.398  13.697  0.1329  0.0706 -0.0760
31259W        W47733  11.441  17.865  15.233 -0.2743 -0.0399  0.1832
31260W        W47734  16.792   2.583  12.724  0.0350  0.1195  0.0976
31261W        W47735   8.827  10.610  11.944  0.3177 -0.1634  0.2457
31262W        W47736   5.428   1.656  11.869  0.0490 -0.0001  0.3469
31263W        W47737   9.348   8.203  11.786 -0.0291  0.0055  0.2680
31264W        W47738  18.362   2.422  12.795 -0.0645 -0.0221  0.0562
31265W        W47739   0.118   5.003  11.115  0.0620 -0.0843 -0.2435
31266W        W47740   9.736  16.045   1.635  0.0648 -0.1269  0.0547
31267W        W47741   7.605  18.230   3.832 -0.0406 -0.2052  0.2161
31268W        W47742   4.953   9.213  12.563 -0.1383  0.0087  0.0168
31269W        W47743  10.718   9.460  11.765 -0.1064  0.0769 -0.0731
31270W        W47744  17.470   7.537   1.304  0.0889  0.3683 -0.1519
31271W        W47745   1.063  11.116   4.732  0.2479 -0.1551  0.0849
31272W        W47746  16.587   2.052  15.870 -0.0041 -0.0940  0.2491
31273W        W47747   1.681  12.308  15.343 -0.2631 -0.3764  0.0437
31274W        W47748   9.974   8.792  12.009  0.1222  0.1975 -0.1402
31275W        W47749   9.431   2.419   3.039 -0.0441 -0.0171  0.0850
31276W        W47750   4.874   9.318   0.303 -0.0473  0.3438 -0.0347
31277W        W47751  16.347   9.221   2.442  0.1318 -0.0211  0.2337
31278W        W47752  13.085   5.465  11.162  0.1044  0.0977 -0.1343
31279W        W47753   6.324   0.641   4.023  0.0097  0.0235 -0.0133
31280W        W47754   2.504   0.094   4.110  0.1721 -0.0434 -0.0900
31281W        W47755  10.556   7.918   4.572  0.1986 -0.1454 -0.1781
31282W        W47756  12.702   5.525   4.925 -0.1300  0.5135  0.2838
31283W        W47757  16.757  15.808   1.498  0.0008 -0.0139  0.0155
31284W        W47758  15.687   4.672   2.807  0.0480 -0.1617 -0.0034
31285W        W47759  13.437   5.694   0.246  0.0963 -0.3051 -0.1169
31286W        W47760   3.731  16.900  15.622  0.0004  0.0846 -0.1328
31287W        W47761  12.543  14.125   1.912  0.2820  0.1907  0.3511
31288W        W47762   9.800  15.653   0.165 -0.2150  0.0016 -0.2245
31289W        W47763  15.484  10.018   3.955  0.0183  0.1128  0.2297
31290W        W47764   4.476  16.216  13.067  0.3620 -0.1406  0.0079
31291W        W47765   0.428   0.354  11.848  0.1572  0.2047  0.1141
31292W        W47766  10.198  12.538   3.628  0.1327  0.1119 -0.1062
31293W        W47767  12.959  15.089  11.756  0.0066  0.1416  0.1949
31294W        W47768   0.798  17.020  15.574 -0.2700 -0.2039 -0.0687
31295W        W47769  15.863   2.453   4.741  0.1570 -0.6309  0.3585
31296W        W47770  17.036   5.798   1.863  0.0539  0.0502  0.0537
31297W        W47771  11.667  15.090   4.764  0.3416  0.0435  0.0867
31298W        W47772  11.111  15.820   2.111 -0.0012  0.0466  0.1609
31299W        W47773  15.225  18.218  11.395  0.3353  0.3464  0.0204
31300W        W47774   4.025  16.908  12.540 -0.0845 -0.0609  0.1285
31301W        W47775   7.788  16.811   1.167 -0.0129  0.1818  0.0755
31302W        W47776   7.449   8.160   0.521 -0.0387 -0.2217 -0.0873
31303W        W47777   9.980   8.793   2.708 -0.2354  0.0834 -0.2307
31304W        W47778  15.325   0.514  13.549  0.0418  0.1282  0.1047
31305W        W47779  17.507   2.399   1.435 -0.0976 -0.0637 -0.1117
31306W        W47780  11.735   5.027  15.882 -0.2143 -0.0813 -0.0863
31307W        W47781   9.649  16.807  15.896 -0.3052 -0.0121 -0.2165
31308W        W47782   1.270  11.521  13.398 -0.0783  0.1051  0.2715
31309W        W47783   6.861   7.567  14.298 -0.2083 -0.2942  0.1638
31310W        W47784   1.825   8.206  12.778 -0.4153 -0.0640 -0.0225
31311W        W47785   1.892  10.702  13.934 -0.1839  0.0345 -0.2027
31312W        W47786  14.733  10.910  13.540 -0.0216  0.0838 -0.2274
31313W        W47787   6.682  14.979  15.014 -0.1297 -0.1193 -0.3997
31314W        W47788   2.878  16.614   0.593 -0.3281 -0.0546  0.0109
31315W        W47789   9.517  17.453   5.482 -0.0143 -0.0778  0.1517
31316W        W47790   4.450  13.234  11.644  0.2540 -0.0645 -0.1681
31317W        W47791   2.011  17.883  13.068  0.0645  0.0380 -0.0580
31318W        W47792   3.220   0.111  14.946 -0.0286  0.0439 -0.3010
31319W        W47793   6.884  18.287  12.516 -0.1220 -0.0829 -0.2592
31320W        W47794   5.340  12.990  16.295  0.0422  0.1817  0.0265
31321W        W47795  12.461   1.018   4.087 -0.0577 -0.0209 -0.0446
31322W        W47796   3.589   6.345  12.171 -0.1385 -0.0934  0.1060
31323W        W47797  13.443   5.018   0.284 -0.1208 -0.2357  0.0540
31324W        W47798   3.487  17.016   5.388 -0.0777 -0.0519 -0.2766
31325W        W47799   6.694  11.714  11.741 -0.1016  0.1742 -0.1046
31326W        W47800   0.083  13.064   2.782  0.1816 -0.0683 -0.1072
31327W        W47801   1.592   9.111  16.235 -0.0117 -0.0384  0.0292
31328W        W47802   0.420  11.513  12.991  0.0390 -0.0772  0.0918
31329W        W47803   6.222   5.478  15.840  0.3683  0.2896  0.0294
31330W        W47804   1.164   0.033  13.233  0.2050 -0.1291  0.0276
31331W        W47805  14.773   2.568  14.790  0.0143 -0.1085 -0.0113
31332W        W47806  17.149   2.308  11.752  0.2902  0.1926  0.2374
31333W        W47807   5.584   0.972   5.526  0.1860  0.2484 -0.2226
31334W        W47808  14.671  15.524  15.526  0.0483  0.2909 -0.1236
31335W        W47809   3.233  17.645  13.638  0.2205 -0.0399  0.0915
31336W        W47810  10.271   5.089  15.847  0.0856  0.0801 -0.1080
31337W        W47811   5.233   1.894   0.058 -0.0137  0.1376 -0.0760
31338W        W47812  13.224   6.325  13.814  0.3254 -0.1563  0.1133
31339W        W47813   1.412   2.018   3.035  0.0869 -0.0849  0.0976
31340W        W47814   8.831  11.510  12.676 -0.1375 -0.0427 -0.1063
31341W        W47815   5.905   5.535   1.791 -0.0643 -0.0093 -0.1902
31342W        W47816  14.880  18.285   1.979 -0.2333  0.0256 -0.1554
31343W        W47817   3.051  13.283  16.275 -0.0171  0.1468 -0.1541
31344W        W47818   1.658  18.053   5.167 -0.0887  0.3904  0.2035
31345W        W47819   2.030  14.378  12.843 -0.2887 -0.0470  0.0159
31346W        W47820   7.620  12.506  11.601 -0.2757 -0.0582  0.2469
31347W        W47821   6.242  16.287   3.700 -0.1843 -0.0949  0.2424
31348W        W47822  17.698   0.738   1.433  0.2333 -0.0489  0.1401
31349W        W47823  13.965   9.110  12.214  0.0526 -0.1830 -0.0251
31350W        W47824   6.340  15.365   0.156 -0.1149 -0.3166 -0.1231
31351W        W47825   1.203  14.456   5.921  0.0032 -0.0399  0.1038
31352W        W47826   9.955   0.312  11.960  0.1256 -0.1585 -0.0085
31353W        W47827   3.595  11.086  11.921 -0.3634  0.2058  0.0380
31354W        W47828   4.298   1.493   0.990 -0.2742 -0.1008 -0.2188
31355W        W47829  17.991   1.058   2.701  0.2824 -0.1344  0.0911
31356W        W47830   5.505  11.926  14.452  0.0128 -0.1900 -0.0959
31357W        W47831  18.311   6.569  12.285 -0.2014  0.3237 -0.0340
31358W        W47832   8.843   9.325   3.920 -0.0260  0.1956  0.3716
31359W        W47833  13.807  13.932  13.483  0.0980 -0.2700  0.1882
31360W        W47834   2.555  14.329   1.496  0.0592 -0.1597  0.3248
31361W        W47835   5.542   1.803  14.518 -0.1541 -0.1318  0.1706
31362W        W47836  13.793  12.512   4.094 -0.0337  0.1255 -0.0662
31363W        W47837   1.001  11.626   2.884  0.0743  0.1238 -0.0632
31364W        W47838  17.819   4.344  13.969  0.0889 -0.0663 -0.0708
31365W        W47839   1.781  12.069   3.934 -0.0297 -0.2958 -0.1840
31366W        W47840   8.463   9.954   5.672  0.1601 -0.1791  0.0892
31367W        W47841   8.032   2.384  15.100  0.0317 -0.0563 -0.1067
31368W        W47842  12.423  14.780   2.391 -0.2426 -0.4398 -0.0231
31369W        W47843   5.360  15.103   5.451 -0.0851 -0.0615 -0.0403
31370W        W47844  16.453   6.484  16.315  0.0318 -0.0210  0.2990
31371W        W47845  15.192   4.470   1.445  0.2116 -0.1187 -0.0555
31372W        W47846   5.402   5.963   4.743 -0.2964  0.2870 -0.1094
31373W        W47847   8.982  11.120  12.932 -0.1085 -0.3433 -0.0480
31374W        W47848   5.540   5.534  10.996  0.0031  0.3368  0.3360
31375W        W47849   5.922  10.905  12.063  0.0554  0.0266  0.1202
31376W        W47850  10.287  13.685   5.326 -0.1342 -0.0509 -0.1116
31377W        W47851  10.607  13.398   5.038  0.2835  0.3581  0.1504
31378W        W47852  15.863   5.896   2.258 -0.0968 -0.0858 -0.0564
31379W        W47853  18.010   3.335  15.018 -0.0591  0.1186  0.1714
31380W        W47854   5.107   6.980  11.121 -0.0929 -0.5213  0.1543
31381W        W47855  11.831  16.984   2.917  0.1870  0.2050 -0.0373
31382W        W47856   2.910   2.170   2.449 -0.0183  0.3028  0.0489
31383W        W47857   0.222   6.766  15.392  0.0364 -0.0526 -0.1021
31384W        W47858  12.397  12.762   0.731  0.0913 -0.2512  0.1824
31385W        W47859  17.844   4.436   1.880 -0.1189 -0.1770  0.0331
31386W        W47860  10.136  12.365   0.217  0.1866 -0.0135 -0.0003
31387W        W47861   9.812   4.024   0.901 -0.4456 -0.1316  0.2998
31388W        W47862   8.222   1.329  13.475  0.1026  0.2613  0.1120
31389W        W47863   8.405  18.363  15.471 -0.0041  0.1190 -0.0622
31390W        W47864   6.837  13.495   3.659  0.3949 -0.3305 -0.0743
31391W        W47865   5.354  16.851  12.986 -0.2866 -0.2147 -0.2515
31392W        W47866  12.477  12.610   2.125  0.0600 -0.3347  0.1970
31393W        W47867   4.445  15.521   0.813 -0.3208 -0.0868  0.0405
31394W        W47868  11.951   4.500   1.712 -0.1275  0.1145 -0.0590
31395W        W47869   8.001   3.229   1.912 -0.1805  0.0174  0.1667
31396W        W47870   9.414  14.350   3.835  0.1319  0.0325 -0.0128
31397W        W47871   8.048   6.843   3.705 -0.0626  0.1048  0.3954
31398W        W47872   2.627   0.768   2.301  0.0056  0.1899  0.3740
31399W        W47873  13.165  10.391   4.585 -0.1166  0.0554  0.0515
31400W        W47874   0.564   8.354   2.994 -0.0917 -0.1077  0.1255
31401W        W47875   9.945   6.382  14.949 -0.1057  0.0406  0.0651
31402W        W47876   2.884  12.782  12.825 -0.0910  0.0433 -0.1703
31403W        W47877  13.471   6.331   2.057 -0.0593  0.1746 -0.0559
31404W        W47878   0.983  14.461  16.325 -0.1898 -0.1026  0.1310
31405W        W47879  18.262  12.196   0.816  0.0005 -0.2288 -0.0018
31406W        W47880   5.339   6.174  14.116  0.3141  0.0506  0.0793
31407W        W47881   3.251  11.144   0.949  0.0981 -0.3864  0.2376
31408W        W47882   5.947  12.693   0.888 -0.3469  0.2540 -0.1407
31409W        W47883   2.638   8.775   5.260 -0.2794 -0.0356  0.1398
31410W        W47884  14.881   8.209  14.824  0.0919  0.3122 -0.5289
31411W        W47885  17.911   3.810   5.235  0.0855 -0.2655  0.1663
31412W        W47886   3.574  15.229   3.209 -0.2204  0.1376  0.2863
31413W        W47887   5.826   4.996  12.624 -0.2114  0.0947  0.2126
31414W        W47888  13.065  10.588  11.331 -0.1861 -0.0799 -0.5462
31415W        W47889   7.485   3.019  14.616 -0.1288 -0.1856  0.0685
31416W        W47890  10.840  15.884   4.411  0.2197 -0.2606  0.0101
31417W        W47891   4.895   7.819   0.053  0.0103 -0.3586  0.0788
31418W        W47892   6.444  17.490   5.587  0.2743 -0.0750  0.0420
31419W        W47893  14.693   1.011   4.725 -0.0738 -0.1641 -0.1844
31420W        W47894  12.047   1.066  15.474 -0.4121  0.0543 -0.0671
31421W        W47895  12.160  14.888  11.329 -0.1381  0.0840  0.4915
31422W        W47896  16.009  18.061  14.799 -0.3990  0.0685  0.3790
31423W        W47897  10.608   6.000  13.146  0.1518 -0.0290  0.0800
31424W        W47898  10.653   1.606  12.269 -0.4009 -0.1281  0.0684
31425W        W47899   2.402  17.236   1.547 -0.2265  0.0761  0.3074
31426W        W47900   9.206   2.705   0.342  0.1835 -0.0975 -0.3625
31427W        W47901   1.173   0.570   3.623  0.1294  0.0695  0.1016
31428W        W47902  16.904  13.980   0.944  0.1179 -0.1789  0.0478
31429W        W47903  16.516   0.588   1.986 -0.1330 -0.2095 -0.0153
31430W        W47904   5.987  16.528   2.478  0.4248  0.1725  0.1314
31431W        W47905  12.373   5.660  14.474 -0.0703  0.1345  0.0364
31432W        W47906  12.532  16.810   1.519  0.0281 -0.0201  0.1005
31433W        W47907   3.761   8.104   2.795 -0.0618  0.2079 -0.1152
31434W        W47908  17.167   8.374   0.163 -0.1251 -0.3000 -0.3639
31435W        W47909  11.120   3.486  13.537 -0.0654  0.3146 -0.4178
31436W        W47910  11.163   6.250  15.914 -0.0185 -0.0669  0.1573
31437W        W47911  12.956  10.866  15.984 -0.0738 -0.0713 -0.0983
31438W        W47912   0.269  12.319  11.386  0.0616 -0.0881 -0.0204
31439W        W47913  13.263   3.316   3.755 -0.1341 -0.2475 -0.0374
31440W        W47914   3.392  13.709  13.603  0.1269  0.0772 -0.1470
31441W        W47915  13.141  11.198  15.418  0.4939  0.2443  0.1554
31442W        W47916   4.363   7.503   2.979 -0.0720  0.1791 -0.0497
31443W        W47917   8.031  14.997   3.868  0.1311 -0.1205 -0.0302
31444W        W47918  16.246   9.491   1.471 -0.3872  0.1851  0.0353
31445W        W47919  15.029  12.923   3.699  0.0234  0.0175  0.2524
31446W        W47920  12.103   3.263   2.661  0.2545  0.0924 -0.1622
31447W        W47921   5.781   0.318  11.160 -0.0340  0.1151  0.1967
31448W        W47922   8.324  15.341   1.214 -0.1732  0.0271  0.4104
31449W        W47923  11.230   9.103  12.315 -0.1418 -0.3201 -0.2451
31450W        W47924   8.945  14.211  15.649 -0.1694  0.0460 -0.1350
31451W        W47925  17.360   5.386   1.924  0.0049  0.0922  0.1477
31452W        W47926   4.489  10.015  12.862  0.2929  0.1881  0.3946
31453W        W47927   5.254   1.437  12.654 -0.1170  0.0430  0.1247
31454W        W47928  15.223   5.884   0.509  0.1626 -0.2045 -0.0414
31455W        W47929   6.249  10.851   5.774  0.1044 -0.3539 -0.0908
31456W        W47930   4.707   9.464   4.144  0.2720 -0.0045 -0.2214
31457W        W47931  12.602   3.894   0.520  0.1180  0.1538  0.1482
31458W        W47932   9.155   4.884  14.854  0.1741  0.0691 -0.0560
31459W        W47933  12.297   1.207   0.892  0.2681  0.0320  0.0386
31460W        W47934   2.492  10.159  12.704  0.0720  0.1229  0.2956
31461W        W47935   4.060   0.758  13.249 -0.1551  0.1163  0.0581
31462W        W47936  16.801  11.915   5.682  0.2574 -0.1503 -0.2563
31463W        W47937   7.972   6.691  12.267 -0.0632  0.0411  0.0323
31464W        W47938   2.531  12.562   3.512 -0.2100 -0.1370 -0.1330
31465W        W47939  13.363   7.782   2.212 -0.0789 -0.1847 -0.0172
31466W        W47940  15.205  16.623   5.902  0.0405 -0.0295  0.0913
31467W        W47941   7.882  11.102  11.795 -0.2235  0.1266 -0.4327
31468W        W47942   6.060   2.301  11.875 -0.0983 -0.2890 -0.1369
31469W        W47943   9.288   1.528  12.792 -0.0834  0.0196  0.0455
31470W        W47944   2.691   3.831   1.367 -0.2553 -0.0691 -0.2131
31471W        W47945  12.881   9.560   3.565  0.2932 -0.1976  0.0777
31472W        W47946  18.336   9.997   2.716  0.3008  0.0433 -0.1210
31473W        W47947  15.324   6.224   4.382 -0.0424 -0.0960 -0.2083
31474W        W47948   3.019   7.477   0.136  0.0074  0.0502  0.0771
31475W        W47949   7.257   6.900  15.958 -0.0165  0.0379  0.0251
31476W        W47950   6.349   0.210  15.831 -0.2169 -0.0665  0.4720
31477W        W47951   1.833  10.294  14.389  0.0988 -0.3606  0.1537
31478W        W47952  14.367  17.217  12.546  0.1047  0.0093 -0.0548
31479W        W47953   0.740  16.273  11.929  0.1406  0.1102 -0.0505
31480W        W47954   4.827   2.315  15.696  0.0878 -0.1775 -0.2667
31481W        W47955  11.469   9.242   3.589  0.2605 -0.0228 -0.2327
31482W        W47956  13.366  12.994  12.755 -0.1431  0.3688 -0.2746
31483W        W47957  17.911   6.069   4.678 -0.1040  0.1049 -0.3162
31484W        W47958   0.009   5.570  13.572  0.0416 -0.1154 -0.1588
31485W        W47959   1.402   8.478  12.948  0.1045 -0.2597  0.1432
31486W        W47960   3.614   7.921  13.149 -0.2076  0.4140 -0.2669
31487W        W47961  13.713   2.813  15.484 -0.1901  0.1010 -0.1084
31488W        W47962   5.283   2.481   5.587 -0.1718  0.1577 -0.1404
31489W        W47963   7.091   2.936  14.248 -0.3236  0.0088  0.1034
31490W        W47964  11.204   5.599  12.721 -0.1461  0.0644 -0.1482
31491W        W47965   3.882   4.928   3.317  0.0121  0.0109  0.1571
31492W        W47966   2.832   9.149  12.848  0.1184  0.1089  0.1313
31493W        W47967  11.289  14.857   1.480 -0.1510 -0.1704 -0.1614
31494W        W47968  11.572   4.845  15.438  0.2325  0.1242 -0.2380
31495W        W47969   3.277   6.419  14.916  0.3796 -0.2556  0.2960
31496W        W47970   8.360   8.666  15.055  0.2918  0.1934 -0.1912
31497W        W47971   7.992   1.638  13.029  0.5090 -0.2246 -0.0188
31498W        W47972   2.763  17.067   3.934  0.2336  0.1175 -0.0298
31499W        W47973   1.045   4.387   0.511  0.3821 -0.0331  0.1733
31500W        W47974  10.482  12.038   0.351 -0.0125 -0.6176 -0.3242
31501W        W47975   2.266   6.448  15.777 -0.1053 -0.2830  0.1434
31502W        W47976   4.362  10.185  15.999 -0.1261  0.0562 -0.0199
31503W        W47977   9.664   9.582  12.574 -0.0091 -0.3222  0.1331
31504W        W47978  16.904   1.872   2.623 -0.2062  0.0069 -0.0124
31505W        W47979   2.288  14.135  14.970 -0.0062 -0.2075 -0.2898
31506W        W47980  13.657  10.901   5.710  0.2232 -0.1512  0.0058
31507W        W47981   8.479  12.685  11.622  0.0215  0.0522  0.1262
31508W        W47982   6.568   8.675  11.719 -0.0005 -0.0245 -0.2244
31509W        W47983   7.162   1.634   0.987  0.0301  0.3087  0.0378
31510W        W47984   2.346  14.022  12.627  0.1665  0.1497 -0.1432
31511W        W47985  18.289   1.732   3.153  0.0456  0.2245 -0.5433
31512W        W47986  10.111  14.001   0.902  0.1324  0.1289 -0.0737
31513W        W47987  12.746  15.265   4.743 -0.1213  0.1972 -0.2637
31514W        W47988  10.432   9.532   1.788 -0.0376  0.2506 -0.0725
31515W        W47989  12.192  14.314   1.137  0.4214  0.0206 -0.2290
31516W        W47990   3.000  11.244  13.842 -0.1289  0.0366  0.3547
31517W        W47991   4.350   0.016  14.790  0.0709 -0.1473 -0.1400
31518W        W47992   3.620   2.664   2.633 -0.0928  0.0357  0.2419
31519W        W47993   0.212   9.441  15.321  0.0851  0.0575 -0.0430
31520W        W47994  13.410   7.636  12.805 -0.0164 -0.0069  0.0820
31521W        W47995   8.189  11.274   3.748 -0.0409 -0.0078  0.2818
31522W        W47996   7.296   1.678  14.950  0.2474  0.2137 -0.6197
31523W        W47997   9.386  14.564  14.544 -0.0378 -0.0498  0.1849
31524W        W47998  18.365   5.096   4.040 -0.1075  0.1520  0.3477
31525W        W47999   3.022  18.089  15.716  0.0220 -0.1440  0.0544
31526W        W48000  17.034  10.864   2.478 -0.2524 -0.2243  0.0231
31527W        W48001   1.894  14.528   4.953  0.3512  0.0677  0.0611
31528W        W48002   1.850   3.169  14.187  0.2266 -0.0111  0.1617
31529W        W48003  11.991  16.840   3.850  0.0894  0.0585 -0.3089
31530W        W48004  15.751  18.366  12.907  0.0122  0.2133  0.1643
31531W        W48005   1.099  16.582  12.655 -0.0410  0.0618  0.2533
31532W        W48006   8.107   4.139   2.385  0.1582 -0.0107 -0.0081
31533W        W48007   9.618   2.865  13.958 -0.0422  0.4785 -0.1992
31534W        W48008   0.733   7.674   4.264 -0.2074  0.2296  0.0867
31535W        W48009  10.239   4.467   1.648 -0.0138  0.1253  0.0421
31536W        W48010  14.817   0.742  12.358  0.0115  0.1981  0.0269
31537W        W48011   8.516  18.210  11.870 -0.2039 -0.2268 -0.2266
31538W        W48012  12.148  17.221   1.612  0.0113 -0.0662  0.2523
31539W        W48013   7.508  12.780   2.570  0.1389  0.0478  0.2398
31540W        W48014  12.667  14.220   0.915  0.1692 -0.1373 -0.0733
31541W        W48015   5.083   1.518   4.809 -0.0835 -0.2039 -0.0166
31542W        W48016   4.671   0.610  12.823 -0.0821  0.2346 -0.2088
31543W        W48017   1.062  11.543  14.908  0.0542 -0.0353  0.0290
31544W        W48018  15.735  14.607   4.234 -0.0383  0.0514  0.2265
31545W        W48019   1.684   4.106   3.283 -0.1648 -0.0423 -0.1695
31546W        W48020  15.036   9.986   5.368  0.1525  0.2389 -0.0138
31547W        W48021   5.877  10.873   0.299  0.1838 -0.3595 -0.0315
31548W        W48022   9.436  17.774  14.771  0.0492 -0.2481 -0.1197
31549W        W48023  13.778  12.567  14.470 -0.2481  0.2153  0.2840
31550W        W48024  13.688   8.328  12.665 -0.0452  0.0185  0.4156
31551W        W48025   3.560   7.780  12.003 -0.2039 -0.1079  0.1003
31552W        W48026   3.642  13.270   0.740  0.1748  0.3639  0.0393
31553W        W48027  16.736   5.225   4.805  0.0763  0.1665  0.0877
31554W        W48028   0.039  10.662  13.062  0.1470 -0.0922 -0.3298
31555W        W48029   1.762   3.433  12.429 -0.1449 -0.1429  0.2123
31556W        W48030   0.059   4.440   3.596  0.2121 -0.3379 -0.2969
31557W        W48031   1.044  10.307  15.916  0.1655 -0.2287  0.0688
31558W        W48032  12.198  10.826  13.916 -0.3327 -0.2346  0.2241
31559W        W48033   5.748  15.116  14.253  0.0348 -0.1165 -0.1792
31560W        W48034  10.377  16.571  12.533  0.0598  0.0716 -0.0682
31561W        W48035  12.036   1.532   3.222 -0.1303  0.0038  0.1202
31562W        W48036   0.600  12.482  14.675 -0.1738  0.0964  0.0305
31563W        W48037   1.681  16.448   0.824  0.0077  0.3027  0.2001
31564W        W48038   6.607   7.974   2.601 -0.1346 -0.1127 -0.0264
31565W        W48039   4.766   1.292   3.965 -0.1294  0.1438 -0.0507
31566W        W48040  12.695  16.086   4.790 -0.2137  0.0726 -0.0332
31567W        W48041   0.868  17.257  13.797 -0.2949 -0.1364  0.2657
31568W        W48042   0.036   5.697   3.313  0.0784  0.1181 -0.5160
31569W        W48043   1.541   6.959   1.729 -0.1308  0.0620  0.0426
31570W        W48044  15.436   2.020   3.910  0.0974  0.0289 -0.1684
31571W        W48045   9.854  12.025  16.228 -0.3515  0.0603  0.0123
31572W        W48046  10.149   3.642   0.070  0.2895 -0.1277  0.0515
31573W        W48047  17.323  16.569   2.165  0.0042  0.1195 -0.1951
31574W        W48048   8.296   3.979  12.361  0.0771  0.1953 -0.2226
31575W        W48049   8.767  16.069   3.409 -0.0907 -0.2562  0.0012
31576W        W48050   1.916   5.894  11.689 -0.3853 -0.0828  0.1026
31577W        W48051   4.418   6.574  14.151 -0.0399  0.2534  0.0729
31578W        W48052  17.800   9.908  15.185  0.1995 -0.0281 -0.0625
31579W        W48053  10.610   2.492  16.036 -0.2227  0.1796  0.1231
31580W        W48054  14.235   7.741   4.020  0.0807 -0.2357  0.1652
31581W        W48055  11.468  17.429   4.367 -0.0026  0.3481  0.2134
31582W        W48056   0.751   7.196  12.220 -0.3753 -0.2593 -0.1543
31583W        W48057   1.297   1.359  13.784 -0.0860  0.0071  0.1818
31584W        W48058  14.908   7.295  14.176 -0.0312  0.1105  0.3496
31585W        W48059  16.092   8.421   2.144 -0.3501  0.1177  0.3601
31586W        W48060   2.861  14.164   4.155  0.0979  0.0285 -0.0157
31587W        W48061   2.101   4.003   5.644  0.1403 -0.1856  0.3018
31588W        W48062   4.733   9.498   3.655 -0.0421 -0.2331  0.2011
31589W        W48063  12.817   8.146   3.720  0.2453  0.0952 -0.2776
31590W        W48064   8.319   0.544  15.285  0.0433  0.1723  0.1350
31591W        W48065  16.059   8.812   4.662 -0.1367  0.1494  0.0948
31592W        W48066  12.146   3.826   5.159  0.1292 -0.0670  0.0276
31593W        W48067   8.294   3.734   4.346  0.0676 -0.1843 -0.1386
31594W        W48068  12.048   5.404   1.231 -0.1149 -0.4749  0.3270
31595W        W48069  18.074   3.941  15.674 -0.1224  0.0929  0.0661
31596W        W48070   9.363  11.099  14.014  0.0772 -0.0606 -0.2438
31597W        W48071  18.064   1.404   4.940  0.1815 -0.1108 -0.0852
31598W        W48072   4.455   3.760  15.162 -0.4700 -0.2823  0.1338
31599W        W48073  12.674   2.868   3.452  0.2989  0.1400 -0.0699
31600W        W48074   5.038   2.506   1.718 -0.2923 -0.0938 -0.2288
31601W        W48075  17.367   4.415  14.861  0.2414 -0.2321  0.2281
31602W        W48076  10.349   4.685  14.929 -0.3079 -0.0630 -0.1785
31603W        W48077   6.475  12.149  14.099  0.1606 -0.3788 -0.2178
31604W        W48078  11.455  12.805  14.535  0.4746 -0.1057 -0.2029
31605W        W48079  11.193   3.324  13.006  0.0192  0.0450 -0.0906
31606W        W48080   2.020   9.768   4.000 -0.1239 -0.0603 -0.1990
31607W        W48081  10.208  10.494  15.149 -0.0645 -0.2838  0.0566
31608W        W48082   0.587   6.246  11.776  0.3419  0.0242 -0.2217
31609W        W48083  16.510  15.778  14.954 -0.3434 -0.0087  0.1359
31610W        W48084  15.413  12.701   3.063  0.0828  0.0917  0.1344
31611W        W48085  13.453   2.638   4.598  0.0643  0.3084 -0.1612
31612W        W48086   3.567   5.882   0.259  0.2291  0.1577 -0.1292
31613W        W48087  17.901  14.326   4.360  0.2772  0.0901  0.2770
31614W        W48088   8.623   7.879  13.729 -0.1110 -0.0194  0.4228
31615W        W48089   5.386   6.871   5.018 -0.1353 -0.1344  0.0323
31616W        W48090  13.310   2.231  13.515  0.2367  0.0504  0.0924
31617W        W48091   5.227   9.703  13.316  0.2265  0.0967 -0.1922
31618W        W48092  13.293   7.925   1.661 -0.1979 -0.2204  0.1237
31619W        W48093   2.321  14.261   2.758  0.2275 -0.1999 -0.3783
31620W        W48094  12.555   1.875  11.759  0.0823  0.1212  0.3006
31621W        W48095   9.065   0.106  11.766 -0.0851  0.0096  0.2409
31622W        W48096   0.887   2.726  16.125  0.2462 -0.2449  0.2637
31623W        W48097  12.873   1.881   0.975  0.3956  0.0557  0.1336
31624W        W48098   6.222   4.650   0.993  0.3336 -0.1186 -0.0732
31625W        W48099   8.689  16.436   3.949  0.0077 -0.3135 -0.0174
31626W        W48100   1.125   2.362  12.569  0.4776  0.4899  0.1864
31627W        W48101  17.719  10.433  10.865 -0.3283 -0.1896  0.0890
31628W        W48102   0.842   9.951   1.841  0.0457  0.0380  0.2084
31629W        W48103  15.748   6.208  12.744 -0.1374 -0.1517 -0.2817
31630W        W48104  15.175  15.831  13.399  0.1423 -0.4324  0.3204
31631W        W48105  13.693  12.151   1.718  0.2541  0.4305  0.1832
31632W        W48106   7.235   2.427  14.356 -0.0979 -0.1731 -0.0255
31633W        W48107  17.268   2.029  12.208 -0.0557  0.0406  0.0897
31634W        W48108  12.812   8.709  13.065  0.2488  0.0294  0.1135
31635W        W48109  14.520  11.709  10.867  0.0817  0.2850  0.1041
31636W        W48110   6.469   1.655   1.748 -0.1734 -0.0398 -0.1887
31637W        W48111   0.287   5.401  11.503 -0.2461  0.1142 -0.1151
31638W        W48112   8.810   0.757  14.342 -0.0505  0.1345 -0.2828
31639W        W48113   5.591  14.398   4.080  0.0877  0.2480  0.0927
31640W        W48114   8.769   7.536  14.595  0.2268  0.0974  0.0769
31641W        W48115   4.999   5.647   4.064 -0.0080  0.0836 -0.1180
31642W        W48116  18.168   7.572  13.625 -0.1445 -0.0098  0.0961
31643W        W48117  10.412   6.672  10.747 -0.0083 -0.2606  0.1810
31644W        W48118   1.118   4.545   5.463  0.2439 -0.0477  0.0585
31645W        W48119  10.279   9.955   2.032  0.2292 -0.0008  0.1162
31646W        W48120   3.922   0.761  14.452  0.1113  0.0876 -0.3595
31647W        W48121   5.575   7.667   1.120 -0.3334 -0.0184  0.0556
31648W        W48122   1.693  16.807  11.361  0.1187 -0.0363  0.2839
31649W        W48123  13.869  17.853   0.592 -0.0288 -0.0614  0.1888
31650W        W48124  17.949  15.256  12.910  0.2554  0.1552  0.3921
31651W        W48125  14.067  17.901   4.581 -0.0318  0.0305 -0.0350
31652W        W48126   7.416   4.163  15.332  0.0574  0.2106 -0.0546
31653W        W48127  15.813   5.138   4.854  0.2204  0.1402  0.1541
31654W        W48128  16.569  14.760  15.656 -0.0424 -0.0368  0.1105
31655W        W48129  15.643  15.198  14.555  0.0214  0.0648  0.2206
31656W        W48130   9.839   5.912  13.253  0.0003  0.1289 -0.2783
31657W        W48131   7.679   1.029   0.551 -0.1909  0.1052  0.1708
31658W        W48132   3.293  10.393   6.149 -0.0499  0.0895 -0.0756
31659W        W48133  12.410  11.817  13.492 -0.2341 -0.0690 -0.1316
31660W        W48134   1.383  17.130  15.230  0.0748  0.3092 -0.1661
31661W        W48135  15.453   3.078   2.503  0.1083  0.2941  0.3949
31662W        W48136  16.203   3.469   2.014 -0.0301 -0.0226  0.1445
31663W        W48137  16.200   4.516   4.266  0.0514  0.0985  0.1650
31664W        W48138   3.636   1.120   3.023 -0.3596  0.1344 -0.1864
31665W        W48139  17.911  14.742  12.926 -0.2362 -0.1286  0.4626
31666W        W48140   1.129   9.290  14.949  0.2148  0.4102  0.0695
31667W        W48141   2.704  18.048   2.287 -0.0836 -0.1875 -0.2033
31668W        W48142   9.233  14.289   3.346 -0.0014 -0.0696 -0.0132
31669W        W48143   2.160   6.086   2.738 -0.0151 -0.1798  0.1465
31670W        W48144  17.866  17.970  14.421  0.0287 -0.1901 -0.2162
31671W        W48145   0.647   6.856  11.834  0.0962  0.1828  0.1265
31672W        W48146   4.518   0.763  12.392 -0.0771  0.1678 -0.2223
31673W        W48147  10.823   0.152   3.405 -0.0329 -0.3596  0.1470
31674W        W48148  11.471   2.085  13.601  0.0132 -0.1170 -0.1984
31675W        W48149   9.871  17.155  13.057  0.0316  0.0851 -0.1780
31676W        W48150  15.512   5.644   3.287  0.1462  0.0233  0.1568
31677W        W48151  16.698  15.615   0.355  0.1544  0.3471  0.1488
31678W        W48152   7.850   3.510  15.986  0.1547  0.1644  0.0258
31679W        W48153   7.848   8.161  13.491  0.4243 -0.2161 -0.0964
31680W        W48154  11.399  13.954  12.351 -0.0498  0.1383 -0.1633
31681W        W48155   5.420  17.801  12.868 -0.0324  0.2263  0.0513
31682W        W48156   0.635   9.012  14.153 -0.1230 -0.1518 -0.3749
31683W        W48157   6.995  16.426  12.087 -0.2370  0.1095  0.2953
31684W        W48158   9.531   3.539   3.795  0.1922 -0.4151  0.1300
31685W        W48159   0.243  11.727  14.003  0.0452 -0.3720  0.1864
31686W        W48160   5.855   3.590  13.701  0.1736 -0.0924 -0.2246
31687W        W48161  12.403  11.445   5.094  0.1167  0.2120  0.4308
31688W        W48162   0.029   8.400   0.640 -0.4057 -0.1729  0.0726
31689W        W48163   5.083   9.802   4.232 -0.1940 -0.3611  0.0730
31690W        W48164   2.049   3.300   3.070  0.0623  0.1399 -0.1609
31691W        W48165   0.943   2.583  11.607  0.2608 -0.2624  0.2353
31692W        W48166   1.235   4.316   4.913  0.1271  0.3258  0.2051
31693W        W48167   1.260   2.011  13.892  0.1057 -0.0070  0.1678
31694W        W48168   2.006  17.143  12.482  0.1256 -0.1186  0.1793
31695W        W48169  15.130  16.941  15.837 -0.3630 -0.1742 -0.2937
31696W        W48170   1.311   2.442  13.061  0.0837 -0.0716 -0.0273
31697W        W48171  17.572  18.178  14.827  0.0919 -0.1092 -0.0519
31698W        W48172  12.080  15.580   2.180 -0.2704  0.2331  0.1819
31699W        W48173   2.665   6.251   0.886  0.2363  0.1021 -0.2093
31700W        W48174  16.425   3.397   1.578  0.0393 -0.1151  0.1412
31701W        W48175  12.973  10.948  14.859 -0.1347 -0.0390  0.0174
31702W        W48176  17.444   7.881   0.862 -0.1491 -0.1580 -0.0621
31703W        W48177  12.916  10.679   2.974  0.2304 -0.0138 -0.0168
31704W        W48178  10.786  11.998   0.758 -0.0055 -0.1420 -0.2263
31705W        W48179  14.471  11.522   2.779 -0.3935  0.2300 -0.0010
31706W        W48180   8.840   2.163  12.786  0.1438  0.4045  0.0649
31707W        W48181  17.520  12.487   2.897  0.1193  0.0720  0.0330
31708W        W48182  15.031  16.330  13.305 -0.1489  0.0139  0.2213
31709W        W48183  17.221  11.147  14.926 -0.0272  0.0113 -0.1818
31710W        W48184  11.689   9.722   2.765  0.0101 -0.4215 -0.0989
31711W        W48185  17.153   1.129   4.212 -0.2048 -0.1342  0.1050
31712W        W48186   1.686  17.061   0.666 -0.1381  0.0574 -0.0154
31713W        W48187   2.518  12.245  15.826  0.4718 -0.2142  0.1651
31714W        W48188  10.371   2.858   4.538 -0.0499 -0.2272  0.1440
31715W        W48189  14.465  12.849   0.874  0.1744  0.2225  0.0453
31716W        W48190  17.425   4.480   0.451  0.1248  0.0163 -0.2551
31717W        W48191  10.696  16.762  15.576  0.5049  0.0744  0.0429
31718W        W48192   6.405  10.385  16.152  0.2778 -0.0817  0.1773
31719W        W48193   9.453   9.125   4.391 -0.2607  0.0994 -0.0285
31720W        W48194   7.618  10.324  11.792  0.0405 -0.0849 -0.2633
31721W        W48195   2.836  12.219  13.704 -0.0741  0.0936 -0.2462
31722W        W48196  15.574  15.105   0.814  0.0380 -0.0749 -0.0379
31723W        W48197   5.393   1.841   1.145 -0.0541 -0.0703  0.1436
31724W        W48198  16.109  18.077   2.811 -0.2928 -0.1484  0.0646
31725W        W48199  10.583   2.197  15.573 -0.0055 -0.1370  0.2568
31726W        W48200   9.499  15.570   1.382 -0.1249  0.0592 -0.1187
31727W        W48201   8.436   3.460  14.414  0.0998  0.1314 -0.1037
31728W        W48202   7.282   4.593   1.299  0.2297  0.1711 -0.2801
31729W        W48203   8.498   2.627  14.824  0.0343  0.0007  0.2804
31730W        W48204  14.380  10.738   1.177 -0.3221  0.1977 -0.1926
31731W        W48205   6.235  17.662  16.140  0.0612  0.0094 -0.0902
31732W        W48206  13.364   8.204   3.442  0.3639  0.0910 -0.2150
31733W        W48207   1.259  16.055  12.467 -0.1037  0.2008 -0.1697
31734W        W48208   8.507   8.689   1.191 -0.0619  0.1666 -0.1044
31735W        W48209  16.317   4.278  11.860  0.5014 -0.0128 -0.0155
31736W        W48210  16.814  12.616   0.801  0.1993 -0.0333 -0.2395
31737W        W48211   2.443   4.525  12.498 -0.0231 -0.0969  0.0776
31738W        W48212  12.639   1.795   2.587 -0.0473  0.3280  0.1655
31739W        W48213   3.934   8.922  14.695  0.1599  0.1387 -0.0097
31740W        W48214   1.208   9.547   5.001  0.0647  0.0130  0.0939
31741W        W48215  10.589   4.308   2.173  0.0546  0.3188  0.0936
31742W        W48216  15.117  17.116   6.036  0.0531  0.0705 -0.1154
31743W        W48217   0.527  12.591   2.121  0.0412 -0.3948 -0.1174
31744W        W48218  15.375   4.290  14.965  0.0270  0.0430 -0.0190
31745W        W48219  16.000  10.249  12.200  0.0179 -0.1765 -0.0556
31746W        W48220  12.075   3.456  11.225 -0.3355 -0.1681 -0.2770
31747W        W48221  15.320   1.570  14.315  0.2000 -0.1004 -0.0864
31748W        W48222   4.880  10.827   3.201  0.0573 -0.2240 -0.0559
31749W        W48223   7.328  10.839  13.607  0.0293  0.0444  0.1260
31750W        W48224   1.242  10.261  13.576 -0.2510 -0.0675 -0.0774
31751W        W48225   8.002  13.386   4.241  0.2160 -0.3964 -0.2082
31752W        W48226  16.585  11.554  11.717 -0.0512  0.2131 -0.0522
31753W        W48227  17.048   7.509   3.063  0.1434 -0.3398  0.1449
31754W        W48228   8.009  11.782  12.979 -0.0894  0.1491  0.1902
31755W        W48229   7.844  10.348   3.651 -0.2380 -0.2119  0.0205
31756W        W48230  12.946   8.121   2.527 -0.2826  0.0075 -0.1346
31757W        W48231  13.194   8.516   0.901 -0.0772 -0.2688  0.0027
31758W        W48232  11.262  17.190   0.846 -0.1957  0.1375 -0.1840
31759W        W48233   9.247   2.679   3.919 -0.1911 -0.0166 -0.3108
31760W        W48234   6.538  17.841   0.688 -0.0624 -0.2497 -0.0033
31761W        W48235  13.286   5.428   1.747 -0.1744 -0.0683 -0.0638
31762W        W48236   3.103  15.728   0.498 -0.0823  0.0702 -0.1287
31763W        W48237  14.881   7.468   4.852 -0.1114 -0.1553 -0.3474
31764W        W48238   1.709  14.601  15.525  0.3453  0.0820  0.3637
31765W        W48239  15.192   7.264   3.078  0.1319  0.1470  0.0814
31766W        W48240   2.812   2.563  15.842  0.0327  0.0095 -0.1115
31767W        W48241   3.413  17.626  12.799  0.0169  0.0675 -0.1069
31768W        W48242   7.689  17.275  15.959 -0.0336 -0.3827 -0.1574
31769W        W48243  14.744  11.639   0.883 -0.0947  0.0754 -0.0771
31770W        W48244  12.157  11.260   4.627 -0.1094 -0.0408  0.2031
31771W        W48245   0.718  11.069   2.519  0.2877  0.1003 -0.2295
31772W        W48246  14.437   9.838   0.060  0.1143  0.0753  0.0768
31773W        W48247  12.192  14.952   0.427 -0.1778 -0.2364  0.3641
31774W        W48248   0.574   0.186   2.111 -0.0381 -0.1596  0.2038
31775W        W48249   9.790  12.916   4.511 -0.3306 -0.0777  0.1190
31776W        W48250  17.360   1.802   5.429  0.0137  0.0483 -0.1456
31777W        W48251   9.166  16.961  13.019  0.0389  0.0262 -0.0396
31778W        W48252  17.118  17.290  15.847 -0.3078 -0.0817  0.0893
31779W        W48253  16.975  15.045  14.802 -0.0753 -0.2086 -0.2928
31780W        W48254  17.076  16.990   3.809  0.0828  0.1652 -0.0414
31781W        W48255   2.753  15.659   2.257  0.0898  0.0686 -0.2080
31782W        W48256  17.633   4.546  16.316  0.5206 -0.3993  0.1758
31783W        W48257  14.332  12.578  10.334  0.0703  0.1113  0.2276
31784W        W48258  12.819  10.863  12.552  0.0050 -0.1014 -0.1676
31785W        W48259   7.298  14.867  11.733  0.1310  0.1630 -0.3849
31786W        W48260  13.340  15.912   6.001  0.2678  0.1185  0.2731
31787W        W48261  12.424   7.274  11.337 -0.0868 -0.0126 -0.3997
31788W        W48262   5.494   5.415  16.247  0.2415 -0.1044  0.0621
31789W        W48263  12.561   5.149  10.596  0.1225  0.0373  0.0789
31790W        W48264  11.394  15.459  12.777  0.1638  0.4521 -0.1836
31791W        W48265  10.584  11.867   4.879 -0.1417 -0.3032  0.1772
31792W        W48266   3.756  17.824  13.073 -0.1279  0.2722  0.0753
31793W        W48267  12.514   8.329   3.331 -0.1540  0.1381  0.0457
31794W        W48268  16.220  14.865   4.160  0.0431  0.1714 -0.2560
31795W        W48269   8.687   4.296  12.725  0.1163 -0.1386 -0.1693
31796W        W48270   6.827  11.354  14.637 -0.0931 -0.5097  0.0570
31797W        W48271   6.167  17.031   3.908  0.1265 -0.0039 -0.0693
31798W        W48272  11.053   6.672  13.352  0.1332 -0.1559 -0.1891
31799W        W48273   6.713  10.462  12.329  0.0752  0.0951  0.0019
31800W        W48274   5.774  14.293   5.068 -0.1736 -0.4174 -0.0534
31801W        W48275  10.242   5.298   3.289 -0.0380  0.1785  0.0340
31802W        W48276   0.396   6.778   0.477  0.1432 -0.1935 -0.2086
31803W        W48277  14.804   9.683  13.556 -0.3697 -0.0308 -0.3528
31804W        W48278  18.344  11.164  13.113 -0.2072 -0.0898  0.3754
31805W        W48279   0.262   8.756   5.858  0.1727  0.2018  0.2091
31806W        W48280   3.697   1.255   4.968 -0.0003  0.2570 -0.0313
31807W        W48281  14.286  12.815  15.531 -0.2220 -0.1726 -0.0607
31808W        W48282  15.412   0.450   1.117  0.1359  0.1463 -0.1460
31809W        W48283   4.233   3.815   4.100  0.0390 -0.0121  0.2776
31810W        W48284   5.846  17.232   1.396 -0.0018  0.1508  0.1140
31811W        W48285   1.778  15.856  13.204 -0.3463 -0.0981 -0.1799
31812W        W48286   8.864  16.213   1.678  0.1787 -0.2201 -0.1044
31813W        W48287  16.138   9.075  12.813 -0.2112 -0.3071 -0.0422
31814W        W48288   6.968   5.746   5.200 -0.0406 -0.1648  0.1151
31815W        W48289   6.597   9.355  13.891  0.0915  0.0096 -0.0460
31816W        W48290   3.747  16.942  12.123 -0.1210 -0.1275  0.0204
31817W        W48291   7.458  10.690   1.628 -0.1911 -0.1040  0.2188
31818W        W48292   6.122   9.109  13.024  0.4490 -0.3373 -0.2857
31819W        W48293  13.770   5.246  15.558 -0.1926  0.1085  0.0401
31820W        W48294  18.272  14.224  15.015  0.0178 -0.0545  0.0545
31821W        W48295  12.820   2.657   2.975 -0.3823  0.1680  0.0371
31822W        W48296  12.461  17.288   2.021 -0.1159  0.0626  0.0658
31823W        W48297   4.396  15.039  13.915 -0.1610  0.1369 -0.1575
31824W        W48298  10.217   3.000   0.662 -0.2895 -0.1534 -0.2581
31825W        W48299  14.687   5.338   1.360 -0.0475  0.1199 -0.2782
31826W        W48300  11.080  12.733   4.372 -0.2210 -0.0028  0.0566
31827W        W48301   4.289   6.137  11.502 -0.1402  0.0375  0.0550
31828W        W48302   7.394  16.506   4.383  0.1612  0.2169  0.1456
31829W        W48303   1.320   3.899   4.641 -0.0133 -0.2883 -0.0772
31830W        W48304  12.686   0.163   0.890  0.0088  0.0419  0.1988
31831W        W48305   0.877  15.818  16.328 -0.1239 -0.1961 -0.0340
31832W        W48306  12.337  17.868  16.329  0.3268 -0.1750 -0.0663
31833W        W48307  15.074   7.820   4.426 -0.0589  0.0450  0.1217
31834W        W48308   9.681   8.398   0.479  0.1069 -0.2940 -0.1842
31835W        W48309   4.993  13.339  16.221  0.1454 -0.4198 -0.0469
31836W        W48310   4.868  11.334  13.239 -0.0557 -0.1136  0.0076
31837W        W48311  14.537   5.250   3.754  0.0614  0.2560 -0.1427
31838W        W48312  13.029  13.809   0.604 -0.0888  0.0145  0.1346
31839W        W48313   9.659  16.205  13.843 -0.2078  0.0925 -0.5182
31840W        W48314  13.625   1.584   5.197 -0.1070  0.0378  0.4095
31841W        W48315  16.686  11.767  15.062 -0.1543  0.0469  0.2919
31842W        W48316  14.013   1.173  15.486  0.1325 -0.2549  0.3064
31843W        W48317  14.464  13.957  16.103  0.0414  0.3406 -0.1020
31844W        W48318   9.775  17.743   4.007  0.0853  0.0282  0.3018
31845W        W48319   6.138  11.291   1.990 -0.0537 -0.1737  0.1042
31846W        W48320  16.876  16.905  11.542 -0.2211  0.1081  0.0949
31847W        W48321   2.981   3.199   0.453 -0.3146  0.3787 -0.2208
31848W        W48322  16.156   4.063  13.795 -0.0426  0.1057  0.3818
31849W        W48323  14.484   2.144   3.169  0.0008 -0.0414  0.1708
31850W        W48324  17.224   7.126   1.133  0.0132 -0.2629  0.2069
31851W        W48325  17.787  10.410  15.994 -0.0658 -0.0337  0.0205
31852W        W48326  14.095   2.632  13.303 -0.1945  0.0369  0.0773
31853W        W48327  14.600  11.498   4.647 -0.0270  0.0046  0.1561
31854W        W48328  12.942   4.809   3.635  0.0003 -0.0798 -0.0215
31855W        W48329   4.012  14.723   1.802  0.1402 -0.1922 -0.2449
31856W        W48330  12.816  17.792   4.191 -0.3130 -0.4121  0.0935
31857W        W48331  12.928  10.471   3.430  0.2580 -0.4496  0.0062
31858W        W48332   4.107   6.792  13.195  0.0596 -0.1986 -0.2279
31859W        W48333  16.521   3.227  15.098  0.0206 -0.2000 -0.1774
31860W        W48334   7.838  10.720   4.431  0.4366  0.2819 -0.0256
31861W        W48335  12.416   8.718   1.014 -0.0726 -0.0546  0.1170
31862W        W48336  18.303  12.140  12.265 -0.0412 -0.0232 -0.2034
31863W        W48337  12.158   4.257   4.425 -0.0469 -0.3250  0.2537
31864W        W48338  18.118   9.500   1.674  0.0602  0.2408 -0.1391
31865W        W48339   2.035   1.223  12.387  0.1471  0.1413 -0.0942
31866W        W48340  12.027  11.181  15.812 -0.2373 -0.2628 -0.0530
31867W        W48341  13.225  17.744  12.946  0.0302 -0.1304 -0.0072
31868W        W48342   4.944  16.063   2.989  0.3177 -0.2896  0.1534
31869W        W48343   5.900  14.956   1.991 -0.2295  0.1689  0.0919
31870W        W48344   8.310  10.311  12.786  0.0052  0.3170 -0.2818
31871W        W48345   3.119   4.037  11.860  0.1255  0.1014 -0.0066
31872W        W48346   7.907  16.558   4.344 -0.3834  0.1334  0.1378
31873W        W48347   9.820  10.557   5.068  0.1945 -0.1837  0.3164
31874W        W48348  13.893   4.898  10.228  0.2417  0.2074  0.0939
31875W        W48349   7.169   7.901  11.605  0.1656 -0.1332  0.1048
31876W        W48350   7.389   3.150   0.035  0.2296 -0.0431 -0.0947
31877W        W48351  10.190  11.093  15.319  0.0823  0.2460 -0.2298
31878W        W48352   9.143  14.352  13.482  0.2290 -0.0052  0.2979
31879W        W48353  14.601   2.510  13.057  0.1724  0.2655  0.2333
31880W        W48354  11.833   3.782  14.957  0.0785  0.1688  0.0041
31881W        W48355   3.284   6.925   1.200  0.0144  0.0135  0.0873
31882W        W48356  12.731   6.397  10.271  0.0148  0.5298  0.3034
31883W        W48357  15.076   2.216  15.069  0.4629  0.1817  0.2192
31884W        W48358   3.723  15.416   2.307 -0.0890  0.2557 -0.0361
31885W        W48359   2.329  10.579  14.597 -0.3800 -0.2810 -0.1892
31886W        W48360  11.705  17.424  12.923  0.0560 -0.1103  0.2196
31887W        W48361  14.215  15.272   4.504  0.0811  0.0953 -0.2097
31888W        W48362   8.512  12.175  11.534  0.0747  0.3013 -0.0698
31889W        W48363  16.251   0.197   3.459 -0.0189 -0.0235  0.1271
31890W        W48364   6.945  17.530   3.598 -0.3311  0.0174  0.1312
31891W        W48365  16.244   7.972   4.233  0.3909 -0.0072  0.0797
31892W        W48366  17.442  11.063   0.366 -0.0005 -0.1822  0.2722
31893W        W48367   9.444  11.321  13.553 -0.2024  0.2163  0.0120
31894W        W48368  10.977   3.290   3.896  0.0789 -0.3446  0.0396
31895W        W48369  14.247   3.288  13.084 -0.1199 -0.0910 -0.0439
31896W        W48370  12.583   7.847   2.347  0.1642 -0.1396 -0.1265
31897W        W48371  17.546  11.072   3.628  0.0345  0.1841  0.1327
31898W        W48372  13.059  11.179  12.250  0.0020  0.1269  0.0536
31899W        W48373  16.078   5.848  13.914 -0.1562 -0.0166 -0.1241
31900W        W48374  11.398   1.313  14.909  0.2732  0.0389 -0.2402
31901W        W48375   8.004  13.136   1.706  0.1112 -0.0143 -0.1296
31902W        W48376   2.216   7.416  13.365  0.2685  0.0643 -0.0192
31903W        W48377   1.623   0.078   1.972 -0.1314 -0.3395 -0.1567
31904W        W48378   6.802  12.770  12.980  0.1014 -0.1570 -0.0703
31905W        W48379  18.352  11.204  15.666  0.1324 -0.1660  0.2852
31906W        W48380  15.020  10.643  11.506 -0.3917 -0.2570 -0.0801
31907W        W48381   5.116   4.250  16.313 -0.3695 -0.6797  0.1033
31908W        W48382  17.333  11.338   3.268  0.4163  0.0017 -0.0714
31909W        W48383   9.886   5.796  16.002 -0.0792  0.0098  0.2713
31910W        W48384  15.296   3.916   4.408  0.0727  0.0115  0.0988
31911W        W48385  15.340  17.998  12.583  0.1460  0.2804  0.0774
31912W        W48386   9.160  15.108  12.528 -0.1696 -0.0021 -0.1291
31913W        W48387  13.482  13.757   0.887 -0.0269  0.1593  0.1253
31914W        W48388   9.526   4.030  14.932  0.0145  0.5222  0.0309
31915W        W48389   1.613   7.612  12.222 -0.1062  0.0168 -0.0111
31916W        W48390   1.774   4.596  16.300  0.0590  0.4856 -0.1616
31917W        W48391   7.362   4.883   3.486  0.2839  0.3093 -0.4040
31918W        W48392   1.419  12.120  14.955  0.2341  0.3440 -0.1343
31919W        W48393  15.387   9.773   1.979  0.0166 -0.0439  0.0071
31920W        W48394   4.655   7.203  11.130  0.1513 -0.4347 -0.2893
31921W        W48395   2.368  15.428   3.585  0.1543  0.0095 -0.0438
31922W        W48396  12.830   3.937  13.105  0.2120  0.1810  0.1555
31923W        W48397   3.166   0.653  12.669  0.2559 -0.2519 -0.0830
31924W        W48398   3.266  15.592   0.052  0.0300  0.0523 -0.0264
31925W        W48399   8.865   0.047   4.082  0.3740  0.0427 -0.2031
31926W        W48400   5.968  11.306   3.735 -0.0587  0.0459  0.0415
31927W        W48401   7.019   2.534  16.100 -0.2216  0.1830  0.0700
31928W        W48402  15.412  13.417  12.554  0.1806  0.1375 -0.0519
31929W        W48403  13.306  11.247   1.918  0.2774 -0.1247 -0.0084
31930W        W48404   5.342   4.687  13.479 -0.0607 -0.2117 -0.0326
31931W        W48405   7.400  15.939   3.486 -0.1406 -0.0566  0.1412
31932W        W48406   4.787   0.055   5.741  0.0692  0.3707 -0.0373
31933W        W48407  12.696   0.142  12.921  0.3606  0.1664 -0.2256
31934W        W48408  17.547   1.826   2.768  0.2091 -0.0698  0.2718
31935W        W48409   8.427   3.150   2.170  0.0758 -0.0083  0.1331
31936W        W48410   2.569   3.606  16.095  0.1008  0.0969 -0.0858
31937W        W48411   9.615   4.951  16.273 -0.1000  0.1142 -0.0065
31938W        W48412  13.375   7.882   4.939 -0.1719  0.2545  0.0515
31939W        W48413   6.041  11.344  12.990  0.1390 -0.2013  0.3303
31940W        W48414  12.265   4.152  13.616 -0.0414  0.1503  0.4155
31941W        W48415  17.454   7.045   2.792 -0.2726  0.1287 -0.0677
31942W        W48416   9.200   1.477  15.478 -0.2259  0.1152  0.0704
31943W        W48417   5.897   2.404  12.365  0.1537 -0.2564  0.1514
31944W        W48418   6.608   2.680  14.274  0.0200 -0.2650  0.1158
31945W        W48419  18.138  15.267   0.078  0.0223  0.0403  0.3141
31946W        W48420  14.782   5.332   0.439 -0.0892  0.1385 -0.0612
31947W        W48421  15.018  15.372  13.661 -0.1861  0.1512 -0.0918
31948W        W48422  10.184   2.749   2.231  0.2367 -0.0495 -0.3612
31949W        W48423  13.517  15.586   0.377 -0.1340 -0.0919 -0.0555
31950W        W48424  17.643   2.906   1.936 -0.0177  0.1047  0.1836
31951W        W48425  13.363  12.440   4.298 -0.1855  0.2440  0.0684
31952W        W48426  17.755  10.933   2.609  0.0959  0.0701 -0.0551
31953W        W48427   5.942   2.834   0.696  0.1730  0.0131 -0.2043
31954W        W48428   0.933  14.270   3.518  0.0035 -0.0219  0.0907
31955W        W48429   3.124   5.530  12.237 -0.1434 -0.1225 -0.0733
31956W        W48430   1.561   4.485   0.782  0.1393  0.1726  0.1861
31957W        W48431  15.983  14.234  11.622 -0.0825 -0.0638 -0.2381
31958W        W48432   6.281  12.735   0.003 -0.0992 -0.1561  0.0742
31959W        W48433   9.160   5.005   2.304  0.1890 -0.1225  0.0405
31960W        W48434   1.339  15.997   4.337  0.1202 -0.0865  0.0744
31961W        W48435  12.384  17.737  15.324  0.3461  0.1198  0.1730
31962W        W48436   8.678   2.862   3.036 -0.1880 -0.3227 -0.1670
31963W        W48437  12.524  14.655   3.233 -0.1991  0.2394  0.0519
31964W        W48438  11.206  12.595   0.079 -0.0017  0.2541 -0.1067
31965W        W48439   8.659   6.173   4.369 -0.0407 -0.0510 -0.1017
31966W        W48440  17.056   6.437  10.671  0.0344  0.1051 -0.3488
31967W        W48441   3.825   0.442   2.424  0.2683 -0.2380 -0.1479
31968W        W48442  12.738  15.198   2.453 -0.2283 -0.1475  0.1853
31969W        W48443   5.965   8.059  14.636  0.2781 -0.0566  0.1769
31970W        W48444   3.083   2.122  13.513 -0.3808 -0.2494  0.0067
31971W        W48445   1.121  12.157  15.887  0.0384  0.0738 -0.1805
31972W        W48446   7.573   0.402   3.552 -0.3916  0.0500 -0.3931
31973W        W48447   1.122  13.028  12.376 -0.2253 -0.0575 -0.3935
31974W        W48448   0.628  13.980  13.056 -0.2365 -0.1314  0.1549
31975W        W48449   4.654   6.796  15.625  0.0906  0.0648  0.2515
31976W        W48450  14.544   1.930   4.169  0.1002 -0.1486  0.0832
31977W        W48451  16.409  10.172   0.182 -0.1363 -0.0729 -0.0565
31978W        W48452   6.122   7.590   2.070  0.4099 -0.1116  0.2497
31979W        W48453  12.728   3.703  11.382  0.0157 -0.3041  0.1382
31980W        W48454  10.089   0.926  10.792  0.0191  0.1732 -0.0599
31981W        W48455  15.276   4.685  13.513 -0.0816 -0.3826  0.0449
31982W        W48456   0.346   4.929   3.689  0.0642 -0.2774 -0.1186
31983W        W48457   8.859   5.151  10.055  0.1284 -0.1567 -0.0005
31984W        W48458   1.866  12.304   1.917 -0.0898 -0.2426 -0.2692
31985W        W48459   3.630   0.919   1.223 -0.2028 -0.2847 -0.0273
31986W        W48460  17.642   5.133  15.269  0.4058 -0.1533  0.3267
31987W        W48461   9.706  18.243   4.903 -0.0300 -0.3199  0.0219
31988W        W48462   9.009   1.796  15.087 -0.1230  0.1720 -0.2206
31989W        W48463  15.605   2.049   0.495  0.0845  0.1682  0.0641
31990W        W48464  14.759  12.080   0.415  0.0826  0.0893 -0.4206
31991W        W48465   6.375   7.992   3.926 -0.0716 -0.0171 -0.4101
31992W        W48466  14.748   4.243  13.125 -0.4927 -0.1451 -0.0836
31993W        W48467  10.740  13.648   2.471 -0.1161 -0.3272 -0.1715
31994W        W48468   0.215   5.197  13.814 -0.0898  0.2005  0.1878
31995W        W48469  15.351   4.992  10.616 -0.1332  0.0417 -0.1923
31996W        W48470   6.798  17.437  16.209  0.0883 -0.0162 -0.0401
31997W        W48471   2.390  13.666  13.386 -0.0093  0.1762  0.1767
31998W        W48472   9.105  17.289   3.740  0.0718  0.0780  0.1626
31999W        W48473   9.811   0.390   4.408 -0.0351 -0.0328  0.1838
32000W        W48474   9.772  11.287   3.764  0.1261  0.0390  0.1287
32001W        W48475   3.001   2.805   3.922 -0.1524 -0.0838  0.1288
32002W        W48476   8.134   3.336   1.321 -0.1833 -0.1594  0.1151
32003W        W48477  13.586   8.267   1.072 -0.1702 -0.3330 -0.1887
32004W        W48478  11.101  14.377  15.838 -0.2281  0.1249  0.0626
32005W        W48479   3.698  12.283   5.844 -0.0971  0.3280  0.0587
32006W        W48480   5.417  16.739   4.237 -0.0141 -0.0050  0.2622
32007W        W48481  12.112  11.315  14.848  0.1134 -0.1001 -0.1612
32008W        W48482   1.809   4.528  14.315 -0.3106 -0.3316  0.4468
32009W        W48483  17.937   9.771  13.067  0.2293 -0.1341 -0.2418
32010W        W48484   8.847  12.541  14.826 -0.2058 -0.0736 -0.2264
32011W        W48485  11.643  17.296  12.231  0.0178  0.1548  0.1348
32012W        W48486  11.919  13.582  15.645  0.0015  0.0654  0.0078
32013W        W48487   4.798   4.867   3.466 -0.2735 -0.0136 -0.1159
32014W        W48488  13.366  12.168  13.653  0.1189 -0.3076  0.1120
32015W        W48489  17.105   4.818  13.657 -0.1132  0.1141  0.2852
32016W        W48490  17.946   7.742  11.910  0.4369 -0.0057 -0.0130
32017W        W48491  10.016   6.409   1.287  0.1679  0.1043 -0.1366
32018W        W48492   8.461  16.293   4.346  0.4406 -0.2825 -0.1650
32019W        W48493  11.944  13.093   4.187  0.0826  0.0181  0.1440
32020W        W48494  12.098  10.646   2.878  0.1974 -0.0055 -0.1121
32021W        W48495  17.298   8.411   2.751 -0.1879 -0.3664 -0.0775
32022W        W48496   0.923  10.031   0.409  0.2664 -0.2433  0.0869
32023W        W48497   8.003   2.408   0.193  0.4150 -0.1061 -0.0530
32024W        W48498  11.614   8.724   1.746  0.2005 -0.0869  0.1326
32025W        W48499  10.588  13.820  14.419 -0.0570  0.4371 -0.0150
32026W        W48500   1.859   0.888   3.121 -0.0126  0.1485  0.2373
32027W        W48501   9.447  14.412   0.694  0.3755  0.3182 -0.0131
32028W        W48502   7.993   0.365  16.188  0.0408 -0.3506  0.2925
32029W        W48503  12.559  15.732  11.317  0.0425  0.0629 -0.0861
32030W        W48504   3.929  14.992   2.576  0.1935  0.0316  0.1999
32031W        W48505  12.526  11.296   2.603  0.2342 -0.2288 -0.2743
32032W        W48506   1.407   1.607   1.161 -0.0451 -0.0677 -0.0039
32033W        W48507   7.418  14.224   5.578 -0.1259  0.1666 -0.0323
32034W        W48508   1.067   1.736   2.500  0.0168 -0.1342  0.1248
32035W        W48509   1.394   0.448   2.299 -0.0791 -0.2419  0.0752
32036W        W48510  16.421  14.330   3.270  0.2832  0.2288  0.0334
32037W        W48511  16.017   3.084   5.588 -0.2548 -0.0923  0.1210
32038W        W48512   1.801   5.471  13.459  0.0594  0.3301  0.0818
32039W        W48513  15.774  15.535   2.306 -0.1790 -0.1092 -0.0481
32040W        W48514  17.085   7.294  14.064  0.1546 -0.1400 -0.0272
32041W        W48515   1.697   4.315   4.653  0.1077 -0.0904  0.1567
32042W        W48516   3.203   8.885  11.836 -0.0211  0.1446 -0.2015
32043W        W48517  10.641  15.443   2.493 -0.2005  0.2645 -0.1983
32044W        W48518  14.625   6.344  11.093 -0.3326  0.0272  0.0163
32045W        W48519   7.358  13.232  13.767 -0.0109 -0.0377  0.3701
32046W        W48520  11.363   2.039   1.977 -0.0115  0.0428 -0.0407
32047W        W48521   0.974  16.479   5.202 -0.0870  0.1572  0.1036
32048W        W48522  18.156  17.782   5.077  0.0744 -0.0426 -0.1148
32049W        W48523   1.164  14.902   1.089  0.1698 -0.2345 -0.1966
32050W        W48524  10.073  12.196   4.256 -0.6277 -0.2685  0.0718
32051W        W48525  11.286  15.939   1.078  0.1203  0.0739 -0.0695
32052W        W48526   1.619   7.158   4.072  0.2505  0.4081 -0.2493
32053W        W48527  12.295  11.362   0.609 -0.0472 -0.2416 -0.2471
32054W        W48528  17.145   1.310  11.638  0.1653 -0.2287  0.1574
32055W        W48529  18.071  15.906  14.802  0.0344 -0.0294 -0.0929
32056W        W48530   3.926  16.993  13.482 -0.0021  0.2014  0.0967
32057W        W48531   2.798   5.305  13.028  0.0482 -0.0566 -0.3299
32058W        W48532   2.374  11.038   5.293  0.1584 -0.5110 -0.1910
32059W        W48533   0.643  14.812  16.072  0.3170 -0.1410 -0.0028
32060W        W48534  16.784   3.357  13.551 -0.2977  0.2821  0.2306
32061W        W48535  11.743   0.998  12.822  0.2202 -0.0445  0.2054
32062W        W48536  10.790   5.836   1.481  0.1742  0.0234  0.0504
32063W        W48537   8.115   9.107   3.290  0.0669 -0.0221 -0.2766
32064W        W48538  15.704   4.450   4.079  0.1045  0.1467 -0.1868
32065W        W48539   2.212   4.735   1.955 -0.0682  0.1985 -0.2918
32066W        W48540   1.243   6.309   3.001 -0.0652 -0.0472  0.0823
32067W        W48541  10.809  15.141  14.393  0.1086 -0.1573  0.0321
32068W        W48542   2.908  17.240   2.723  0.0253 -0.0530  0.0114
32069W        W48543   5.315  17.191  12.073 -0.2486 -0.1675 -0.1046
32070W        W48544  13.965   6.464  10.962 -0.0107 -0.3254  0.2684
32071W        W48545  12.784  14.310   3.835 -0.1952  0.1219 -0.2750
32072W        W48546   4.260  15.143   1.660 -0.2140  0.2444 -0.0726
32073W        W48547   9.416  13.617  11.221  0.1401  0.0305  0.0312
32074W        W48548   2.918   1.315   5.658  0.0293  0.0803  0.0919
32075W        W48549  14.505   1.519  11.706 -0.0829 -0.0435 -0.1856
32076W        W48550   0.014  13.489  11.642  0.1167  0.2094 -0.0013
32077W        W48551   4.042   7.481   0.971  0.0352 -0.0036  0.2957
32078W        W48552   1.571  13.223   3.854  0.3355 -0.1548  0.0177
32079W        W48553   1.906  12.032   4.433 -0.1959  0.3449  0.3508
32080W        W48554   1.295  16.584   3.108 -0.1510 -0.1122 -0.0815
32081W        W48555   6.704   0.793  12.058 -0.0686 -0.3447 -0.2073
32082W        W48556   2.403  12.960  12.985 -0.1516  0.4773  0.4248
32083W        W48557   3.268   4.155   3.328 -0.1362  0.1278 -0.2899
32084W        W48558   0.028  15.786   0.976  0.2522 -0.0474  0.0615
32085W        W48559   2.494   0.466  15.536  0.0464  0.0439  0.2452
32086W        W48560   2.325   0.793  15.922  0.0893 -0.0843  0.0672
32087W        W48561   3.558   9.586  14.480  0.0303  0.1767 -0.1942
32088W        W48562  15.197   4.686   0.910 -0.1093 -0.0961  0.2646
32089W        W48563   7.378   5.478   2.040 -0.5490  0.1363 -0.0352
32090W        W48564   6.394   4.456  14.125 -0.0350 -0.1260 -0.1328
32091W        W48565   2.627   5.048  13.422 -0.2140  0.0904  0.1831
32092W        W48566   0.636  17.849  11.865 -0.1321  0.1480  0.2900
32093W        W48567   1.310   7.429  13.517 -0.1955 -0.1718  0.1298
32094W        W48568   5.945   5.682  16.234  0.1742 -0.1795  0.3215
32095W        W48569  14.184  11.049  13.344  0.0274  0.0422  0.0296
32096W        W48570   8.470  11.300   4.181 -0.0724  0.0375  0.1943
32097W        W48571  15.538   7.414  15.845  0.1356  0.0011  0.1401
32098W        W48572  14.115   4.254  11.347 -0.1094  0.0485 -0.2666
32099W        W48573   8.031  13.165   2.934 -0.4455 -0.0284 -0.2071
32100W        W48574  13.199   3.539  15.344  0.2002 -0.0502 -0.1566
32101W        W48575  16.986  14.349   2.985  0.1730  0.1692 -0.1492
32102W        W48576   5.407  12.334  15.685 -0.0792  0.1359  0.2867
32103W        W48577  13.779   7.607   3.211  0.0693  0.0091 -0.0524
32104W        W48578   0.509   8.854   4.536 -0.1408  0.0948  0.0736
32105W        W48579  14.404   3.737   4.175 -0.0187  0.0460 -0.0093
32106W        W48580   9.489   6.947   3.481  0.1741 -0.3814  0.0378
32107W        W48581  14.431   7.438   0.310  0.1596 -0.2143  0.1558
32108W        W48582   6.136  15.248   1.395 -0.0692 -0.1936  0.1402
32109W        W48583  17.789   0.724   0.032  0.1539  0.1295  0.3056
32110W        W48584   4.058   2.852   2.228  0.4324 -0.0384  0.3096
32111W        W48585   3.341   9.535   4.081 -0.0682  0.0605  0.1536
32112W        W48586  18.278   8.414  15.783  0.1413  0.3059  0.0530
32113W        W48587   3.195   4.137  14.711  0.2660  0.1255 -0.2139
32114W        W48588  12.334   4.805  15.144  0.0882  0.1160  0.0841
32115W        W48589   8.921   5.525   2.444  0.0304 -0.2490 -0.0116
32116W        W48590  13.243   3.270   1.395 -0.0496  0.0867 -0.0800
32117W        W48591  17.035  12.671   3.031  0.1462 -0.2031  0.1938
32118W        W48592  13.297   6.541  16.195  0.0210 -0.1691 -0.0205
32119W        W48593   3.809   2.315  15.883 -0.0047 -0.3954  0.0318
32120W        W48594   1.598   7.151   3.477  0.3144  0.2137  0.1749
32121W        W48595   2.397   2.208  11.705 -0.2162  0.0729 -0.0138
32122W        W48596   2.637  13.941  13.035  0.1220  0.3324  0.0342
32123W        W48597  15.892   0.881   4.242  0.2975  0.1322  0.0067
32124W        W48598  17.494   5.765  13.864  0.0217 -0.2496 -0.1612
32125W        W48599   4.904  18.040  13.501 -0.2575  0.0404 -0.2580
32126W        W48600  11.877  14.850  16.006 -0.1339  0.1574  0.4173
32127W        W48601   4.638  14.650  13.578 -0.1119  0.0214 -0.6472
32128W        W48602   1.798   0.740   2.608 -0.0421 -0.0148  0.1262
32129W        W48603   1.971  10.842   0.365  0.0752  0.1155  0.2904
32130W        W48604  17.130   1.257  12.711 -0.2035 -0.3638 -0.1518
32131W        W48605   9.620  13.240   5.757 -0.1328 -0.0640  0.2931
32132W        W48606   6.975   8.550  10.537  0.0249  0.0452  0.2172
32133W        W48607   4.532  13.905   1.544  0.0937 -0.2519  0.1675
32134W        W48608  11.149   3.137  15.286  0.0392  0.0520  0.1759
32135W        W48609   0.571  11.648   4.321  0.0186  0.0965 -0.2657
32136W        W48610   3.996   1.317  16.120  0.2070 -0.2244 -0.0473
32137W        W48611  15.773   5.075  13.218  0.0646 -0.1614 -0.1055
32138W        W48612   7.681  13.848   5.103  0.3776 -0.1409  0.0481
32139W        W48613   2.192   7.148  11.952  0.0390  0.0767 -0.1224
32140W        W48614   5.086   9.866  14.682  0.2433 -0.0933  0.0368
32141W        W48615  12.187  17.369  11.668 -0.0560 -0.1526  0.2307
32142W        W48616   2.855   8.435  14.216  0.5812  0.2175 -0.1735
32143W        W48617   5.798   9.468   2.615 -0.5115 -0.1499 -0.0271
32144W        W48618   2.817  11.453  15.341 -0.2762  0.1894 -0.1884
32145W        W48619  12.134  11.790  13.949  0.2041 -0.3983 -0.3706
32146W        W48620   5.792   6.395   1.461  0.2893 -0.3481  0.2134
32147W        W48621   9.633   0.369   1.542  0.0280  0.2963  0.5132
32148W        W48622  15.803   4.870  13.672 -0.1348  0.2108  0.1285
32149W        W48623  14.092   9.151  15.298  0.1160  0.2058  0.0565
32150W        W48624  15.896   0.794  14.514 -0.1081  0.0881 -0.0084
32151W        W48625   6.420   0.604   5.950  0.0044  0.1121  0.2602
32152W        W48626   0.224  14.476  14.776  0.4438  0.1222  0.0090
32153W        W48627  13.257   1.150   5.861  0.3246 -0.3591  0.1592
32154W        W48628  10.194  15.207  15.461  0.0070  0.0592  0.1928
32155W        W48629   1.515  16.678   3.969  0.0169 -0.0201 -0.1055
32156W        W48630   7.365  14.347   4.086 -0.2302 -0.1434 -0.1263
32157W        W48631   3.160   2.899  15.803  0.2627 -0.1125 -0.0721
32158W        W48632  18.042   9.233  12.489 -0.0446 -0.0279  0.0845
32159W        W48633   6.257   3.541  14.145  0.1012  0.2515 -0.1784
32160W        W48634   1.854   1.650   1.419  0.1635  0.1315  0.0691
32161W        W48635   4.600  10.447   1.732  0.0747 -0.0745 -0.1869
32162W        W48636   4.926   3.321   2.376 -0.2425 -0.0330  0.0443
32163W        W48637   7.385   4.894   4.930 -0.0997 -0.1176 -0.0402
32164W        W48638   9.749   7.853  10.970  0.1030  0.2140 -0.0765
32165W        W48639   6.238   9.716   2.549 -0.1509  0.2570 -0.1222
32166W        W48640   6.036  10.815   3.554 -0.0734  0.2094  0.0188
32167W        W48641  17.463  14.956  11.572 -0.1929  0.1230 -0.1741
32168W        W48642   2.630   1.361   5.226 -0.0571  0.0765  0.1519
32169W        W48643   3.837   8.852   2.311  0.1661  0.1156 -0.1862
32170W        W48644   8.897  16.451   5.582 -0.0458 -0.1457 -0.3630
32171W        W48645   1.912  13.329  12.775 -0.0066  0.1272 -0.2067
32172W        W48646  14.755   0.802   3.471  0.2140 -0.2847 -0.0546
32173W        W48647  10.503  12.903  14.880 -0.1614 -0.3185 -0.1871
32174W        W48648   6.504   0.999  14.935  0.0911  0.1853  0.1088
32175W        W48649   0.007   0.604  15.531  0.0689  0.1204 -0.1057
32176W        W48650  10.392  14.180   4.059  0.2573  0.1659  0.0044
32177W        W48651  15.268   9.951   4.950 -0.1122  0.2879  0.0016
32178W        W48652   8.301   9.280  11.680  0.1989  0.0877 -0.3416
32179W        W48653  12.604   0.306  14.003 -0.0694  0.1337 -0.1831
32180W        W48654   0.078  15.210  15.438  0.0388  0.4118  0.1887
32181W        W48655  17.884  18.055   0.763  0.3176 -0.4664 -0.3148
32182W        W48656   4.929   1.708  11.951 -0.0431  0.1125  0.5565
32183W        W48657  15.398  17.510   5.259  0.0880  0.1815  0.0287
32184W        W48658   3.704   8.439  14.798 -0.0201 -0.1178 -0.1161
32185W        W48659  11.409   8.502   4.720  0.6917 -0.0229  0.1285
32186W        W48660   2.589  10.841  12.084 -0.0177 -0.2295  0.0136
32187W        W48661  12.534  17.908   5.057 -0.2846 -0.1588  0.0988
32188W        W48662  12.775  11.946   1.453  0.0682  0.2154  0.1069
32189W        W48663   8.022  10.119   4.463 -0.3247 -0.0191 -0.4231
32190W        W48664   9.755   8.908   4.019 -0.1965  0.2462 -0.1855
32191W        W48665   5.204  15.943   4.010 -0.1144 -0.1131 -0.0139
32192W        W48666  13.401   9.095   3.118  0.0676 -0.0536 -0.0705
32193W        W48667   1.676   9.317   0.347  0.1299  0.2080  0.1949
32194W        W48668   5.983  12.769  14.581  0.0105 -0.0180  0.2624
32195W        W48669  16.600  14.965   1.028 -0.1504  0.1855  0.0014
32196W        W48670   3.390   0.356  11.852 -0.1210  0.4502 -0.1404
32197W        W48671   5.353   0.297   3.130 -0.0663  0.2197 -0.1177
32198W        W48672   7.968  17.598  12.981  0.1093 -0.0740  0.0887
32199W        W48673  16.725   1.883  13.191 -0.0326  0.0218 -0.4117
32200W        W48674   2.532  14.450  12.409 -0.1153  0.2439  0.2514
32201W        W48675  16.407   3.793   5.108  0.1717  0.0712 -0.0083
32202W        W48676  11.860   5.762   4.580 -0.1088 -0.0547  0.3781
32203W        W48677  10.319  11.041  13.941  0.3146 -0.1172 -0.3399
32204W        W48678   8.384   1.750  15.835 -0.1511 -0.0469 -0.0251
32205W        W48679   7.018   5.261  12.349 -0.1019  0.0534  0.2194
32206W        W48680  18.294  10.091   3.257  0.1089 -0.0198 -0.0904
32207W        W48681   0.151   0.117  15.324 -0.1103 -0.0569 -0.1988
32208W        W48682   4.273  16.442  12.656 -0.1853  0.0579  0.1756
32209W        W48683  12.904   6.729   3.154  0.1845 -0.1217 -0.3592
32210W        W48684   7.588  17.176   2.580  0.1349 -0.0888 -0.0945
32211W        W48685  12.269  14.392   5.107 -0.3718  0.3306  0.4354
32212W        W48686   7.328   0.779   2.921  0.0493 -0.0510 -0.0621
32213W        W48687  15.048   8.195  12.522  0.0326 -0.1990 -0.2552
32214W        W48688   0.458  12.448   4.465 -0.2530 -0.0514 -0.0931
32215W        W48689   3.493   5.231   3.554  0.1042  0.1846 -0.2431
32216W        W48690  16.848  16.417  11.497  0.2595  0.0369 -0.1410
32217W        W48691  17.941   3.080   1.498 -0.1492  0.0396 -0.1264
32218W        W48692  15.130   9.197  14.392  0.1621 -0.1091 -0.1622
32219W        W48693   5.366   0.796   3.123  0.1080 -0.0571 -0.5483
32220W        W48694  15.534   8.900  14.601 -0.0887  0.0507 -0.0039
32221W        W48695  13.356  13.281   2.575 -0.1402 -0.1590 -0.1539
32222W        W48696  12.877   1.181   0.965  0.0021  0.0718 -0.0823
32223W        W48697  15.480  16.329   1.145 -0.0622 -0.2392  0.3374
32224W        W48698   2.075  15.849  16.122 -0.1504 -0.0993  0.0111
32225W        W48699   4.850   3.929   3.342 -0.0892 -0.0719 -0.2388
32226W        W48700  17.265   2.210  14.529 -0.0409  0.1271 -0.2276
32227W        W48701   2.865  13.247  13.003 -0.0075 -0.4215  0.0854
32228W        W48702  12.976  10.823  10.900 -0.1913  0.1784  0.3236
32229W        W48703  14.283   3.865  13.147 -0.1332 -0.1462  0.1803
32230W        W48704  13.703   2.931   3.958 -0.1075 -0.4389  0.1992
32231W        W48705   4.189  15.028   3.519  0.4389  0.0346 -0.0604
32232W        W48706   8.882  10.686   0.850  0.0202  0.0042  0.2066
32233W        W48707   6.725  17.463  13.720  0.0554  0.1084  0.0557
32234W        W48708   3.160  14.052  15.025  0.0723  0.0612 -0.0007
32235W        W48709   4.921  12.056   3.577  0.1464  0.3652 -0.2220
32236W        W48710  18.376   6.002   0.499 -0.2782  0.2152 -0.0121
32237W        W48711   5.887   0.390  14.457  0.0045 -0.1406  0.0781
32238W        W48712   9.870  14.016   1.871  0.3560  0.1929  0.1696
32239W        W48713  11.554   5.516  15.128  0.2102  0.0730  0.2228
32240W        W48714   3.131   1.676  13.224 -0.1159  0.2469  0.1436
32241W        W48715   7.483   4.711  11.567  0.3941  0.2231 -0.1595
32242W        W48716  13.396   9.155  14.871 -0.0067  0.1954  0.3361
32243W        W48717   2.296  13.264   2.138 -0.0451  0.1802  0.2235
32244W        W48718  17.001  11.727  11.954 -0.3722  0.0428 -0.0410
32245W        W48719  17.987   8.368   4.488  0.1166  0.2893 -0.0576
32246W        W48720   8.685   8.562  13.165 -0.0131  0.0672  0.1945
32247W        W48721  13.090  14.131   2.058  0.1247  0.0135  0.1003
32248W        W48722  14.888  15.585  16.289 -0.0347  0.1083 -0.1701
32249W        W48723   8.812  15.923   5.502  0.0292 -0.2068 -0.0823
32250W        W48724  13.085   7.486   5.278  0.2202  0.1012 -0.0792
32251W        W48725   5.889  12.106  12.258 -0.2452  0.1914  0.0220
32252W        W48726   6.315   6.098  13.875  0.3383  0.0626  0.1669
32253W        W48727   7.557  10.724  12.138  0.1760  0.0972  0.2600
32254W        W48728   3.001   1.304   0.621  0.4617  0.0145 -0.0375
32255W        W48729   9.795  18.073   2.527  0.1039 -0.0347  0.2515
32256W        W48730   4.629  12.916  13.728 -0.2326 -0.1442  0.2714
32257W        W48731   4.099  14.186   1.796 -0.2313  0.3193  0.1629
32258W        W48732   3.600   1.907  14.180 -0.4278  0.4102 -0.0005
32259W        W48733   1.839  12.470  12.735 -0.3051  0.1110  0.1026
32260W        W48734   0.875   3.410  13.846  0.0730  0.0323 -0.2997
32261W        W48735  14.144   5.899  16.119  0.1938  0.1885 -0.2485
32262W        W48736   8.400  14.320  15.717  0.2971  0.2922  0.1499
32263W        W48737  17.955   8.725  15.566  0.0703  0.0762  0.0493
32264W        W48738   1.818   3.430   1.690 -0.0951  0.0253 -0.1142
32265W        W48739  12.969  17.950   3.428  0.1304 -0.3012 -0.1724
32266W        W48740  15.060   0.215  11.708 -0.1507  0.4438  0.2761
32267W        W48741   5.991   8.590   1.449 -0.2607  0.2322  0.0545
32268W        W48742  18.396   9.687   0.145 -0.0078  0.2351  0.1108
32269W        W48743  15.733   9.809  13.332  0.0134 -0.4357  0.1333
32270W        W48744   4.286  10.829  12.722  0.1483 -0.0576 -0.2222
32271W        W48745  13.820   8.844  14.861 -0.2419 -0.1294 -0.2309
32272W        W48746  14.902  17.298   3.050 -0.0565  0.0358 -0.0502
32273W        W48747   1.884  15.551   4.959  0.1332  0.1744 -0.2898
32274W        W48748  15.872   4.229   2.628 -0.0864 -0.0724  0.0076
32275W        W48749   5.498   9.573  14.708  0.2222 -0.1648 -0.2699
32276W        W48750   2.905   3.634   0.227  0.1821 -0.0359  0.4307
32277W        W48751   7.265  10.572   3.654  0.0787 -0.0700  0.3063
32278W        W48752  14.469  14.216   2.807 -0.0078  0.0597 -0.0877
32279W        W48753   3.144  10.906  13.318 -0.0990 -0.2346 -0.0262
32280W        W48754   6.940   0.565   1.680 -0.0089  0.0005  0.1127
32281W        W48755   7.509  10.834   3.307  0.4120 -0.0640  0.0035
32282W        W48756  13.257   8.228   3.969 -0.1103  0.4830 -0.1021
32283W        W48757  18.386   8.746  12.422 -0.0004 -0.2194  0.0395
32284W        W48758  13.338   1.917   3.245 -0.0330  0.1859  0.1384
32285W        W48759   5.527   7.563   2.792  0.0904  0.2052 -0.0855
32286W        W48760   3.474  15.204  15.642  0.1457  0.1090 -0.0236
32287W        W48761  15.501   7.623   0.417 -0.1271  0.0215  0.0947
32288W        W48762  15.683  17.813  16.135  0.0746  0.1664  0.0885
32289W        W48763   0.409   8.207   5.645 -0.0582  0.0155  0.3629
32290W        W48764  17.051   8.801  11.509  0.0857  0.0306  0.1292
32291W        W48765  17.272  17.591   5.347 -0.4773  0.1202 -0.0056
32292W        W48766   0.876   3.686  14.289 -0.2619  0.1621 -0.0840
32293W        W48767   1.065   5.572   4.888 -0.0296  0.0472  0.1018
32294W        W48768   5.309  13.975   2.590  0.0795  0.1460  0.1436
32295W        W48769  14.024   6.345   4.153 -0.3873  0.3884 -0.3190
32296W        W48770  14.822   2.196  15.777  0.0981 -0.1095 -0.0354
32297W        W48771   9.914  17.334   4.382  0.0103  0.1866  0.1577
32298W        W48772   9.024  11.509  14.697 -0.0432 -0.0810  0.0507
32299W        W48773   6.083   3.685   1.509  0.2296  0.0052 -0.0148
32300W        W48774  11.347  15.915   4.367  0.2110  0.2858  0.0240
32301W        W48775  11.610   4.477  15.948 -0.2103  0.4377 -0.2412
32302W        W48776  12.808  10.034   1.345  0.3508  0.1671  0.0328
32303W        W48777  12.825  14.789  15.100 -0.0961  0.1898 -0.0878
32304W        W48778  10.821  13.349  12.883 -0.2820  0.2094  0.1723
32305W        W48779  16.589   1.155   0.504 -0.0285  0.0004 -0.1340
32306W        W48780  17.106   6.200   1.037  0.2868  0.0786 -0.3297
32307W        W48781   9.088  13.670  14.653 -0.1274 -0.0163 -0.0807
32308W        W48782   1.064  16.207  15.491 -0.0155 -0.1177  0.2984
32309W        W48783   7.492   6.540  12.130 -0.2392 -0.1270 -0.0254
32310W        W48784   5.227   8.200  16.324  0.1762  0.2294  0.1662
32311W        W48785  11.642  14.056  11.399  0.2599 -0.2919 -0.2113
32312W        W48786  16.336   4.292  15.471  0.1158 -0.0467 -0.2117
32313W        W48787  13.188  12.858  14.748  0.0675 -0.0931 -0.2020
32314W        W48788   1.298   0.342  15.685 -0.3163 -0.0336  0.5302
32315W        W48789   8.469   1.959   1.091 -0.0846  0.1739  0.2081
32316W        W48790  10.714  15.836  15.831  0.1264  0.2569  0.2145
32317W        W48791   7.360   2.955   5.303 -0.3008 -0.0463  0.1588
32318W        W48792   3.167  16.614   1.178  0.1941  0.1333 -0.3572
32319W        W48793   5.236  11.049   5.917  0.2424 -0.1624  0.3329
32320W        W48794   7.317   5.930   2.276  0.0161 -0.1361  0.1022
32321W        W48795   1.924   7.785  13.694  0.3212 -0.0207 -0.0713
32322W        W48796   1.978  17.961   0.980  0.4450  0.0947 -0.1908
32323W        W48797   3.480   4.831   2.123  0.0213 -0.5906  0.5026
32324W        W48798  13.768   8.106   3.098 -0.1100  0.0398  0.1383
32325W        W48799   3.680   1.915   1.025  0.3166 -0.2863  0.1491
32326ION     NA48800   9.987  17.361   1.032 -0.0097  0.1128 -0.2158
32327ION     NA48801   5.912   4.695   6.050  0.0800 -0.0572  0.1252
32328ION     NA48802  16.123   4.460   5.645  0.1110  0.0761 -0.1805
32329ION     NA48803   4.058   6.115   4.830 -0.2146 -0.5369 -0.1433
32330ION     NA48804   8.833  17.531  11.054  0.0121  0.0126 -0.0833
32331ION     NA48805  10.505   7.290   3.859 -0.3124 -0.1626  0.0752
32332ION     NA48806  11.516   5.793   9.743  0.0578  0.0334 -0.1127
32333ION     NA48807   6.096   6.244   5.352  0.2035 -0.0569  0.0408
32334ION     NA48808  10.747   7.790   9.613 -0.1688 -0.0238  0.0771
32335ION     NA48809  15.141   4.583   9.616 -0.1770 -0.1712  0.0022
32336ION     NA48810   6.642   4.424   5.375  0.4884 -0.2094 -0.2466
32337ION     NA48811  10.143  14.501  10.664 -0.0967  0.1797  0.1378
32338ION     NA48812   5.715  17.255  10.934 -0.0671 -0.2811  0.1426
32339ION     NA48813   4.906   4.506  10.541 -0.0254  0.1411 -0.0081
32340ION     NA48814   1.258  17.828   6.102  0.1296  0.1576 -0.2164
32341ION     NA48815   1.588  17.264  11.044  0.1428 -0.0621 -0.2657
32342ION     NA48816  11.459  13.226  10.770  0.2280  0.0440  0.2041
32343ION     NA48817   4.574   3.592  15.651 -0.3946  0.1262  0.1903
32344ION     NA48818   5.441   8.696  10.281  0.4642 -0.0255  0.0261
32345ION     NA48819   2.103   4.148  11.230 -0.0117  0.2387 -0.2591
32346ION     NA48820  18.387   8.072  10.228  0.1533 -0.0367 -0.4119
32347ION     NA48821   6.364   0.844  13.152 -0.1471  0.2348  0.1210
32348ION     NA48822   7.467  17.646  11.420  0.0771  0.2065  0.0313
32349ION     NA48823  14.765   2.652  10.322 -0.4244  0.1826  0.0262
32350ION     NA48824  12.062  17.389  10.801 -0.2695  0.1114  0.0575
32351ION     NA48825   6.573   4.321  10.450 -0.4521 -0.2735 -0.1003
32352ION     NA48826   5.093  17.917   5.000  0.0465  0.2363 -0.1136
32353ION     NA48827   5.300  17.904  10.883  0.3039  0.2320  0.3496
32354ION     NA48828   5.753   3.713   6.073  0.0562 -0.0666 -0.0518
32355ION     NA48829  10.373   4.634  10.002 -0.0641  0.0310  0.1715
32356ION     NA48830  14.030   0.070  15.977  0.1141 -0.1223 -0.0532
32357ION     NA48831  17.348  10.628   9.852  0.1831 -0.1535 -0.2057
32358ION     NA48832   4.189   9.992   6.036 -0.1106 -0.1382  0.1015
32359ION     NA48833  10.302   2.335   2.544  0.1406 -0.0972 -0.0670
32360ION     NA48834   3.505  18.163  11.098  0.0739  0.0379 -0.0678
32361ION     NA48835   6.975   7.455  10.417  0.1512  0.1014 -0.1095
32362ION     NA48836  14.002   7.056  10.023 -0.3135 -0.0155 -0.2694
32363ION     NA48837   4.891   7.035  10.201 -0.1337  0.1539 -0.1333
32364ION     NA48838   1.259   7.860   5.727 -0.3108 -0.1965 -0.1225
32365ION     NA48839   6.328  12.046  10.860  0.0382  0.1188 -0.0326
32366ION     NA48840   5.328  14.651  11.224  0.0562  0.3210  0.3270
32367ION     NA48841   9.931  15.909   4.189 -0.3331  0.1819  0.1310
32368ION     NA48842   0.746  11.401  10.513  0.0587 -0.0828 -0.2046
32369ION     NA48843   5.077  13.563   1.620  0.0922 -0.2118  0.0744
32370ION     NA48844  10.241   3.220  10.226  0.1380 -0.0244  0.1412
32371ION     NA48845  10.361  17.621  10.820 -0.0551 -0.1621 -0.0435
32372ION     NA48846  14.489   1.795  13.844 -0.0907 -0.0441  0.0739
32373ION     NA48847   0.149  13.227  10.806  0.1164  0.0276  0.2529
32374ION     NA48848  16.092  18.389  10.699  0.3875 -0.1830 -0.0184
32375ION     NA48849   4.781   7.977  10.512 -0.0230  0.1179 -0.0470
32376ION     NA48850  14.342   4.091   9.512 -0.1497  0.1954  0.0586
32377ION     NA48851  15.032   5.519   5.070  0.0463 -0.1306  0.0988
32378ION     NA48852   4.776   3.546   6.063  0.1298  0.0740  0.1502
32379ION     NA48853   5.692  10.257   0.950 -0.0976 -0.0799 -0.0536
32380ION     NA48854  16.723   0.481  10.663  0.1049  0.1201  0.1363
32381ION     NA48855  10.271   7.698   9.724 -0.1877  0.1937  0.1365
32382ION     NA48856   7.019  11.256   5.674  0.1358 -0.0462 -0.1762
32383ION     NA48857  17.523  17.171   5.209 -0.0189 -0.0354 -0.1287
32384ION     NA48858   2.675  16.084  11.130 -0.0450  0.1913 -0.0566
32385ION     NA48859  16.254   6.580   1.094 -0.1606  0.3365  0.1516
32386ION     NA48860  13.634  12.061  10.391  0.1873  0.0366  0.0766
32387ION     NA48861   1.434   8.632  10.357 -0.2179  0.2866  0.0342
32388ION     NA48862   0.069   2.453  11.786 -0.2154  0.0858  0.0920
32389ION     NA48863   7.253  11.608  10.494 -0.1357 -0.1950  0.0893
32390ION     NA48864   1.564   6.005   2.661 -0.0456  0.1183 -0.2269
32391ION     NA48865  12.170  18.155  10.756 -0.4312 -0.0453  0.0002
32392ION     NA48866   2.676   0.349  10.956  0.0195 -0.0556  0.0588
32393ION     NA48867  11.077   4.728   0.459  0.1268  0.1912 -0.1954
32394ION     NA48868  11.497  10.073   5.195 -0.0092 -0.2202  0.0691
32395ION     NA48869   0.383   4.753  16.216  0.1140  0.0898  0.1203
32396ION     NA48870  17.623  12.719  12.904  0.1977 -0.0564 -0.1804
32397ION     NA48871  16.439  16.093  13.217 -0.0949  0.0677 -0.1209
32398ION     NA48872   4.683   8.795   5.620 -0.2821 -0.1467  0.0406
32399ION     NA48873  11.222  18.043  10.620  0.2038  0.3065  0.0829
32400ION     NA48874  16.177   3.218  13.019  0.1614  0.3633 -0.2423
32401ION     NA48875  17.875   5.117  10.264 -0.1490  0.4100  0.0751
32402ION     NA48876  15.520   6.403   9.966  0.4191  0.1570 -0.0088
32403ION     NA48877  14.582   4.251  14.449 -0.2378  0.0286  0.1142
32404ION     NA48878   6.951   8.364  10.070  0.1275  0.1082  0.3526
32405ION     NA48879   4.798  17.099  10.995 -0.1516  0.1860  0.0789
32406ION     NA48880  12.429  16.081  14.049  0.1587  0.0057 -0.0877
32407ION     NA48881  10.821   5.484   9.862  0.0666 -0.0227 -0.3517
32408ION     NA48882  13.357   3.924  15.663 -0.1579 -0.1878  0.0981
32409ION     NA48883   5.871  13.210   0.795  0.4893  0.1405 -0.1716
32410ION     NA48884   0.937   7.937  10.462 -0.2507  0.0868 -0.0449
32411ION     NA48885  13.360   3.480  12.498 -0.2591 -0.1029  0.1330
32412ION     NA48886   7.495  16.354  10.985 -0.1787  0.0250 -0.0109
32413ION     NA48887   0.615   9.063   9.988  0.0730  0.1589 -0.6419
32414ION     NA48888  10.084  11.941  10.047 -0.0931  0.2203 -0.2982
32415ION     NA48889  11.064   6.525   9.989 -0.1892 -0.3976 -0.0128
32416ION     NA48890   6.496  12.709   0.481 -0.3537  0.1643  0.0447
32417ION     NA48891  17.512   4.317  10.447  0.2193  0.4831  0.0013
32418ION     NA48892  11.125   4.792   5.404 -0.2802  0.2624  0.1254
32419ION     NA48893  14.906   5.542  14.610  0.1565  0.3217  0.1178
32420ION     NA48894   6.056  10.564  10.531 -0.4373 -0.1250  0.0928
32421ION     NA48895   1.731  17.942  13.708 -0.2184  0.1531 -0.2725
32422ION     NA48896   2.392   6.237   5.928 -0.1275 -0.0145  0.0091
32423ION     NA48897   8.190  12.494   6.117  0.0557 -0.0498 -0.4458
32424ION     NA48898   0.288   4.263  10.984  0.3580 -0.1301  0.0135
32425ION     NA48899   3.273   6.270   3.231  0.1050  0.1193 -0.0649
32426ION     NA48900   3.921  17.250  10.834  0.0957 -0.2097  0.3133
32427ION     NA48901   9.042  16.731  10.723  0.0246  0.6126 -0.1010
32428ION     NA48902  13.299   9.992   5.751  0.0728 -0.0398 -0.0829
32429ION     NA48903  14.717  17.168   6.387  0.1666  0.1226  0.2968
32430ION     NA48904   0.555  12.515   1.632 -0.1746  0.3239 -0.2829
32431ION     NA48905  14.176   2.273   5.444 -0.0853 -0.1995  0.0068
32432ION     NA48906   7.051  10.653  10.354 -0.1475 -0.0317 -0.1947
32433ION     NA48907   1.374   0.283  11.150  0.1103  0.0886  0.2045
32434ION     NA48908   2.620   9.049   5.743  0.2208  0.4281  0.3586
32435ION     NA48909   4.241   0.726  11.599 -0.1080 -0.0361  0.1570
32436ION     NA48910   5.776  10.548  15.154  0.3469  0.0681 -0.1301
32437ION     NA48911  18.077   3.587  10.565  0.0126 -0.1567 -0.0828
32438ION     NA48912   8.322  16.843  11.059  0.0352 -0.1147 -0.3366
32439ION     NA48913   7.237   5.786  10.268  0.1391  0.0084 -0.0672
32440ION     NA48914   7.429   8.213  15.897  0.3726  0.1101 -0.1327
32441ION     NA48915  16.342  11.552  10.298 -0.0689  0.1599  0.0558
32442ION     NA48916   2.849  17.024   0.251 -0.3233  0.0859 -0.1655
32443ION     NA48917   4.905   0.348  11.001  0.1524  0.0700  0.3996
32444ION     NA48918   2.611   6.031  10.450  0.0863  0.0603 -0.2287
32445ION     NA48919   1.852  11.123  10.562  0.0420  0.1326  0.0627
32446ION     NA48920   3.973   0.125   2.799 -0.0714 -0.0616  0.1275
32447ION     NA48921  16.969  12.213  10.297  0.1492  0.1744  0.1585
32448ION     NA48922   3.654  18.253   6.622  0.1111 -0.2622 -0.0659
32449ION     NA48923  13.484   3.124  10.101  0.4431  0.1748 -0.0362
32450ION     NA48924  10.909   3.794  10.076 -0.0110 -0.2447 -0.3336
32451ION     NA48925   8.750   2.484  10.637  0.2255  0.0029 -0.1290
32452ION     NA48926  17.676  15.597   5.878 -0.1821 -0.1952  0.1237
32453ION     NA48927   0.548   4.054  10.644  0.0790  0.1557  0.2500
32454ION     NA48928   2.763  10.239  13.853  0.1432 -0.0171  0.1439
32455ION     NA48929   0.185  10.234  10.352  0.1366 -0.0857 -0.0306
32456ION     NA48930   0.219   4.244  12.028  0.0944  0.3520  0.0753
32457ION     NA48931  14.103   1.450  10.407 -0.0841  0.1999 -0.0516
32458ION     NA48932   3.602  15.165  10.912  0.1097  0.1660 -0.0021
32459ION     NA48933   6.393  16.542   0.862  0.0734  0.2311  0.0259
32460ION     NA48934  16.950   9.384   0.287 -0.0958 -0.1000 -0.0759
32461ION     NA48935   4.429  17.974  10.912  0.1440 -0.1125  0.0203
32462ION     NA48936  11.975   9.344  15.890  0.0987 -0.1409  0.0835
32463ION     NA48937   9.905  16.724   5.780 -0.1313  0.2072  0.1563
32464ION     NA48938  17.531   0.711   5.975 -0.0213  0.3599 -0.1382
32465ION     NA48939   0.155   4.835  10.637 -0.0697 -0.2068 -0.0937
32466ION     NA48940   7.977   0.027   6.294  0.1417  0.1534  0.2012
32467ION     NA48941   3.811   2.727  10.828  0.1333  0.0160  0.1713
32468ION     NA48942   6.219   2.183  10.807  0.1448  0.1235  0.2151
32469ION     NA48943   7.240   2.994  10.775  0.0975  0.0493 -0.0879
32470ION     NA48944  15.452   1.862   5.575 -0.3348  0.0245 -0.1144
32471ION     NA48945  14.331   8.124   9.788 -0.0687 -0.0902 -0.0346
32472ION     NA48946   3.203  15.291   0.970 -0.0256 -0.1254  0.0224
32473ION     NA48947  13.648   4.460   5.233  0.1100 -0.5136  0.1507
32474ION     NA48948   3.571  14.310  10.887 -0.2261  0.0286  0.1397
32475ION     NA48949   7.597   3.865  10.556  0.0307  0.1013 -0.2806
32476ION     NA48950   5.892   9.776  15.108  0.1518 -0.1205  0.2005
32477ION     NA48951  17.487   5.665  13.369 -0.1813 -0.2035  0.1591
32478ION     NA48952  13.179   1.567  10.384  0.0684 -0.2593 -0.1241
32479ION     NA48953   9.762   0.042  10.603  0.1336 -0.1627 -0.2083
32480ION     NA48954   4.734   8.943   3.725 -0.1934 -0.2206 -0.5260
32481ION     NA48955  17.732  14.051  10.610 -0.0489 -0.1300 -0.1711
32482ION     NA48956  16.012  17.611  13.938 -0.0496  0.2298 -0.1270
32483ION     NA48957   5.285  10.207  10.541 -0.0639 -0.3976 -0.1607
32484ION     NA48958  16.358   2.846   3.154  0.0873 -0.0977 -0.3850
32485ION     NA48959  16.959   8.428   0.605 -0.1444 -0.0793  0.0220
32486ION     NA48960   0.074   8.323  15.323 -0.0534 -0.1247  0.1036
32487ION     NA48961  13.013   0.189  10.659 -0.3670  0.0838  0.0889
32488ION     NA48962  11.591   3.853   2.915 -0.1617  0.1082 -0.2700
32489ION     NA48963   8.207  17.248  16.226  0.3826  0.2071  0.0445
32490ION     NA48964   6.536   0.357  10.779 -0.2517  0.1840 -0.0351
32491ION     NA48965  15.603   3.170   5.306  0.0952 -0.0635 -0.0206
32492ION     NA48966   1.438  14.581  10.768  0.2965 -0.0250  0.2781
32493ION     NA48967   8.113  10.527   5.928  0.0331 -0.0588  0.2728
32494ION     NA48968   8.182  14.586   1.760 -0.2775 -0.0246  0.0763
32495ION     NA48969  10.375  15.282  10.857 -0.1123  0.1146 -0.4346
32496ION     NA48970   1.525   3.567  10.700  0.0387  0.0645  0.1578
32497ION     NA48971  12.136  14.611  15.401 -0.0728 -0.2845 -0.3226
32498ION     NA48972   7.413  17.527   0.604  0.0847  0.2148 -0.0596
32499ION     NA48973  17.515   2.856   5.965 -0.1216 -0.1981 -0.1054
32500ION     NA48974  18.155   6.112  10.257  0.0244 -0.1862 -0.1079
32501ION     NA48975  12.865   4.151  10.362  0.0058 -0.1842 -0.0166
32502ION     NA48976  13.705  16.957  10.594  0.0138  0.2892  0.3370
32503ION     NA48977  14.141   7.021   1.076 -0.1520 -0.2410 -0.1583
32504ION     NA48978  12.101  13.447  11.290  0.0772  0.0492 -0.2298
32505ION     NA48979   9.923   5.328  14.437  0.1486  0.3789 -0.1602
32506ION     NA48980   3.528   7.618  10.313  0.0674 -0.2680 -0.1101
32507ION     NA48981  10.394   3.355  14.151 -0.2371 -0.1995  0.4118
32508ION     NA48982   7.526  18.302   4.332 -0.0161 -0.0535 -0.0609
32509ION     NA48983   2.415  11.849  10.810  0.3302 -0.0227 -0.2343
32510ION     NA48984  13.171   6.863  13.810 -0.3394  0.0273 -0.0254
32511ION     NA48985   9.343  10.159   9.963  0.1732  0.2283 -0.1117
32512ION     NA48986  11.711  13.896   6.121  0.0628  0.1852  0.0186
32513ION     NA48987   0.775  16.134  10.884  0.0143 -0.0146 -0.0382
32514ION     NA48988   0.012  14.690  10.647  0.0785 -0.0427  0.0874
32515ION     NA48989   1.137   2.567  10.671  0.0888 -0.1559 -0.0583
32516ION     NA48990   7.599  11.303   5.686 -0.0862 -0.2090  0.2724
32517ION     NA48991  12.905  16.287   0.497 -0.2159 -0.0389  0.0168
32518ION     NA48992   0.198   2.804   5.958 -0.1386 -0.0446  0.1700
32519ION     NA48993   2.869  12.653  10.832 -0.2765 -0.0231 -0.1939
32520ION     NA48994  16.019  10.316   9.781 -0.2962  0.0482  0.1365
32521ION     NA48995   8.045  13.226  10.967 -0.0165 -0.2038 -0.3328
32522ION     NA48996   0.711  15.297  10.871 -0.0034 -0.2480  0.0942
32523ION     NA48997  17.545  13.630  10.387  0.0242  0.0099  0.0758
32524ION     NA48998   2.643   9.340  12.443  0.2666  0.1965 -0.3473
32525ION     NA48999  17.250  15.830   5.197  0.1514 -0.1053 -0.1040
32526ION     NA49000   3.051  17.512  14.324 -0.0131  0.1196 -0.1863
32527ION     NA49001   5.986  14.544  10.733 -0.0337  0.0851  0.2613
32528ION     NA49002   9.400   7.049   9.982 -0.1416  0.3407 -0.2651
32529ION     NA49003   4.997  10.729  10.731 -0.0643  0.1297 -0.0251
32530ION     NA49004   1.959   0.585  11.112 -0.0929 -0.0294  0.0605
32531ION     NA49005  14.361   0.871   5.440 -0.2169  0.1435 -0.0629
32532ION     NA49006  10.575   8.802   3.486 -0.0905  0.4808  0.1167
32533ION     NA49007   9.898   7.772   5.326 -0.4095 -0.3030 -0.1935
32534ION     NA49008   1.796   9.026   6.032 -0.0642 -0.2466 -0.0616
32535ION     NA49009   4.971  13.291  11.015 -0.3271 -0.1482 -0.2207
32536ION     NA49010   1.581   7.547   0.574  0.2234 -0.0677 -0.0087
32537ION     NA49011  12.434   2.338  10.261  0.0995 -0.1675 -0.2679
32538ION     NA49012   7.531   3.850   2.251 -0.0063  0.0109  0.0726
32539ION     NA49013   4.734  14.173  10.780  0.0072  0.0878  0.0463
32540ION     NA49014   0.632   7.774   5.728 -0.0005 -0.0287  0.1262
32541ION     NA49015  16.150   2.502  10.248  0.0816  0.1855  0.0279
32542ION     NA49016   0.614   9.568   0.145  0.0571 -0.0658 -0.0048
32543ION     NA49017  12.262   1.852  10.250 -0.0989  0.0665  0.3426
32544ION     NA49018   3.238  14.324   6.533  0.0440 -0.1390  0.2261
32545ION     NA49019  11.650  16.601  10.994 -0.0607  0.0427 -0.1379
32546ION     NA49020  10.949  14.559  10.468 -0.0986 -0.1175  0.2192
32547ION     NA49021  16.741  12.070  11.711 -0.1129  0.0943  0.1468
32548ION     NA49022  14.266  17.701  10.849  0.0461  0.0326  0.2334
32549ION     NA49023  15.983  13.030   2.752 -0.0263 -0.1335  0.1140
32550ION     NA49024   3.715   1.906  11.078  0.2466  0.0615 -0.0962
32551ION     NA49025   1.711   2.035  10.902 -0.0437 -0.3898 -0.0568
32552ION     NA49026  12.761  17.712   5.536 -0.3833 -0.0776  0.0990
32553ION     NA49027  14.991  10.758  12.749  0.3701 -0.2443 -0.0788
32554ION     NA49028   5.068   5.594  11.836 -0.1537 -0.3070 -0.1683
32555ION     NA49029   4.887   3.767  14.645 -0.2536 -0.2285  0.0244
32556ION     NA49030  16.172  13.744   4.065  0.3573  0.1353  0.4261
32557ION     NA49031   0.407  18.284   6.074  0.1780 -0.1216 -0.2502
32558ION     NA49032  10.345  16.880  10.716  0.1638  0.0605 -0.1708
32559ION     NA49033  14.856   6.382  12.372 -0.1929  0.2131 -0.0322
32560ION     NA49034  14.142  14.140  10.623  0.2956 -0.2195  0.0395
32561ION     NA49035   0.272   6.518   2.788  0.0574 -0.2960 -0.0030
32562ION     NA49036   2.363   1.337  10.819 -0.0473  0.1776 -0.1510
32563ION     NA49037   3.834   7.987  10.526 -0.3642 -0.0970 -0.2807
32564ION     NA49038  12.889   9.442   9.930 -0.3276 -0.1485 -0.0843
32565ION     NA49039   5.980  15.426  14.837  0.2530 -0.1399 -0.0401
32566ION     NA49040   8.925   5.798  10.954 -0.2340 -0.1049 -0.1478
32567ION     NA49041  15.528   5.723  13.794 -0.0696 -0.1650 -0.3259
32568ION     NA49042  13.553   5.800   9.899  0.2722 -0.0493 -0.0472
32569ION     NA49043  16.035   7.355   9.961 -0.0412  0.0702 -0.1896
32570ION     NA49044  12.015   8.927   9.857 -0.0708 -0.0647 -0.0185
32571ION     NA49045   4.025   9.718  10.643  0.0353  0.0320  0.2734
32572ION     NA49046   1.609   6.681  10.558 -0.0923 -0.0947  0.0990
32573ION     NA49047  13.196   5.140   9.565  0.2006  0.0769  0.4483
32574ION     NA49048  16.347   9.927   1.958  0.3046  0.1866  0.0943
32575ION     NA49049   4.261   5.154   1.041 -0.4242  0.4079  0.1005
32576ION     NA49050   3.414   6.695  10.429  0.0766 -0.0329 -0.2103
32577ION     NA49051   3.315   5.004  10.663 -0.2110 -0.2712 -0.0879
32578ION     NA49052   9.951   4.047  10.191  0.1295  0.0539 -0.1034
32579ION     NA49053  14.804   6.845   9.832 -0.0827  0.0734 -0.0168
32580ION     NA49054   7.247   1.642   6.123 -0.1774  0.1037  0.1372
32581ION     NA49055  16.141  12.416  10.222 -0.2304 -0.2562  0.1623
32582ION     NA49056  11.318  14.621  14.685 -0.3345  0.4263 -0.1301
32583ION     NA49057   0.587  12.476  10.872 -0.1674 -0.0565  0.1407
32584ION     NA49058  17.483   1.154   2.901  0.3057 -0.3507 -0.2071
32585ION     NA49059  13.745  15.415  10.598  0.2978  0.0539  0.1249
32586ION     NA49060  14.314   1.678   0.026  0.4126 -0.2015 -0.0168
32587ION     NA49061  14.500  12.970  10.661 -0.0906  0.1886  0.0620
32588ION     NA49062   4.381   0.430   4.408  0.2562 -0.0847 -0.1221
32589ION     NA49063  12.681   9.069   4.344 -0.1649 -0.2192 -0.0267
32590ION     NA49064  15.830  16.670  10.885 -0.2756  0.0928 -0.1087
32591ION     NA49065  13.451   0.846  10.525  0.1071  0.2154 -0.3006
32592ION     NA49066   6.277   9.865   1.993 -0.1261 -0.0782  0.4643
32593ION     NA49067   2.198   7.360  11.420  0.2716 -0.2291  0.0472
32594ION     NA49068  11.804  11.615  10.167  0.1457  0.1170 -0.0436
32595ION     NA49069   2.256   0.942  15.422 -0.0111  0.1730  0.2247
32596ION     NA49070   3.299   9.347  10.366  0.4441  0.3087  0.3183
32597ION     NA49071   4.993  16.334  11.079 -0.1134  0.1411 -0.0585
32598ION     NA49072   5.258   1.118  11.000 -0.1021  0.1689 -0.0867
32599ION     NA49073  11.579   8.030   0.984 -0.1047  0.0636 -0.1751
32600ION     NA49074   8.682  17.827  14.198  0.0460  0.2024  0.2011
32601ION     NA49075  10.226  14.073  14.210 -0.1254 -0.0045  0.1244
32602ION     NA49076  15.216   0.434  10.665  0.0880  0.0533 -0.2757
32603ION     NA49077  12.100  16.392   6.347 -0.1579  0.0040 -0.1364
32604ION     NA49078  12.304  10.507  14.275 -0.0684  0.2123 -0.3786
32605ION     NA49079   2.860   8.445  10.580  0.0838 -0.0861 -0.0789
32606ION     NA49080   1.106  15.544   1.874 -0.0768  0.3254 -0.0983
32607ION     NA49081   0.778  15.322  15.268  0.1492 -0.0196  0.1245
32608ION     NA49082  14.009   8.700  10.326 -0.0693 -0.1070 -0.1434
32609ION     NA49083   3.156   3.326   2.019  0.1363 -0.0066  0.2683
32610ION     NA49084   1.517  17.631   4.960 -0.1192  0.1462 -0.2010
32611ION     NA49085  11.199  17.453  10.917  0.4227 -0.5228  0.1270
32612ION     NA49086  11.487   1.969  10.328  0.0557 -0.1578 -0.1529
32613ION     NA49087   5.685   9.639  10.333  0.1395  0.0371  0.1104
32614ION     NA49088   4.967  12.431  10.828 -0.0910  0.0802 -0.1304
32615ION     NA49089  11.568  10.602   9.836  0.0824 -0.1430 -0.1936
32616ION     NA49090   1.995  16.629  12.210  0.1578 -0.0813 -0.1268
32617ION     NA49091   9.587  17.474  10.859  0.0557 -0.3178 -0.2408
32618ION     NA49092   6.355  13.694   6.201  0.0063 -0.2088 -0.0675
32619ION     NA49093  14.767  13.174   5.686  0.3558 -0.0947 -0.0868
32620ION     NA49094   8.206   1.778  10.784  0.3024 -0.2174 -0.2803
32621ION     NA49095   0.230   5.656  10.327  0.1137  0.1090 -0.1440
32622ION     NA49096   5.764   3.766   0.223  0.2141 -0.1796  0.5611
32623ION     NA49097  17.602  15.097  10.586  0.2334 -0.3213  0.1423
32624ION     NA49098  16.401  12.737   1.025  0.3337  0.0715  0.2650
32625ION     NA49099   9.935   0.619  12.570 -0.1010  0.0967  0.2680
32626ION     NA49100  10.052   2.220   5.798  0.0833 -0.0444 -0.0180
32627ION     NA49101  13.558   4.668   2.936  0.0448  0.3978 -0.1213
32628ION     NA49102   1.969  13.132  10.916  0.0338 -0.2077 -0.0956
32629ION     NA49103  14.083  16.163  10.775 -0.0320  0.2573 -0.0333
32630ION     NA49104  16.701   7.764  10.537 -0.2322  0.0482  0.0546
32631ION     NA49105  18.058   9.388  10.118 -0.0169  0.2051  0.2025
32632ION     NA49106  13.983   4.973   9.588 -0.1828 -0.0417  0.0911
32633ION     NA49107  15.982   0.027  15.795  0.2824 -0.0550  0.0726
32634ION     NA49108   7.060  17.545  11.015 -0.0844  0.1713 -0.0751
32635ION     NA49109   6.287  17.581  13.265 -0.1268  0.1784 -0.0998
32636ION     NA49110   0.770  10.533  11.137  0.3143 -0.3561  0.0645
32637ION     NA49111   4.582  14.268   6.031  0.0681 -0.1406 -0.0208
32638ION     NA49112  16.521  14.217  13.276 -0.0513 -0.1867 -0.0103
32639ION     NA49113  12.914  17.569  10.705 -0.0964  0.1827 -0.1169
32640ION     NA49114   4.747   9.874  10.446  0.1008  0.1121 -0.0950
32641ION     NA49115  10.046   3.194   5.781 -0.1101 -0.1762  0.0653
32642ION     NA49116   9.818   5.485  10.008 -0.2276  0.0169  0.3971
32643ION     NA49117  10.944  11.969  10.084 -0.0747 -0.0399  0.0939
32644ION     NA49118  17.035   5.152  10.185  0.0052 -0.1257  0.1599
32645ION     NA49119  10.878   9.592  15.317 -0.0176  0.1825  0.2268
32646ION     NA49120  11.801   7.157   3.789 -0.2745  0.1153 -0.2591
32647ION     NA49121  16.280   1.521   5.994  0.0701 -0.2123 -0.3068
32648ION     NA49122   1.127   8.146  15.204  0.0148  0.0957 -0.0298
32649ION     NA49123  10.222  18.021   3.851  0.0401  0.0695 -0.1114
32650ION     NA49124   3.493   5.924  14.929 -0.1373  0.0061 -0.2370
32651ION     NA49125   6.635   3.827   2.218  0.2310  0.0041 -0.0056
32652ION     NA49126   5.567   4.461  15.144 -0.1742  0.1356 -0.3525
32653ION     NA49127   9.252  10.211  12.164 -0.0684  0.1386  0.1690
32654ION     NA49128  16.201   7.760   5.378 -0.0772 -0.0547 -0.1224
32655ION     NA49129   9.258   3.664  10.320  0.1402 -0.1717 -0.0258
32656ION     NA49130  12.540  16.667  10.785 -0.5615  0.3742  0.2945
32657ION     NA49131  12.183  12.626   3.311  0.0022  0.1519  0.0285
32658ION     NA49132   6.448   9.195   9.964 -0.1046  0.1755 -0.0352
32659ION     NA49133   5.881  17.177  11.816 -0.3247  0.1945  0.1554
32660ION     NA49134   5.542   1.844  10.729 -0.2562 -0.3632 -0.2593
32661ION     NA49135  12.450   0.509  10.682 -0.1474  0.2132 -0.1677
32662ION     NA49136   7.137  15.278  13.559  0.0242 -0.1071  0.3188
32663ION     NA49137   1.174   7.232  10.551 -0.0494  0.1575  0.0891
32664ION     NA49138   9.409   8.029  13.077  0.1276 -0.0863 -0.1033
32665ION     NA49139   1.221   4.126   5.866  0.2347 -0.0367  0.2034
32666ION     NA49140   5.571   1.272  14.625  0.1097 -0.1309 -0.1173
32667ION     NA49141  18.236  17.872  10.832 -0.0508 -0.1090 -0.2252
32668ION     NA49142   6.688   6.558  10.228  0.0243  0.1635 -0.0195
32669ION     NA49143   7.405   8.125  15.403  0.0502 -0.1272 -0.0075
32670ION     NA49144  17.415  14.246   5.067  0.0253 -0.3590 -0.1321
32671ION     NA49145   2.581   4.114  10.756 -0.0387  0.0367 -0.1249
32672ION     NA49146   8.343   0.884   5.934 -0.2526 -0.1119  0.2223
32673ION     NA49147  13.876  16.435   6.330 -0.2299  0.3161  0.0808
32674ION     NA49148   6.174  15.863   4.146  0.0372 -0.1559  0.3012
32675ION     NA49149   4.129  13.599  10.986  0.0518  0.1670  0.0236
32676ION     NA49150  18.334   6.747   5.715  0.1092 -0.2831 -0.2985
32677ION     NA49151   2.384   3.178  10.870 -0.2549  0.0985 -0.2684
32678ION     NA49152  15.103   7.951   9.691  0.0827  0.2592 -0.1116
32679ION     NA49153   4.047   6.825  10.316  0.0328  0.0448 -0.3011
32680ION     NA49154  12.124   8.069   9.822 -0.0627  0.0853 -0.2588
32681ION     NA49155   4.910  14.511  15.845  0.2040 -0.4094 -0.1939
32682ION     NA49156  16.269  15.336   3.929 -0.0530 -0.0359 -0.2186
32683ION     NA49157   7.335   2.267  10.944  0.1004 -0.1078  0.0270
32684ION     NA49158  13.109   2.694  15.091 -0.1202  0.0529 -0.0451
32685ION     NA49159   7.420   6.388   1.916  0.2705 -0.2872  0.0931
32686ION     NA49160  17.812  11.066  10.608  0.1729 -0.1438 -0.0257
32687ION     NA49161   2.911  14.738  10.935  0.0425 -0.0651 -0.0522
32688ION     NA49162   9.567   0.850  10.788  0.0456  0.0051  0.0691
32689ION     NA49163   6.266   3.153   6.001 -0.0078 -0.2256  0.0049
32690ION     NA49164   4.650   5.336   5.723 -0.0177  0.3347 -0.1275
32691ION     NA49165   0.949   9.082   5.624  0.3058 -0.0604  0.4370
32692ION     NA49166   2.912   2.571  11.646 -0.1360 -0.1466  0.0247
32693ION     NA49167  12.167  14.034  10.815 -0.1323 -0.1158 -0.0121
32694ION     NA49168  14.367  16.257   5.380  0.1557  0.2616  0.0698
32695ION     NA49169  15.645  17.477   6.439  0.0573 -0.2731  0.0713
32696ION     NA49170   1.075   3.139  10.891  0.0312 -0.0337 -0.1368
32697ION     NA49171  13.303  16.116  10.656 -0.1946 -0.2484 -0.0109
32698ION     NA49172   7.565   9.958  13.243  0.2877  0.0214  0.0268
32699ION     NA49173  16.859   2.185  14.844  0.1710 -0.0287 -0.0294
32700ION     NA49174  12.132  13.385   0.902 -0.0450 -0.0587 -0.0946
32701ION     NA49175   3.715  16.227  11.025 -0.0879 -0.2813  0.0893
32702ION     NA49176  11.797   5.907  13.602 -0.3551  0.0185 -0.4692
32703ION     NA49177   7.872  14.293  10.580 -0.0053 -0.2217  0.0406
32704ION     NA49178   3.513   4.596  10.901 -0.0902  0.1173 -0.0872
32705ION     NA49179  17.466   9.707   9.640 -0.2513 -0.2626 -0.1508
32706ION     NA49180   9.584   1.601  10.624 -0.1991  0.2619 -0.0636
32707ION     NA49181  16.195  17.490  10.647  0.4113  0.1314 -0.0658
32708ION     NA49182  15.240  12.384   5.546 -0.6340  0.0418  0.0130
32709ION     NA49183  14.968   1.917  10.355  0.1296 -0.0804 -0.0044
32710ION     NA49184  12.667  10.857  11.502  0.0010 -0.0466 -0.0327
32711ION     NA49185  10.744  18.269  12.606  0.3864  0.3045 -0.0894
32712ION     NA49186  15.905   7.960   2.441 -0.0693 -0.0672  0.0782
32713ION     NA49187  16.691   7.013  10.224  0.2478  0.2554 -0.0882
32714ION     NA49188   6.676  16.805  10.927  0.0672 -0.2080 -0.1550
32715ION     NA49189  11.387  10.520  10.364 -0.0696  0.1050  0.0737
32716ION     NA49190   4.916  13.684   6.134 -0.2371  0.0205  0.3089
32717ION     NA49191  16.070  14.432  10.644 -0.0288  0.1429 -0.0793
32718ION     NA49192  18.391   2.819  10.766 -0.1700  0.0143  0.0547
32719ION     NA49193  10.764   3.200   4.660 -0.0461 -0.4422 -0.0068
32720ION     NA49194   5.046  16.257   1.148  0.0463 -0.0492  0.1702
32721ION     NA49195   5.858  13.654  12.597 -0.2449  0.0689 -0.6180
32722ION     NA49196   6.255  13.666  10.514  0.0346 -0.0621  0.1101
32723ION     NA49197  12.308  10.896  10.043  0.0626  0.1156  0.0271
32724ION     NA49198  17.096   6.198  10.162 -0.1240  0.2047  0.2351
32725ION     NA49199  16.416   1.366  13.285 -0.1513  0.2791  0.1162
32726ION     NA49200   6.691   9.994   4.221 -0.0707  0.0830 -0.1478
32727ION     NA49201  14.539   9.132   9.880  0.0205 -0.2243  0.0599
32728ION     NA49202   2.676   1.200  13.645  0.1208 -0.3800 -0.2023
32729ION     NA49203  15.515  11.684   5.164 -0.1043 -0.0728  0.0818
32730ION     NA49204   1.344  16.858   1.879 -0.3889 -0.0326  0.2737
32731ION     NA49205   7.555  15.554   4.989 -0.0556  0.0306 -0.0317
32732ION     NA49206  14.677   4.384   5.339  0.0609 -0.2615 -0.0322
32733ION     NA49207   3.526  12.140   4.576 -0.1350 -0.1775 -0.4007
32734ION     NA49208   9.215  10.876  10.265  0.0844 -0.0487  0.1636
32735ION     NA49209  18.030   3.237   5.462  0.0021 -0.2394  0.1207
32736ION     NA49210  14.151   2.494   1.564 -0.2939 -0.2033  0.1003
32737ION     NA49211  15.168   3.917  10.014  0.0847 -0.0039 -0.3904
32738ION     NA49212  17.119  11.335   5.373 -0.0715  0.2139  0.3020
32739ION     NA49213   8.370  11.973   5.199  0.0740  0.0164 -0.3346
32740ION     NA49214   9.365  14.268  15.400 -0.1308  0.2901 -0.0378
32741ION     NA49215  10.873  16.082  10.884  0.0439  0.0392  0.3567
32742ION     NA49216  18.060   0.475  10.602  0.1335 -0.0158 -0.2305
32743ION     NA49217   1.492  11.832  10.830  0.0040 -0.1880 -0.1356
32744ION     NA49218   6.190  12.652   4.174 -0.1387 -0.3389  0.0662
32745ION     NA49219   1.809  15.671  10.855 -0.2789  0.0269  0.2378
32746ION     NA49220   9.220  18.276  15.023  0.4347  0.2041 -0.3462
32747ION     NA49221  11.328   4.892  10.152  0.3293  0.1468  0.3414
32748ION     NA49222  10.908   9.186   9.978 -0.2133  0.2638  0.2615
32749ION     NA49223  15.423  14.995  10.615  0.0268 -0.1253  0.0182
32750ION     NA49224  16.717   4.476   9.882  0.0519  0.1539  0.0517
32751ION     NA49225   8.010   9.392  10.188 -0.2656  0.0844 -0.3218
32752ION     NA49226   1.999  18.107  11.523 -0.0095  0.0285 -0.3368
32753ION     NA49227  16.994   2.938  10.261  0.3310  0.1290 -0.3758
32754ION     NA49228   6.790  12.824  10.630 -0.0062  0.1135 -0.1558
32755ION     NA49229   6.043   1.477   6.127 -0.0709 -0.0617  0.0094
32756ION     NA49230   0.066  16.785  10.894 -0.0807 -0.0020  0.0817
32757ION     NA49231  17.584  17.116  11.067  0.1229  0.4921 -0.1522
32758ION     NA49232   7.435   4.694  10.086  0.0746  0.0088  0.1244
32759ION     NA49233   7.497   0.497  10.793  0.3809 -0.3405 -0.0506
32760ION     NA49234  16.691   8.722   5.787 -0.2147  0.0172 -0.2417
32761ION     NA49235   4.416  17.832  13.567 -0.2825  0.1736 -0.2491
32762ION     NA49236  14.759  10.630  10.035  0.4111  0.0665  0.2649
32763ION     NA49237  11.946   2.665  10.330  0.1543  0.0274  0.0856
32764ION     NA49238   6.591  17.280   3.904 -0.1383  0.1545  0.3277
32765ION     NA49239  16.151   4.455  10.783 -0.3737 -0.0464  0.4856
32766ION     NA49240   4.510  15.025  10.932  0.0933 -0.0995 -0.3356
32767ION     NA49241   0.919   0.695   5.943  0.0850 -0.2039 -0.1054
32768ION     NA49242   1.310   3.050   5.736  0.1021  0.0669 -0.0642
32769ION     NA49243  16.043   9.356   9.660 -0.0197 -0.0567 -0.3431
32770ION     NA49244   4.733   1.871  10.919 -0.0095 -0.3356 -0.0965
32771ION     NA49245  11.533   7.220   9.902 -0.4547 -0.0527 -0.3240
32772ION     NA49246   9.427  16.124  12.098 -0.1018 -0.0208  0.0940
32773ION     NA49247  16.603   5.990  10.070  0.1546  0.0034  0.1728
32774ION     NA49248  13.753  10.205  10.107  0.1595 -0.2350 -0.1039
32775ION     NA49249   9.188  16.560  14.462 -0.3722 -0.2885  0.1170
32776ION     NA49250  15.496  13.259  10.268  0.2632 -0.0451  0.1374
32777ION     NA49251   5.700  10.764   4.844 -0.1057 -0.2099 -0.3382
32778ION     NA49252   5.720   4.247  10.495 -0.2621 -0.2645  0.1229
32779ION     NA49253  10.349   8.673   9.851  0.2199 -0.1084  0.2415
32780ION     NA49254   8.084   6.237   9.921 -0.2826  0.4167 -0.3334
32781ION     NA49255   1.867  17.749   2.896 -0.1648 -0.0374 -0.0636
32782ION     NA49256   3.373  11.858  10.815 -0.2336 -0.1702  0.1359
32783ION     NA49257  18.305   9.488  11.183  0.0491  0.0437 -0.2062
32784ION     NA49258  16.426   1.808  10.516  0.0642 -0.2868  0.2200
32785ION     NA49259  12.573   5.792   9.715  0.0596  0.0376 -0.0871
32786ION     NA49260   1.106   5.189  10.492  0.0451 -0.0153 -0.2417
32787ION     NA49261   1.418  10.770  10.535 -0.1173  0.2069  0.0750
32788ION     NA49262  13.598   7.551   5.437 -0.1156 -0.2984 -0.1758
32789ION     NA49263   9.529  17.709  15.695 -0.2283 -0.1365 -0.1824
32790ION     NA49264   3.282   4.029  15.850 -0.1943  0.0520 -0.4114
32791ION     NA49265  16.923   9.555   9.513  0.0468 -0.1691 -0.3796
32792ION     NA49266   6.420  15.538   0.676  0.1141 -0.1790 -0.0671
32793ION     NA49267  15.480   4.244   0.422  0.3097  0.2727 -0.0236
32794ION     NA49268   2.369  10.340  10.394  0.0495  0.1693 -0.2851
32795ION     NA49269   5.393  15.529  10.966 -0.0244 -0.1862 -0.1183
32796ION     NA49270   2.025   4.157   0.344  0.0029 -0.0841  0.1307
32797ION     NA49271  12.865   8.525   9.853 -0.3452 -0.0887  0.0538
32798ION     NA49272   9.933   9.027   9.882  0.0361  0.0556  0.0093
32799ION     NA49273  15.660   9.394   2.280  0.0568  0.1340  0.0683
32800ION     NA49274  17.808  14.368   1.779  0.1063  0.2752  0.0989
32801ION     NA49275  15.227  17.490  10.665 -0.0730  0.1437 -0.0185
32802ION     NA49276  12.360   7.635  10.044 -0.1667 -0.2005  0.0697
32803ION     NA49277   1.879   5.770  10.457  0.0015 -0.3336  0.1233
32804ION     NA49278  16.581  10.297   9.892  0.2363  0.4094 -0.0841
32805ION     NA49279   4.221   3.054   3.429 -0.1761  0.1491  0.0606
32806ION     NA49280   8.455   1.678   4.708  0.1503  0.0319 -0.0668
32807ION     NA49281   9.744  16.910   1.323 -0.4042 -0.4089 -0.2342
32808ION     NA49282  14.705   6.293   2.144 -0.2979 -0.4091  0.0724
32809ION     NA49283   1.968  12.112  10.783 -0.1955  0.1782  0.2213
32810ION     NA49284  17.075   4.067  11.676  0.2377  0.1856  0.1105
32811ION     NA49285   0.172   7.028   2.037 -0.0463  0.1909  0.1026
32812ION     NA49286  13.201   2.156  10.141  0.4094  0.0211 -0.3553
32813ION     NA49287   4.108   3.965  10.654 -0.1598  0.2931 -0.1354
32814ION     NA49288  16.211   3.032  10.183  0.1446  0.0036  0.3254
32815ION     NA49289   3.622   9.093   6.053 -0.1353  0.3237  0.3660
32816ION     NA49290  17.209   3.364  10.396 -0.0249 -0.1522  0.1508
32817ION     NA49291  18.302   6.503  11.301  0.1335  0.2148 -0.1199
32818ION     NA49292   3.546  15.387  13.831 -0.1171  0.3031 -0.0846
32819ION     NA49293  17.326   3.232  12.543  0.0976 -0.2474  0.0122
32820ION     NA49294   3.338   1.010  11.090 -0.1237  0.0390 -0.2756
32821ION     NA49295  11.677   3.402  10.030 -0.0494 -0.0787  0.2738
32822ION     NA49296   2.457  13.761  10.859  0.0725  0.0911  0.1231
32823ION     NA49297   0.271   7.502  10.783  0.1884 -0.1516  0.2336
32824ION     NA49298   0.707  13.855  10.672 -0.2513  0.1217 -0.1927
32825ION     NA49299   9.344   3.211   0.419  0.1973  0.1658 -0.1830
32826ION     NA49300   8.182   4.222  10.101  0.1630 -0.2511 -0.2189
32827ION     NA49301  12.874  13.821  12.894  0.2639 -0.1575  0.0259
32828ION     NA49302   9.902  16.203  10.976 -0.2759  0.1483  0.0959
32829ION     NA49303  17.517  16.270  10.847  0.1438 -0.0018 -0.1175
32830ION     NA49304   7.888   2.504  10.907 -0.0264 -0.1104  0.0942
32831ION     NA49305   7.802  11.232  10.240  0.1977 -0.0921 -0.3329
32832ION     NA49306  16.936  18.013  10.869 -0.1605  0.0094  0.1991
32833ION     NA49307  10.294   4.420   4.395  0.1922  0.1284  0.2144
32834ION     NA49308   1.086   4.937   2.683 -0.1386  0.3507  0.2394
32835ION     NA49309   8.319  17.432  15.242  0.0199  0.3246  0.2132
32836ION     NA49310   1.009   1.779  10.828 -0.1738  0.2368 -0.1617
32837ION     NA49311  13.414  18.344  10.952 -0.0744 -0.0487  0.2018
32838ION     NA49312  17.627  13.733   5.765 -0.2473 -0.0398  0.2097
32839ION     NA49313  14.232  11.378  10.223  0.0557  0.1935 -0.0055
32840ION     NA49314  14.244   5.936   9.371 -0.3065 -0.0525  0.2584
32841ION     NA49315   4.711  15.374   5.875  0.0757  0.2388 -0.1881
32842ION     NA49316   8.757   0.954  10.738 -0.2436  0.1375  0.1139
32843ION     NA49317   6.169   6.057  12.646 -0.2766  0.0945  0.0847
32844ION     NA49318  16.508  11.531   5.397  0.2211  0.0495 -0.0263
32845ION     NA49319  13.388   6.586   5.237 -0.2105 -0.4284  0.1842
32846ION     NA49320  16.188  10.385  12.692 -0.0328  0.1608  0.1477
32847ION     NA49321   9.386   4.567  10.091 -0.1638  0.1150  0.0761
32848ION     NA49322  11.375   8.989   0.759 -0.0084 -0.3293 -0.3473
32849ION     NA49323  15.329   7.627  14.421  0.1251 -0.0398 -0.1382
32850ION     NA49324   2.537   9.651  10.366  0.0591  0.0225 -0.0189
32851ION     NA49325   8.758   3.916  12.215  0.0262 -0.4368  0.0656
32852ION     NA49326  11.030   7.937  10.351 -0.0775  0.1828 -0.2808
32853ION     NA49327  14.948   1.091  10.384  0.2287 -0.1827  0.0065
32854ION     NA49328   9.315  15.399  11.063  0.1291  0.0457  0.0116
32855ION     NA49329   7.092   1.777  10.823 -0.1188  0.1695  0.0364
32856ION     NA49330  13.338  14.474  10.592 -0.1796 -0.1039 -0.1721
32857ION     NA49331  17.781  18.249   5.927 -0.1067 -0.0900 -0.1458
32858ION     NA49332  13.657  13.500  10.433 -0.4139  0.1783 -0.0447
32859ION     NA49333   8.522   0.161  10.806  0.3357  0.1260 -0.2136
32860ION     NA49334  14.516   4.949   1.793 -0.0658 -0.1814 -0.2128
32861ION     NA49335  13.488   9.314   9.858  0.1469 -0.0668 -0.0412
32862ION     NA49336  10.220  12.881  10.404 -0.0482  0.0600  0.0131
32863ION     NA49337  12.740  12.888   5.840 -0.1384  0.0924 -0.2488
32864ION     NA49338   0.031   9.599  12.213  0.1691  0.1477  0.0970
32865ION     NA49339  13.049  11.285  10.572 -0.0122 -0.0784 -0.4182
32866ION     NA49340  15.072   3.117  14.179 -0.0965 -0.0812 -0.2459
32867ION     NA49341  14.135  13.964   6.044 -0.1680 -0.3019 -0.0048
32868ION     NA49342   1.223  11.075  15.283 -0.5254 -0.1166  0.0127
32869ION     NA49343   1.833  18.184  10.961  0.1294 -0.0607  0.3080
32870ION     NA49344   1.463   9.539   2.545  0.0054 -0.0708 -0.1976
32871ION     NA49345   4.803   6.166  10.280  0.0431  0.1785  0.0354
32872ION     NA49346   2.305   5.039  10.829  0.2365  0.0497 -0.2949
32873ION     NA49347  10.732  12.515   5.769 -0.3258 -0.0838 -0.3752
32874ION     NA49348  17.242   1.169  10.712  0.0505 -0.0500 -0.1369
32875ION     NA49349  15.295  14.081  10.662 -0.1316 -0.1076 -0.2454
32876ION     NA49350   3.141  15.971   6.198 -0.1361 -0.1128 -0.2170
32877ION     NA49351   1.693  13.732   5.916 -0.2420  0.0726 -0.0595
32878ION     NA49352   3.320  12.514   5.665  0.0087 -0.1336  0.0895
32879ION     NA49353   8.931   7.364   5.535  0.0842  0.0636  0.3748
32880ION     NA49354   2.046  14.311  14.558  0.1888 -0.1260 -0.0262
32881ION     NA49355   6.122  10.595   0.743  0.0405  0.1296 -0.0896
32882ION     NA49356   6.063   7.890  10.200 -0.2287  0.0648  0.0614
32883ION     NA49357   2.702   2.179  10.796  0.1418  0.1695 -0.0721
32884ION     NA49358  12.489  15.024  10.859 -0.1152 -0.3249 -0.2099
32885ION     NA49359  13.737  11.353   2.712  0.0105 -0.1610 -0.0418
32886ION     NA49360   5.030   3.529  10.569  0.0471  0.3452 -0.2497
32887ION     NA49361   4.428   3.700  10.993  0.2351 -0.2163  0.3304
32888ION     NA49362  15.495  11.918  10.300  0.0434 -0.2405  0.0546
32889ION     NA49363   8.742   6.659   9.853  0.2761  0.2879  0.0250
32890ION     NA49364  10.181   2.226  12.715  0.2107  0.2064  0.2505
32891ION     NA49365   1.396   9.620  11.283 -0.3813  0.1139 -0.1452
32892ION     NA49366   1.433  12.005  13.289 -0.0492  0.1242  0.1258
32893ION     NA49367  13.965  15.191   1.946 -0.1537 -0.1586 -0.3032
32894ION     NA49368   1.538   4.774   5.621 -0.1467  0.1177 -0.1855
32895ION     NA49369  15.911  16.770  12.940  0.1076  0.0943  0.1200
32896ION     NA49370  16.505  16.133  10.675  0.1765 -0.2529  0.0479
32897ION     NA49371   6.234   5.772  10.381 -0.1778 -0.0281 -0.3942
32898ION     NA49372  12.492   0.979  10.418 -0.2072  0.1138 -0.0479
32899ION     NA49373   9.498  13.472  10.753 -0.0503 -0.2288  0.3372
32900ION     NA49374  16.320   8.246   9.654 -0.0033  0.1607  0.0486
32901ION     NA49375   7.309   7.689   0.393  0.0458 -0.0507 -0.1881
32902ION     NA49376   3.338   2.143   6.129 -0.3764  0.3099  0.1994
32903ION     NA49377   2.449   1.240   1.953  0.1519 -0.0248 -0.0589
32904ION     NA49378   5.202   2.629  10.806  0.6839  0.3353  0.1101
32905ION     NA49379   1.903  16.846  10.887  0.3775  0.2389  0.2036
32906ION     NA49380   9.440  15.030  10.714 -0.1787 -0.1809 -0.3910
32907ION     NA49381  11.165   7.123   5.175  0.1076  0.0360  0.0942
32908ION     NA49382   8.822   7.835  10.067  0.3598  0.0982 -0.1360
32909ION     NA49383  11.741   0.466   5.943  0.1657  0.0638 -0.1040
32910ION     NA49384  17.538   8.333  10.118  0.2864  0.0996  0.0040
32911ION     NA49385   5.394  14.918  10.804 -0.3200 -0.0443 -0.0004
32912ION     NA49386   0.619  14.302   3.920  0.1255  0.1612  0.0670
32913ION     NA49387  12.731  12.083  10.371 -0.0318 -0.2525 -0.0107
32914ION     NA49388   7.780   2.945   3.887  0.0629 -0.1338  0.4251
32915ION     NA49389   5.779   6.543  10.505  0.0690 -0.0320 -0.0102
32916ION     NA49390  12.124   9.950   9.915  0.1734 -0.0145 -0.1199
32917ION     NA49391   1.028   9.825  10.166 -0.1535  0.2156 -0.0383
32918ION     NA49392  17.754   7.586  10.418  0.1298 -0.0844 -0.4374
32919ION     NA49393   6.225   8.867  10.231  0.5153  0.1744 -0.0850
32920ION     NA49394  16.999   5.043   2.109 -0.2024  0.0312  0.0933
32921ION     NA49395   9.691   5.648   4.542  0.0047  0.2017 -0.1370
32922ION     NA49396  11.606  14.395  15.724 -0.3496  0.0067  0.1385
32923ION     NA49397   3.306   4.622   5.765 -0.1653 -0.2820 -0.1859
32924ION     NA49398   0.253   0.903  10.800 -0.0407 -0.4344  0.0556
32925ION     NA49399  10.277  14.006  12.515  0.1809  0.0447 -0.0567
32926ION     NA49400   6.113   1.291  10.981 -0.0807 -0.2041 -0.1586
32927ION     NA49401  11.280   0.474  15.282  0.3869 -0.0935 -0.2494
32928ION     NA49402  11.860   4.403   9.902  0.1052  0.1421  0.0929
32929ION     NA49403  15.978   0.936  10.591  0.2863 -0.0155  0.2434
32930ION     NA49404  13.495   4.303   9.618  0.3762 -0.0975 -0.0019
32931ION     NA49405  15.560  11.086   9.978 -0.0359  0.0264 -0.0619
32932ION     NA49406   5.430   5.681  10.505  0.1767  0.0691 -0.1262
32933ION     NA49407  13.513   8.870   1.023  0.1192  0.2331  0.0389
32934ION     NA49408   0.757   9.601   5.524 -0.1527  0.1491  0.0229
32935ION     NA49409   8.565   4.357  10.330  0.0523 -0.1337 -0.2024
32936ION     NA49410   0.290   9.665  14.121  0.0773 -0.0686 -0.2470
32937ION     NA49411  18.259   8.620  10.356  0.0253 -0.2075 -0.1671
32938ION     NA49412   1.558   0.606   4.583 -0.2640  0.2644  0.1357
32939ION     NA49413   4.579   5.498   3.231 -0.0069 -0.2170 -0.1366
32940ION     NA49414   3.525  11.121  15.528  0.0585 -0.0092 -0.3043
32941ION     NA49415   8.806  14.164  10.709 -0.2594 -0.0766 -0.0640
32942ION     NA49416  13.163  14.584   6.113 -0.7155 -0.1822  0.1311
32943ION     NA49417  14.812  15.768  10.599 -0.1307 -0.3170  0.0287
32944ION     NA49418  14.633   3.514   5.166  0.1980  0.0605 -0.1390
32945ION     NA49419  17.735   7.393  13.368 -0.0954 -0.1763  0.0369
32946ION     NA49420  16.899   1.912  10.422  0.2992 -0.3205 -0.3395
32947ION     NA49421   6.334  11.643  13.827 -0.3268 -0.1429  0.1417
32948ION     NA49422  13.370  12.953  11.219  0.0785 -0.1836  0.2777
32949ION     NA49423   5.724   3.088  10.729  0.2840  0.3155  0.2340
32950ION     NA49424   4.638  15.466   1.685 -0.2470  0.0197 -0.1227
32951ION     NA49425  17.810  11.219   4.060 -0.2728  0.1585  0.1176
32952ION     NA49426   4.384  14.021  12.794  0.3899 -0.2405  0.1560
32953ION     NA49427  16.837  13.022  15.294  0.0033 -0.0594  0.0933
32954ION     NA49428   2.218  16.137   6.021 -0.1841 -0.0670 -0.0109
32955ION     NA49429   5.245   7.669  10.213 -0.0124 -0.2120 -0.3544
32956ION     NA49430   7.658  10.122   1.707 -0.0550 -0.0717 -0.1000
32957ION     NA49431   1.612  16.361  11.067  0.3060  0.1281  0.0661
32958ION     NA49432   1.509  17.565  14.871 -0.2228  0.2170  0.0582
32959ION     NA49433   2.692  17.652  10.931  0.1347  0.2853 -0.4631
32960ION     NA49434  16.884  14.686  10.373  0.0825 -0.0112  0.1328
32961ION     NA49435   8.520  15.052  10.998  0.2373 -0.1328  0.3192
32962ION     NA49436   3.682  12.626  10.928 -0.0306 -0.1126  0.0479
32963ION     NA49437  15.928   1.647  10.430  0.1989 -0.0135  0.0205
32964ION     NA49438  14.585   0.301   5.967 -0.1544  0.1783  0.1242
32965ION     NA49439  15.749  15.197   6.099  0.2684 -0.1806 -0.0624
32966ION     NA49440   7.713   4.278   3.521  0.3712  0.0019 -0.0100
32967ION     NA49441   4.649  11.386   5.687  0.0624  0.3771  0.1234
32968ION     NA49442  18.202  16.273   5.601 -0.1038 -0.0632 -0.1604
32969ION     NA49443  14.445  11.216   5.591  0.2075 -0.0689 -0.0645
32970ION     NA49444  16.594   5.847   2.153  0.3253 -0.1194  0.1442
32971ION     NA49445   5.788   4.161  13.767  0.5002 -0.2245 -0.0606
32972ION     NA49446  17.697  12.707  10.435 -0.2228  0.2225 -0.0197
32973ION     NA49447  11.692   0.334  10.474 -0.1217  0.0121 -0.1142
32974ION     NA49448   6.385   3.050  10.925 -0.1755  0.1026 -0.0906
32975ION     NA49449  16.844   8.945   9.872  0.0018 -0.0552 -0.1339
32976ION     NA49450   3.472  11.527   3.017  0.0341 -0.0752 -0.1723
32977ION     NA49451  18.128   5.414  13.133  0.1787 -0.2292 -0.0647
32978ION     NA49452   1.593   3.772   5.612  0.0772 -0.0699  0.0608
32979ION     NA49453   1.734   6.946   5.827 -0.0733  0.0574  0.0654
32980ION     NA49454   7.622   9.394  11.581  0.0560  0.1539  0.1822
32981ION     NA49455   5.790   4.946  10.379  0.2146  0.2899 -0.1421
32982ION     NA49456  13.450   7.798   9.714 -0.0709  0.0242 -0.0117
32983ION     NA49457   8.623  12.419  10.734 -0.2065  0.1250  0.1947
32984ION     NA49458   0.662  17.542  11.254  0.2243 -0.3134  0.0909
32985ION     NA49459   5.536  13.828  10.916  0.0850 -0.0460 -0.0257
32986ION     NA49460  17.142  11.808  13.791  0.1950  0.1842 -0.0614
32987ION     NA49461  18.323  14.895   1.825 -0.0224 -0.0293 -0.1155
32988ION     NA49462   6.561   2.214   5.955  0.0530  0.2416  0.0824
32989ION     NA49463   9.585   3.857   5.446  0.0749  0.0771 -0.0903
32990ION     NA49464   8.415  10.772  10.089 -0.2031  0.0747 -0.3488
32991ION     NA49465   9.357  11.203  14.925 -0.3158 -0.1330 -0.0383
32992ION     NA49466  15.890   4.744   9.527 -0.0057  0.1246 -0.1390
32993ION     NA49467  11.690  15.623  10.934 -0.0295  0.1783  0.0660
32994ION     NA49468   6.167  17.980  10.926  0.0897 -0.0069 -0.1385
32995ION     NA49469  13.213   7.033  10.659 -0.0916  0.1174  0.2204
32996ION     NA49470   8.778   9.966  10.269  0.1611 -0.1070  0.3498
32997ION     NA49471   2.868   1.261  10.957  0.0117  0.0066 -0.1404
32998ION     NA49472   3.394  18.191   0.731  0.2000 -0.0505 -0.0175
32999ION     NA49473   2.384   8.724  10.580 -0.0961  0.0984 -0.2581
33000ION     NA49474   7.860   8.225  10.510  0.0238  0.0250  0.1242
33001ION     NA49475   1.132   2.072  12.131 -0.0441 -0.1471  0.3416
33002ION     NA49476   3.671  14.378   1.513  0.1960  0.0998 -0.0629
33003ION     NA49477   8.064   2.312  14.553  0.3586  0.1765 -0.0090
33004ION     NA49478   0.643   6.210  10.709 -0.0744  0.3788  0.1147
33005ION     NA49479  17.691   2.254  10.374 -0.2606 -0.1564  0.1597
33006ION     NA49480  13.270   6.473  10.183 -0.1830 -0.2062  0.1832
33007ION     NA49481   5.102  15.405  12.738  0.0444 -0.0518 -0.2550
33008ION     NA49482   6.339  15.444  11.169 -0.2424 -0.2066  0.0898
33009ION     NA49483  15.323   9.745   9.860  0.3876 -0.0017 -0.1995
33010ION     NA49484   5.382   0.144  10.793  0.1241  0.0691 -0.3668
33011ION     NA49485  15.472   0.246  11.334 -0.0283 -0.3224 -0.1610
33012ION     NA49486  10.853  10.195  10.080 -0.2298 -0.2162  0.1190
33013ION     NA49487  17.345  18.034  11.214  0.0946  0.0085  0.2112
33014ION     NA49488  15.277  12.736  10.353  0.1735  0.3145  0.2324
33015ION     NA49489  11.300  16.415  14.806 -0.0739 -0.0460 -0.1013
33016ION     NA49490   9.067   2.870  10.469 -0.1445 -0.0135 -0.1120
33017ION     NA49491  16.006  10.200  13.570 -0.0201  0.0849  0.0269
33018ION     NA49492   1.584  15.036  10.722 -0.1384  0.1478  0.0256
33019ION     NA49493   6.232   8.935  11.213  0.0353  0.0448  0.0260
33020ION     NA49494  15.980  13.492  10.234 -0.0172 -0.3013  0.5024
33021ION     NA49495  18.341   7.070  10.451  0.4486 -0.0218  0.0354
33022ION     NA49496  10.534  12.991   0.442  0.0167 -0.4375  0.2356
33023ION     NA49497  10.560   1.988  10.409  0.0928  0.0618  0.0438
33024ION     NA49498   8.717  12.541  10.257 -0.3248 -0.2259 -0.4823
33025ION     NA49499   5.287   1.620   3.906  0.2196 -0.1540 -0.1898
33026ION     NA49500  14.609  12.085  10.449 -0.0945 -0.1386  0.1046
33027ION     NA49501   7.950  12.835  10.404 -0.1940 -0.1389 -0.2530
33028ION     NA49502  12.090  10.293   5.895  0.0720  0.0614 -0.1750
33029ION     NA49503  14.430   6.268  14.488 -0.1763  0.0327  0.1029
33030ION     NA49504   0.274   4.427   6.040 -0.1400  0.2354  0.2958
33031ION     NA49505  16.648  13.669  10.319 -0.1726  0.0240  0.2366
33032ION     NA49506  15.959   8.327   9.954  0.0933 -0.3065  0.0823
33033ION     NA49507   3.572  15.173   6.129  0.0521 -0.4751 -0.0161
33034ION     NA49508   6.713  14.804  10.785 -0.3414 -0.1257 -0.0128
33035ION     NA49509   8.397  17.175   4.349  0.0056 -0.1105 -0.2387
33036ION     NA49510  14.263   0.587  10.728 -0.2362  0.2353 -0.1392
33037ION     NA49511  14.990   9.187   3.785 -0.1587  0.3235 -0.0498
33038ION     NA49512   7.556   0.040  11.025 -0.0549  0.2428  0.4204
33039ION     NA49513   4.642  11.637  11.005 -0.0579  0.0288  0.0683
33040ION     NA49514   9.006  12.197   0.071 -0.1304  0.0953 -0.4309
33041ION     NA49515   1.640   0.548   5.509  0.2426  0.0669 -0.0444
33042ION     NA49516  18.269  15.614  10.864  0.0635 -0.2066  0.0716
33043ION     NA49517  12.674   3.766   9.925 -0.1791  0.0598  0.7280
33044ION     NA49518  18.390  18.023   0.727 -0.1685 -0.1167  0.0424
33045ION     NA49519   3.828   5.946  10.708  0.1212  0.4321 -0.1631
33046ION     NA49520  13.915   4.174  10.372  0.3274 -0.1380  0.0104
33047ION     NA49521   8.627   9.507  10.235  0.0468 -0.0314 -0.0511
33048ION     NA49522   2.819  12.826   5.051  0.1989 -0.2984  0.5233
33049ION     NA49523   9.745  15.699  14.030  0.0938  0.0282  0.1868
33050ION     NA49524  13.524  17.793   5.251 -0.0577  0.0585  0.1918
33051ION     NA49525   8.640   8.700  10.041 -0.0994  0.1113  0.3745
33052ION     NA49526  14.445   9.108  12.117 -0.1599  0.5072  0.0442
33053ION     NA49527  11.103   2.819  10.242  0.1953 -0.0609  0.2389
33054ION     NA49528   9.543  16.287  15.849  0.0956 -0.2387 -0.3513
33055ION     NA49529   2.237   7.871  15.871  0.1058 -0.1284  0.2457
33056ION     NA49530   7.065  15.975  10.727 -0.0726 -0.4581  0.3641
33057ION     NA49531  13.760  12.385  13.952 -0.3919  0.0773  0.1214
33058ION     NA49532  13.897  16.722  14.400  0.0437  0.3119  0.1428
33059ION     NA49533  16.478   1.276   1.142 -0.1083 -0.0465  0.1585
33060ION     NA49534   5.530   3.916   3.520 -0.2205  0.2373 -0.1442
33061ION     NA49535   9.012  14.931   5.985  0.2608  0.2168  0.1477
33062ION     NA49536   1.109   1.117  11.034  0.0244 -0.0656  0.2378
33063ION     NA49537   3.803  11.195  10.685 -0.0960  0.4670  0.0302
33064ION     NA49538  15.213  15.171  16.269 -0.1328  0.1768 -0.0755
33065ION     NA49539   3.083   2.755  10.873  0.1135  0.2106 -0.2036
33066ION     NA49540   2.267   6.572  15.113 -0.0156  0.0428 -0.0557
33067ION     NA49541   8.637   1.276   0.221 -0.1983 -0.1065 -0.1224
33068ION     NA49542   1.764   3.381  13.271  0.0589  0.0885  0.2714
33069ION     NA49543   5.914   7.149   5.740  0.2667 -0.1333  0.0945
33070ION     NA49544  10.550   1.170  12.471 -0.2127 -0.2388 -0.3718
33071ION     NA49545   2.868  11.138  10.695  0.1142 -0.0633  0.0341
33072ION     NA49546   8.177   5.288  10.093 -0.2150 -0.0456 -0.1530
33073ION     NA49547   6.917   4.207  10.851 -0.3295  0.0202 -0.0620
33074ION     NA49548   1.126  13.105  10.753  0.2278 -0.1379 -0.3444
33075ION     NA49549  12.741   8.286  12.664 -0.2229 -0.2179 -0.3159
33076ION     NA49550  10.622  15.379   5.883 -0.1217  0.0881 -0.2094
33077ION     NA49551  10.353   6.933   9.784  0.1188  0.0237  0.1039
33078ION     NA49552  16.520   1.472  14.329  0.2683 -0.1964  0.0559
33079ION     NA49553   4.899   5.015  10.404 -0.2306  0.1464 -0.1226
33080ION     NA49554   4.185   8.865  10.549  0.2637 -0.1621  0.1173
33081ION     NA49555   4.587  15.221  11.392 -0.0525  0.1017 -0.3219
33082ION     NA49556   6.132   7.226  10.524  0.3861  0.0806 -0.0311
33083ION     NA49557  14.931   2.706   2.775 -0.4667  0.1092 -0.1867
33084ION     NA49558  12.318  15.730   6.392  0.2136 -0.1356  0.0234
33085ION     NA49559  14.322   3.278   9.869 -0.0927  0.2941 -0.0889
33086ION     NA49560   1.686  13.887  10.587  0.0889  0.0728  0.1563
33087ION     NA49561  18.305  11.929  10.544 -0.0666 -0.1915  0.2453
33088ION     NA49562  11.656   6.766   2.872  0.2938 -0.0542  0.1411
33089ION     NA49563   6.935  15.781   6.171 -0.1538  0.0896 -0.1131
33090ION     NA49564  10.448  13.710  10.627 -0.1151 -0.0705 -0.0480
33091ION     NA49565   8.609   9.485   5.947  0.1497 -0.2601 -0.1455
33092ION     NA49566   1.982   7.465  10.516 -0.0911  0.1070  0.4236
33093ION     NA49567  10.133   6.443   9.768  0.0011 -0.1135  0.1620
33094ION     NA49568  12.235   2.743  15.335  0.4510 -0.0332 -0.0926
33095ION     NA49569   6.478   3.659  12.254 -0.0968  0.2065 -0.1174
33096ION     NA49570  10.970   0.724   0.480 -0.0842  0.0632 -0.0441
33097ION     NA49571   7.616  15.290  10.891  0.0907 -0.0301  0.0777
33098ION     NA49572   9.493   9.221   9.987  0.0247 -0.0503  0.2422
33099ION     NA49573   9.295  16.879   6.410  0.1702  0.0736 -0.0011
33100ION     NA49574   0.423   8.870   1.289  0.0439  0.0720 -0.4170
33101ION     NA49575  14.149  15.798   6.058  0.0893 -0.0164  0.2010
33102ION     NA49576   9.903   2.464  10.659  0.0835  0.1254 -0.0565
33103ION     NA49577   1.223   4.283  10.755  0.4522 -0.3137 -0.0675
33104ION     NA49578  14.327  14.471   5.922 -0.3092  0.0543  0.0429
33105ION     NA49579   6.369   3.246   0.673  0.2544  0.0741 -0.2669
33106ION     NA49580   2.812  16.239   3.593  0.1517  0.0751 -0.1743
33107ION     NA49581   4.019   4.035   1.933 -0.2021 -0.2905 -0.2414
33108ION     NA49582   7.929   8.001  10.086 -0.2808  0.0182 -0.0371
33109ION     NA49583  17.642   3.980   1.144 -0.0427  0.1239  0.3304
33110ION     NA49584   4.099  14.924   3.018 -0.0179  0.0824 -0.1997
33111ION     NA49585  15.007   2.589   5.771 -0.0356  0.1357  0.1161
33112ION     NA49586   6.293  11.270  14.876 -0.0296 -0.1858  0.0374
33113ION     NA49587   9.407   9.872  13.561 -0.0379  0.0168  0.1134
33114ION     NA49588  16.656  15.241  10.420  0.1613 -0.2324  0.2571
33115ION     NA49589   8.396   3.449  10.547  0.0425  0.1044  0.0367
33116ION     NA49590   3.173   3.651   0.632 -0.4328 -0.3282 -0.1453
33117ION     NA49591   7.370  13.548  10.460 -0.1674  0.0995 -0.0565
33118ION     NA49592  13.108  12.831  10.381  0.4757  0.0106  0.1176
33119ION     NA49593   2.677   6.788  12.112  0.0608 -0.1729 -0.1332
33120ION     NA49594  17.878   1.774  10.461  0.4544  0.0228 -0.1368
33121ION     NA49595   5.559   5.694   5.680  0.1251  0.4201 -0.2424
33122ION     NA49596  15.489   5.499   9.858 -0.0600  0.0079 -0.0560
33123ION     NA49597  15.541   1.842  13.114 -0.1355 -0.3407 -0.1229
33124ION     NA49598   0.516  10.579  10.454  0.3166  0.3286 -0.0100
33125ION     NA49599   5.623  14.028  13.959 -0.3873  0.1141  0.0784
33126ION     NA49600   2.454  14.819  10.868  0.0972  0.3761 -0.0360
33127ION     NA49601   6.782   3.782   4.760  0.1411 -0.0443  0.0779
33128ION     NA49602   4.410   7.177  10.326 -0.0283  0.1578 -0.1132
33129ION     NA49603  16.789  12.982  10.267  0.0287  0.1032  0.0657
33130ION     NA49604   8.453   9.315   2.976  0.0602 -0.1438  0.6253
33131ION     NA49605  10.971   0.598  10.777 -0.2689 -0.0342  0.0023
33132ION     NA49606   9.029   5.923   9.886 -0.2842  0.2223  0.1408
  18.39635  18.39635  16.34284
